# Solver information
# Time        	U_solver      	Ux_initial    	Ux_final      	Ux_iters      	Uy_initial    	Uy_final      	Uy_iters      	U_converged   	p_rgh_solver  	p_rgh_initial 	p_rgh_final   	p_rgh_iters   	p_rgh_converged
1.545         	DILUPBiCGStab	4.879430e-07	7.407380e-15	1	1.534930e-06	1.950900e-14	1	false	GAMG	1.902760e-06	6.960380e-10	1	true
1.545         	DILUPBiCGStab	2.261620e-07	4.538470e-15	1	1.120880e-06	1.728160e-14	1	false	GAMG	3.487320e-09	3.569580e-10	1	true
1.545         	DILUPBiCGStab	2.436130e-07	8.088620e-15	1	1.339590e-06	3.485850e-14	1	false	GAMG	2.818340e-09	2.510420e-10	1	true
1.545         	DILUPBiCGStab	2.327490e-07	1.485330e-14	1	1.247180e-06	5.690510e-14	1	false	GAMG	2.727890e-09	2.058870e-10	1	true
1.545         	DILUPBiCGStab	2.457700e-07	2.543340e-14	1	1.316320e-06	9.702210e-14	1	false	GAMG	2.860060e-09	9.225130e-11	1	true
1.545         	DILUPBiCGStab	2.864080e-07	4.468190e-14	1	1.538220e-06	1.703480e-13	1	false	GAMG	3.353730e-09	7.562730e-11	1	true
1.545         	DILUPBiCGStab	3.407210e-07	7.935130e-14	1	1.835670e-06	3.026210e-13	1	false	GAMG	4.190660e-09	7.808740e-11	1	true
1.545         	DILUPBiCGStab	4.076550e-07	1.418200e-13	1	2.199320e-06	5.419100e-13	1	false	GAMG	5.742090e-09	8.039190e-11	1	true
1.545         	DILUPBiCGStab	4.887290e-07	2.546940e-13	1	2.638010e-06	9.632740e-13	1	false	GAMG	7.879330e-09	9.751400e-11	1	true
1.545         	DILUPBiCGStab	5.864090e-07	4.583580e-13	1	3.166330e-06	1.718780e-12	1	false	GAMG	1.196110e-08	1.311070e-10	1	true
1.545         	DILUPBiCGStab	7.041300e-07	8.274640e-13	1	3.802420e-06	3.069970e-12	1	false	GAMG	1.661840e-08	1.532750e-10	1	true
1.545         	DILUPBiCGStab	8.465180e-07	1.502180e-12	1	4.570070e-06	5.484160e-12	1	false	GAMG	2.074180e-08	1.803150e-10	1	true
1.54501       	DILUPBiCGStab	1.018900e-06	2.740810e-12	1	5.497600e-06	9.824440e-12	1	false	GAMG	2.588470e-08	2.225200e-10	1	true
1.54501       	DILUPBiCGStab	1.227940e-06	5.021710e-12	1	6.619850e-06	1.764610e-11	1	false	GAMG	3.227850e-08	2.791050e-10	1	true
1.54501       	DILUPBiCGStab	1.481960e-06	9.229690e-12	1	7.979190e-06	3.176630e-11	1	false	GAMG	4.029320e-08	3.572110e-10	1	true
1.54501       	DILUPBiCGStab	1.791320e-06	1.699120e-11	1	9.628520e-06	5.735630e-11	1	false	GAMG	4.979500e-08	4.634990e-10	1	true
1.54501       	DILUPBiCGStab	2.165130e-06	3.109560e-11	1	1.161240e-05	1.033070e-10	1	false	GAMG	6.192910e-08	6.009270e-10	1	true
1.54502       	DILUPBiCGStab	2.545120e-06	5.171450e-11	1	1.361850e-05	1.697790e-10	1	false	GAMG	7.493960e-08	7.580900e-10	1	true
1.54502       	DILUPBiCGStab	2.932420e-06	8.023040e-11	1	1.565200e-05	2.613890e-10	1	false	GAMG	8.895230e-08	9.457780e-10	1	true
1.54502       	DILUPBiCGStab	3.326660e-06	1.179300e-10	1	1.771080e-05	3.820500e-10	1	false	GAMG	1.054810e-07	1.133640e-09	1	true
1.54503       	DILUPBiCGStab	3.707830e-06	1.634240e-10	1	1.969080e-05	5.284250e-10	1	false	GAMG	1.230640e-07	1.345360e-09	1	true
1.54503       	DILUPBiCGStab	3.709850e-06	1.633550e-10	1	1.970160e-05	5.289930e-10	1	false	GAMG	1.240910e-07	1.392710e-09	1	true
1.54503       	DILUPBiCGStab	3.710670e-06	1.632280e-10	1	1.970200e-05	5.291240e-10	1	false	GAMG	1.253920e-07	1.483530e-09	1	true
1.54504       	DILUPBiCGStab	3.713810e-06	1.633200e-10	1	1.970840e-05	5.281210e-10	1	false	GAMG	1.350490e-07	1.454980e-09	1	true
1.54504       	DILUPBiCGStab	3.712780e-06	1.628950e-10	1	1.970280e-05	5.268060e-10	1	false	GAMG	1.336660e-07	1.373260e-09	1	true
1.54504       	DILUPBiCGStab	3.710090e-06	1.620390e-10	1	1.970180e-05	5.267980e-10	1	false	GAMG	1.263900e-07	1.331300e-09	1	true
1.54505       	DILUPBiCGStab	3.711790e-06	1.617090e-10	1	1.972070e-05	5.261620e-10	1	false	GAMG	1.224220e-07	1.361810e-09	1	true
1.54505       	DILUPBiCGStab	3.711660e-06	1.611620e-10	1	1.972720e-05	5.259250e-10	1	false	GAMG	1.241390e-07	1.350460e-09	1	true
1.54505       	DILUPBiCGStab	3.711760e-06	1.607120e-10	1	1.973140e-05	5.276020e-10	1	false	GAMG	1.207110e-07	1.333910e-09	1	true
1.54506       	DILUPBiCGStab	3.711860e-06	1.602010e-10	1	1.973940e-05	5.258550e-10	1	false	GAMG	1.219600e-07	1.346320e-09	1	true
1.54506       	DILUPBiCGStab	3.712340e-06	1.598660e-10	1	1.974510e-05	5.256370e-10	1	false	GAMG	1.199880e-07	1.348410e-09	1	true
1.54507       	DILUPBiCGStab	3.716080e-06	1.599330e-10	1	1.977010e-05	5.293170e-10	1	false	GAMG	1.640590e-07	1.344400e-09	1	true
1.54507       	DILUPBiCGStab	3.717700e-06	1.597780e-10	1	1.977650e-05	5.286840e-10	1	false	GAMG	1.262020e-07	1.339580e-09	1	true
1.54507       	DILUPBiCGStab	3.723410e-06	1.601570e-10	1	1.980650e-05	5.324240e-10	1	false	GAMG	1.296060e-07	1.395580e-09	1	true
1.54508       	DILUPBiCGStab	3.726100e-06	1.600280e-10	1	1.981050e-05	5.322990e-10	1	false	GAMG	1.338300e-07	1.389780e-09	1	true
1.54508       	DILUPBiCGStab	3.729200e-06	1.600290e-10	1	1.982140e-05	5.328690e-10	1	false	GAMG	1.376800e-07	1.454960e-09	1	true
1.54508       	DILUPBiCGStab	3.726430e-06	1.593000e-10	1	1.982020e-05	5.330330e-10	1	false	GAMG	1.395890e-07	1.391280e-09	1	true
1.54509       	DILUPBiCGStab	3.727690e-06	1.590060e-10	1	1.982990e-05	5.346960e-10	1	false	GAMG	1.078800e-07	1.375780e-09	1	true
1.54509       	DILUPBiCGStab	3.727580e-06	1.584160e-10	1	1.983340e-05	5.342150e-10	1	false	GAMG	1.322180e-07	1.372350e-09	1	true
1.54509       	DILUPBiCGStab	3.727530e-06	1.578700e-10	1	1.982900e-05	5.335690e-10	1	false	GAMG	1.293420e-07	1.348720e-09	1	true
1.5451        	DILUPBiCGStab	3.730550e-06	1.577260e-10	1	1.984460e-05	5.347040e-10	1	false	GAMG	1.274660e-07	1.345640e-09	1	true
1.5451        	DILUPBiCGStab	3.730090e-06	1.571420e-10	1	1.984160e-05	5.350250e-10	1	false	GAMG	1.241200e-07	1.347160e-09	1	true
1.54511       	DILUPBiCGStab	3.729500e-06	1.566340e-10	1	1.983960e-05	5.350730e-10	1	false	GAMG	1.073980e-07	1.348290e-09	1	true
1.54511       	DILUPBiCGStab	3.732300e-06	1.566110e-10	1	1.985600e-05	5.373410e-10	1	false	GAMG	1.295940e-07	1.351020e-09	1	true
1.54511       	DILUPBiCGStab	3.732380e-06	1.561850e-10	1	1.985600e-05	5.375650e-10	1	false	GAMG	1.296940e-07	1.367790e-09	1	true
1.54512       	DILUPBiCGStab	3.732770e-06	1.557770e-10	1	1.985620e-05	5.377670e-10	1	false	GAMG	1.313210e-07	1.396110e-09	1	true
1.54512       	DILUPBiCGStab	3.734650e-06	1.555810e-10	1	1.985970e-05	5.378580e-10	1	false	GAMG	1.202180e-07	1.465600e-09	1	true
1.54512       	DILUPBiCGStab	3.740540e-06	1.559890e-10	1	1.988470e-05	5.406520e-10	1	false	GAMG	1.501040e-07	1.439210e-09	1	true
1.54513       	DILUPBiCGStab	3.741140e-06	1.557180e-10	1	1.989320e-05	5.446410e-10	1	false	GAMG	1.387840e-07	1.420720e-09	1	true
1.54513       	DILUPBiCGStab	3.740020e-06	1.550970e-10	1	1.989400e-05	5.463000e-10	1	false	GAMG	1.201190e-07	1.405460e-09	1	true
1.54514       	DILUPBiCGStab	3.738630e-06	1.543200e-10	1	1.989280e-05	5.450740e-10	1	false	GAMG	1.429390e-07	1.416110e-09	1	true
1.54514       	DILUPBiCGStab	3.737900e-06	1.536800e-10	1	1.988830e-05	5.438420e-10	1	false	GAMG	1.146180e-07	1.385880e-09	1	true
1.54514       	DILUPBiCGStab	3.737950e-06	1.531900e-10	1	1.989250e-05	5.439010e-10	1	false	GAMG	1.367920e-07	1.349340e-09	1	true
1.54515       	DILUPBiCGStab	3.738080e-06	1.527790e-10	1	1.989280e-05	5.445720e-10	1	false	GAMG	1.105010e-07	1.341370e-09	1	true
1.54515       	DILUPBiCGStab	3.738100e-06	1.523750e-10	1	1.989760e-05	5.457240e-10	1	false	GAMG	1.373600e-07	1.335310e-09	1	true
1.54515       	DILUPBiCGStab	3.737800e-06	1.519240e-10	1	1.989600e-05	5.457300e-10	1	false	GAMG	1.112660e-07	1.342030e-09	1	true
1.54516       	DILUPBiCGStab	3.737870e-06	1.514800e-10	1	1.989930e-05	5.463490e-10	1	false	GAMG	1.361500e-07	1.349610e-09	1	true
1.54516       	DILUPBiCGStab	3.738490e-06	1.510950e-10	1	1.989650e-05	5.462920e-10	1	false	GAMG	1.088640e-07	1.368500e-09	1	true
1.54516       	DILUPBiCGStab	3.740010e-06	1.508110e-10	1	1.989790e-05	5.463220e-10	1	false	GAMG	1.436360e-07	1.383590e-09	1	true
1.54517       	DILUPBiCGStab	3.741780e-06	1.506830e-10	1	1.989440e-05	5.464960e-10	1	false	GAMG	1.207120e-07	1.380110e-09	1	true
1.54517       	DILUPBiCGStab	3.743410e-06	1.505440e-10	1	1.990780e-05	5.501330e-10	1	false	GAMG	1.422420e-07	1.338260e-09	1	true
1.54518       	DILUPBiCGStab	3.741770e-06	1.499410e-10	1	1.990330e-05	5.501450e-10	1	false	GAMG	1.135520e-07	1.362580e-09	1	true
1.54518       	DILUPBiCGStab	3.741430e-06	1.494320e-10	1	1.990130e-05	5.506060e-10	1	false	GAMG	1.133260e-07	1.370610e-09	1	true
1.54518       	DILUPBiCGStab	3.742010e-06	1.491130e-10	1	1.990460e-05	5.510840e-10	1	false	GAMG	1.349980e-07	1.396100e-09	1	true
1.54519       	DILUPBiCGStab	3.743280e-06	1.488770e-10	1	1.990690e-05	5.524570e-10	1	false	GAMG	1.055210e-07	1.425500e-09	1	true
1.54519       	DILUPBiCGStab	3.745170e-06	1.486890e-10	1	1.991390e-05	5.551730e-10	1	false	GAMG	1.072470e-07	1.446290e-09	1	true
1.54519       	DILUPBiCGStab	3.744800e-06	1.482540e-10	1	1.991420e-05	5.560050e-10	1	false	GAMG	1.376220e-07	1.441520e-09	1	true
1.5452        	DILUPBiCGStab	3.742750e-06	1.476010e-10	1	1.990580e-05	5.559770e-10	1	false	GAMG	1.229110e-07	1.439810e-09	1	true
1.5452        	DILUPBiCGStab	3.741780e-06	1.470870e-10	1	1.990520e-05	5.563140e-10	1	false	GAMG	1.054730e-07	1.440130e-09	1	true
1.54521       	DILUPBiCGStab	3.741890e-06	1.466830e-10	1	1.991080e-05	5.561050e-10	1	false	GAMG	1.316190e-07	1.454900e-09	1	true
1.54521       	DILUPBiCGStab	3.743560e-06	1.464550e-10	1	1.991320e-05	5.558750e-10	1	false	GAMG	1.147990e-07	1.498320e-09	1	true
1.54521       	DILUPBiCGStab	3.745920e-06	1.463800e-10	1	1.991550e-05	5.560890e-10	1	false	GAMG	1.111050e-07	1.463770e-09	1	true
1.54522       	DILUPBiCGStab	3.745500e-06	1.461140e-10	1	1.991670e-05	5.595640e-10	1	false	GAMG	1.144830e-07	1.417280e-09	1	true
1.54522       	DILUPBiCGStab	3.743840e-06	1.455410e-10	1	1.991990e-05	5.621010e-10	1	false	GAMG	1.198180e-07	1.445460e-09	1	true
1.54522       	DILUPBiCGStab	3.743620e-06	1.450720e-10	1	1.992270e-05	5.619080e-10	1	false	GAMG	1.144010e-07	1.425920e-09	1	true
1.54523       	DILUPBiCGStab	3.743690e-06	1.446750e-10	1	1.992550e-05	5.620190e-10	1	false	GAMG	1.083470e-07	1.428390e-09	1	true
1.54523       	DILUPBiCGStab	3.743860e-06	1.442440e-10	1	1.992700e-05	5.630760e-10	1	false	GAMG	1.075700e-07	1.411210e-09	1	true
1.54523       	DILUPBiCGStab	3.744130e-06	1.438760e-10	1	1.992700e-05	5.637770e-10	1	false	GAMG	1.073960e-07	1.419110e-09	1	true
1.54524       	DILUPBiCGStab	3.744140e-06	1.435240e-10	1	1.992590e-05	5.656230e-10	1	false	GAMG	1.078600e-07	1.411780e-09	1	true
1.54524       	DILUPBiCGStab	3.744040e-06	1.432220e-10	1	1.992550e-05	5.662330e-10	1	false	GAMG	1.091320e-07	1.407860e-09	1	true
1.54525       	DILUPBiCGStab	3.743910e-06	1.429200e-10	1	1.992420e-05	5.659910e-10	1	false	GAMG	1.080770e-07	1.404060e-09	1	true
1.54525       	DILUPBiCGStab	3.744060e-06	1.427050e-10	1	1.992370e-05	5.659460e-10	1	false	GAMG	1.076640e-07	1.412860e-09	1	true
1.54525       	DILUPBiCGStab	3.748970e-06	1.429810e-10	1	1.994160e-05	5.685590e-10	1	false	GAMG	1.132180e-07	1.460820e-09	1	true
1.54526       	DILUPBiCGStab	3.752580e-06	1.431260e-10	1	1.994560e-05	5.693820e-10	1	false	GAMG	1.189640e-07	1.505460e-09	1	true
1.54526       	DILUPBiCGStab	3.753370e-06	1.430580e-10	1	1.995000e-05	5.720190e-10	1	false	GAMG	1.147390e-07	1.459330e-09	1	true
1.54526       	DILUPBiCGStab	3.751150e-06	1.424900e-10	1	1.994730e-05	5.739050e-10	1	false	GAMG	1.140870e-07	1.437080e-09	1	true
1.54527       	DILUPBiCGStab	3.748410e-06	1.418360e-10	1	1.994070e-05	5.738840e-10	1	false	GAMG	1.117450e-07	1.447350e-09	1	true
1.54527       	DILUPBiCGStab	3.747120e-06	1.413340e-10	1	1.993980e-05	5.738350e-10	1	false	GAMG	1.093060e-07	1.413740e-09	1	true
1.54528       	DILUPBiCGStab	3.746870e-06	1.409830e-10	1	1.994270e-05	5.751880e-10	1	false	GAMG	1.046310e-07	1.379200e-09	1	true
1.54528       	DILUPBiCGStab	3.747130e-06	1.406990e-10	1	1.994590e-05	5.762130e-10	1	false	GAMG	1.042260e-07	1.370460e-09	1	true
1.54528       	DILUPBiCGStab	3.747270e-06	1.404630e-10	1	1.994990e-05	5.775370e-10	1	false	GAMG	1.037500e-07	1.372500e-09	1	true
1.54529       	DILUPBiCGStab	3.747410e-06	1.402050e-10	1	1.995450e-05	5.784160e-10	1	false	GAMG	1.056330e-07	1.378400e-09	1	true
1.54529       	DILUPBiCGStab	3.747760e-06	1.399570e-10	1	1.995970e-05	5.796160e-10	1	false	GAMG	1.011970e-07	1.396180e-09	1	true
1.54529       	DILUPBiCGStab	3.748340e-06	1.397560e-10	1	1.996300e-05	5.813920e-10	1	false	GAMG	1.030940e-07	1.389960e-09	1	true
1.5453        	DILUPBiCGStab	3.749680e-06	1.396290e-10	1	1.996740e-05	5.828100e-10	1	false	GAMG	1.068590e-07	1.419180e-09	1	true
1.5453        	DILUPBiCGStab	3.752050e-06	1.395960e-10	1	1.997060e-05	5.837870e-10	1	false	GAMG	1.121480e-07	1.465060e-09	1	true
1.5453        	DILUPBiCGStab	3.753040e-06	1.395090e-10	1	1.996930e-05	5.856130e-10	1	false	GAMG	1.113490e-07	1.377990e-09	1	true
1.54531       	DILUPBiCGStab	3.750910e-06	1.390790e-10	1	1.996920e-05	5.896140e-10	1	false	GAMG	1.113550e-07	1.367790e-09	1	true
1.54531       	DILUPBiCGStab	3.749580e-06	1.386460e-10	1	1.996880e-05	5.915970e-10	1	false	GAMG	1.074230e-07	1.378370e-09	1	true
1.54532       	DILUPBiCGStab	3.749040e-06	1.383610e-10	1	1.996830e-05	5.927800e-10	1	false	GAMG	1.058540e-07	1.346900e-09	1	true
1.54532       	DILUPBiCGStab	3.748770e-06	1.380530e-10	1	1.996700e-05	5.941380e-10	1	false	GAMG	1.055170e-07	1.309410e-09	1	true
1.54532       	DILUPBiCGStab	3.748720e-06	1.378290e-10	1	1.996660e-05	5.965780e-10	1	false	GAMG	1.062640e-07	1.316350e-09	1	true
1.54533       	DILUPBiCGStab	3.751750e-06	1.380310e-10	1	1.998310e-05	6.001010e-10	1	false	GAMG	1.070850e-07	1.326230e-09	1	true
1.54533       	DILUPBiCGStab	3.751540e-06	1.378480e-10	1	1.998210e-05	6.017790e-10	1	false	GAMG	1.046230e-07	1.332350e-09	1	true
1.54533       	DILUPBiCGStab	3.751900e-06	1.377280e-10	1	1.998290e-05	6.033830e-10	1	false	GAMG	1.019560e-07	1.337050e-09	1	true
1.54534       	DILUPBiCGStab	3.753030e-06	1.376720e-10	1	1.998460e-05	6.050070e-10	1	false	GAMG	1.031760e-07	1.328480e-09	1	true
1.54534       	DILUPBiCGStab	3.755030e-06	1.377720e-10	1	1.998920e-05	6.072940e-10	1	false	GAMG	1.042170e-07	1.366930e-09	1	true
1.54535       	DILUPBiCGStab	3.757390e-06	1.377830e-10	1	1.999350e-05	6.077790e-10	1	false	GAMG	1.098640e-07	1.356130e-09	1	true
1.54535       	DILUPBiCGStab	3.758240e-06	1.376730e-10	1	1.999350e-05	6.078500e-10	1	false	GAMG	1.137750e-07	1.362820e-09	1	true
1.54535       	DILUPBiCGStab	3.755680e-06	1.373000e-10	1	1.999030e-05	6.094200e-10	1	false	GAMG	1.084610e-07	1.370500e-09	1	true
1.54536       	DILUPBiCGStab	3.753640e-06	1.369550e-10	1	1.999080e-05	6.100800e-10	1	false	GAMG	1.113580e-07	1.374790e-09	1	true
1.54536       	DILUPBiCGStab	3.752850e-06	1.366590e-10	1	1.999300e-05	6.112980e-10	1	false	GAMG	1.047070e-07	1.397690e-09	1	true
1.54536       	DILUPBiCGStab	3.752960e-06	1.365370e-10	1	1.999720e-05	6.114930e-10	1	false	GAMG	9.972990e-08	1.374850e-09	1	true
1.54537       	DILUPBiCGStab	3.752680e-06	1.363750e-10	1	1.999870e-05	6.121500e-10	1	false	GAMG	1.011740e-07	1.356190e-09	1	true
1.54537       	DILUPBiCGStab	3.752550e-06	1.362340e-10	1	2.000110e-05	6.131640e-10	1	false	GAMG	1.034100e-07	1.343300e-09	1	true
1.54537       	DILUPBiCGStab	3.752550e-06	1.360850e-10	1	2.000140e-05	6.135870e-10	1	false	GAMG	1.054280e-07	1.338050e-09	1	true
1.54538       	DILUPBiCGStab	3.752770e-06	1.359280e-10	1	2.000240e-05	6.141860e-10	1	false	GAMG	1.039300e-07	1.346090e-09	1	true
1.54538       	DILUPBiCGStab	3.753340e-06	1.358660e-10	1	2.000320e-05	6.159910e-10	1	false	GAMG	1.002660e-07	1.356990e-09	1	true
1.54539       	DILUPBiCGStab	3.753840e-06	1.357780e-10	1	2.000220e-05	6.188100e-10	1	false	GAMG	1.016340e-07	1.366050e-09	1	true
1.54539       	DILUPBiCGStab	3.754620e-06	1.356700e-10	1	2.000160e-05	6.199240e-10	1	false	GAMG	1.027690e-07	1.414940e-09	1	true
1.54539       	DILUPBiCGStab	3.756540e-06	1.356640e-10	1	2.000090e-05	6.203030e-10	1	false	GAMG	1.095690e-07	1.439460e-09	1	true
1.5454        	DILUPBiCGStab	3.756600e-06	1.356960e-10	1	1.999770e-05	6.219490e-10	1	false	GAMG	1.135580e-07	1.369110e-09	1	true
1.5454        	DILUPBiCGStab	3.754310e-06	1.354110e-10	1	1.999540e-05	6.251340e-10	1	false	GAMG	1.077570e-07	1.347320e-09	1	true
1.5454        	DILUPBiCGStab	3.752870e-06	1.351310e-10	1	1.999410e-05	6.250460e-10	1	false	GAMG	1.026740e-07	1.369550e-09	1	true
1.54541       	DILUPBiCGStab	3.752090e-06	1.348710e-10	1	1.999360e-05	6.256210e-10	1	false	GAMG	1.204970e-07	1.339540e-09	1	true
1.54541       	DILUPBiCGStab	3.751700e-06	1.346850e-10	1	1.999200e-05	6.259180e-10	1	false	GAMG	1.018960e-07	1.324190e-09	1	true
1.54542       	DILUPBiCGStab	3.751180e-06	1.345080e-10	1	1.999200e-05	6.276890e-10	1	false	GAMG	1.002940e-07	1.315210e-09	1	true
1.54542       	DILUPBiCGStab	3.751140e-06	1.344340e-10	1	1.999320e-05	6.282960e-10	1	false	GAMG	1.031510e-07	1.307340e-09	1	true
1.54542       	DILUPBiCGStab	3.751510e-06	1.343710e-10	1	1.999650e-05	6.299430e-10	1	false	GAMG	1.020620e-07	1.313180e-09	1	true
1.54543       	DILUPBiCGStab	3.752180e-06	1.343820e-10	1	2.000090e-05	6.301670e-10	1	false	GAMG	1.014520e-07	1.311130e-09	1	true
1.54543       	DILUPBiCGStab	3.753070e-06	1.343770e-10	1	2.000500e-05	6.308800e-10	1	false	GAMG	1.000020e-07	1.312510e-09	1	true
1.54543       	DILUPBiCGStab	3.754800e-06	1.344390e-10	1	2.001240e-05	6.308770e-10	1	false	GAMG	1.006980e-07	1.336460e-09	1	true
1.54544       	DILUPBiCGStab	3.757800e-06	1.346020e-10	1	2.002250e-05	6.311210e-10	1	false	GAMG	1.076580e-07	1.385100e-09	1	true
1.54544       	DILUPBiCGStab	3.760480e-06	1.348380e-10	1	2.002680e-05	6.296180e-10	1	false	GAMG	1.119790e-07	1.359200e-09	1	true
1.54544       	DILUPBiCGStab	3.758860e-06	1.347200e-10	1	2.002440e-05	6.300370e-10	1	false	GAMG	1.132050e-07	1.315820e-09	1	true
1.54545       	DILUPBiCGStab	3.755970e-06	1.343940e-10	1	2.002150e-05	6.295140e-10	1	false	GAMG	1.034150e-07	1.349250e-09	1	true
1.54545       	DILUPBiCGStab	3.754490e-06	1.341490e-10	1	2.002080e-05	6.286040e-10	1	false	GAMG	9.712200e-08	1.353660e-09	1	true
1.54546       	DILUPBiCGStab	3.754070e-06	1.339800e-10	1	2.002090e-05	6.281520e-10	1	false	GAMG	1.006800e-07	1.334990e-09	1	true
1.54546       	DILUPBiCGStab	3.753610e-06	1.338410e-10	1	2.001960e-05	6.287450e-10	1	false	GAMG	1.025060e-07	1.287700e-09	1	true
1.54546       	DILUPBiCGStab	3.753430e-06	1.337350e-10	1	2.001800e-05	6.288710e-10	1	false	GAMG	1.020230e-07	1.268920e-09	1	true
1.54547       	DILUPBiCGStab	3.753010e-06	1.336490e-10	1	2.001580e-05	6.294260e-10	1	false	GAMG	1.042260e-07	1.263900e-09	1	true
1.54547       	DILUPBiCGStab	3.752780e-06	1.335390e-10	1	2.001410e-05	6.295770e-10	1	false	GAMG	9.871090e-08	1.263220e-09	1	true
1.54547       	DILUPBiCGStab	3.753050e-06	1.335080e-10	1	2.001230e-05	6.304060e-10	1	false	GAMG	9.909150e-08	1.261890e-09	1	true
1.54548       	DILUPBiCGStab	3.753240e-06	1.334750e-10	1	2.001050e-05	6.301420e-10	1	false	GAMG	9.830150e-08	1.274020e-09	1	true
1.54548       	DILUPBiCGStab	3.753670e-06	1.334700e-10	1	2.000940e-05	6.302560e-10	1	false	GAMG	1.024090e-07	1.291150e-09	1	true
1.54549       	DILUPBiCGStab	3.755210e-06	1.335570e-10	1	2.000930e-05	6.293890e-10	1	false	GAMG	1.098640e-07	1.294380e-09	1	true
1.54549       	DILUPBiCGStab	3.755550e-06	1.336960e-10	1	2.000690e-05	6.301560e-10	1	false	GAMG	1.072000e-07	1.252660e-09	1	true
1.54549       	DILUPBiCGStab	3.753910e-06	1.336350e-10	1	2.000750e-05	6.315330e-10	1	false	GAMG	9.330440e-08	1.262760e-09	1	true
1.5455        	DILUPBiCGStab	3.752830e-06	1.335660e-10	1	2.000930e-05	6.312780e-10	1	false	GAMG	9.611360e-08	1.280990e-09	1	true
1.5455        	DILUPBiCGStab	3.752560e-06	1.334930e-10	1	2.001280e-05	6.314250e-10	1	false	GAMG	9.395040e-08	1.283680e-09	1	true
1.5455        	DILUPBiCGStab	3.752550e-06	1.335180e-10	1	2.001550e-05	6.312610e-10	1	false	GAMG	9.576030e-08	1.271670e-09	1	true
1.54551       	DILUPBiCGStab	3.752770e-06	1.335460e-10	1	2.001890e-05	6.313750e-10	1	false	GAMG	9.600090e-08	1.259720e-09	1	true
1.54551       	DILUPBiCGStab	3.753060e-06	1.336760e-10	1	2.002320e-05	6.316580e-10	1	false	GAMG	9.924680e-08	1.253600e-09	1	true
1.54551       	DILUPBiCGStab	3.753290e-06	1.337040e-10	1	2.002690e-05	6.327110e-10	1	false	GAMG	9.424680e-08	1.249800e-09	1	true
1.54552       	DILUPBiCGStab	3.753620e-06	1.338290e-10	1	2.003000e-05	6.314930e-10	1	false	GAMG	9.493260e-08	1.238750e-09	1	true
1.54552       	DILUPBiCGStab	3.754390e-06	1.339000e-10	1	2.003170e-05	6.317260e-10	1	false	GAMG	9.384870e-08	1.234100e-09	1	true
1.54553       	DILUPBiCGStab	3.755070e-06	1.338770e-10	1	2.003390e-05	6.316660e-10	1	false	GAMG	9.654760e-08	1.222550e-09	1	true
1.54553       	DILUPBiCGStab	3.756170e-06	1.339740e-10	1	2.003590e-05	6.314390e-10	1	false	GAMG	1.049440e-07	1.210610e-09	1	true
1.54553       	DILUPBiCGStab	3.761110e-06	1.344230e-10	1	2.005400e-05	6.325720e-10	1	false	GAMG	1.111560e-07	1.240950e-09	1	true
1.54554       	DILUPBiCGStab	3.760690e-06	1.346000e-10	1	2.005400e-05	6.339130e-10	1	false	GAMG	1.062280e-07	1.245460e-09	1	true
1.54554       	DILUPBiCGStab	3.760180e-06	1.346200e-10	1	2.005560e-05	6.351390e-10	1	false	GAMG	9.731770e-08	1.274740e-09	1	true
1.54554       	DILUPBiCGStab	3.760860e-06	1.348160e-10	1	2.005950e-05	6.350830e-10	1	false	GAMG	9.538970e-08	1.275410e-09	1	true
1.54555       	DILUPBiCGStab	3.761050e-06	1.348480e-10	1	2.005700e-05	6.340640e-10	1	false	GAMG	9.761380e-08	1.244780e-09	1	true
1.54555       	DILUPBiCGStab	3.759600e-06	1.347280e-10	1	2.005020e-05	6.325140e-10	1	false	GAMG	9.740880e-08	1.250460e-09	1	true
1.54556       	DILUPBiCGStab	3.757920e-06	1.346120e-10	1	2.004320e-05	6.315140e-10	1	false	GAMG	9.880890e-08	1.241000e-09	1	true
1.54556       	DILUPBiCGStab	3.756820e-06	1.346260e-10	1	2.003990e-05	6.304960e-10	1	false	GAMG	9.574960e-08	1.221200e-09	1	true
1.54556       	DILUPBiCGStab	3.756390e-06	1.347010e-10	1	2.003940e-05	6.294950e-10	1	false	GAMG	9.384050e-08	1.210490e-09	1	true
1.54557       	DILUPBiCGStab	3.756030e-06	1.347730e-10	1	2.003860e-05	6.285770e-10	1	false	GAMG	9.177860e-08	1.198720e-09	1	true
1.54557       	DILUPBiCGStab	3.756320e-06	1.348200e-10	1	2.003970e-05	6.270900e-10	1	false	GAMG	9.368080e-08	1.203360e-09	1	true
1.54557       	DILUPBiCGStab	3.756900e-06	1.349120e-10	1	2.004190e-05	6.251380e-10	1	false	GAMG	9.392610e-08	1.222660e-09	1	true
1.54558       	DILUPBiCGStab	3.758290e-06	1.349980e-10	1	2.004460e-05	6.228090e-10	1	false	GAMG	1.045110e-07	1.245920e-09	1	true
1.54558       	DILUPBiCGStab	3.759530e-06	1.352080e-10	1	2.004590e-05	6.219180e-10	1	false	GAMG	1.032950e-07	1.189240e-09	1	true
1.54559       	DILUPBiCGStab	3.758400e-06	1.352810e-10	1	2.004670e-05	6.217930e-10	1	false	GAMG	9.720300e-08	1.177880e-09	1	true
1.54559       	DILUPBiCGStab	3.757630e-06	1.353370e-10	1	2.004940e-05	6.210040e-10	1	false	GAMG	9.151900e-08	1.219590e-09	1	true
1.54559       	DILUPBiCGStab	3.757770e-06	1.354110e-10	1	2.005140e-05	6.206220e-10	1	false	GAMG	9.342050e-08	1.219770e-09	1	true
1.5456        	DILUPBiCGStab	3.758120e-06	1.354960e-10	1	2.005380e-05	6.209550e-10	1	false	GAMG	9.181910e-08	1.203080e-09	1	true
1.5456        	DILUPBiCGStab	3.758140e-06	1.355370e-10	1	2.005530e-05	6.194210e-10	1	false	GAMG	9.435670e-08	1.196160e-09	1	true
1.5456        	DILUPBiCGStab	3.757590e-06	1.356050e-10	1	2.005570e-05	6.186960e-10	1	false	GAMG	1.072570e-07	1.180010e-09	1	true
1.54561       	DILUPBiCGStab	3.757340e-06	1.356490e-10	1	2.005450e-05	6.176200e-10	1	false	GAMG	9.596850e-08	1.169130e-09	1	true
1.54561       	DILUPBiCGStab	3.757240e-06	1.357270e-10	1	2.005370e-05	6.164240e-10	1	false	GAMG	8.844500e-08	1.180390e-09	1	true
1.54561       	DILUPBiCGStab	3.757280e-06	1.357640e-10	1	2.005190e-05	6.153590e-10	1	false	GAMG	9.178160e-08	1.174130e-09	1	true
1.54562       	DILUPBiCGStab	3.757220e-06	1.357630e-10	1	2.005010e-05	6.140910e-10	1	false	GAMG	9.160130e-08	1.170920e-09	1	true
1.54562       	DILUPBiCGStab	3.761200e-06	1.361400e-10	1	2.006620e-05	6.142110e-10	1	false	GAMG	9.321650e-08	1.197390e-09	1	true
1.54563       	DILUPBiCGStab	3.762320e-06	1.361920e-10	1	2.006480e-05	6.129690e-10	1	false	GAMG	9.921080e-08	1.222230e-09	1	true
1.54563       	DILUPBiCGStab	3.762480e-06	1.363290e-10	1	2.006120e-05	6.123220e-10	1	false	GAMG	1.035590e-07	1.181750e-09	1	true
1.54563       	DILUPBiCGStab	3.760940e-06	1.363660e-10	1	2.006020e-05	6.125890e-10	1	false	GAMG	9.519820e-08	1.175250e-09	1	true
1.54564       	DILUPBiCGStab	3.760120e-06	1.364040e-10	1	2.006080e-05	6.116000e-10	1	false	GAMG	9.219720e-08	1.232440e-09	1	true
1.54564       	DILUPBiCGStab	3.760170e-06	1.364260e-10	1	2.006230e-05	6.094000e-10	1	false	GAMG	9.391430e-08	1.245360e-09	1	true
1.54564       	DILUPBiCGStab	3.760880e-06	1.365280e-10	1	2.006700e-05	6.084170e-10	1	false	GAMG	9.268170e-08	1.254960e-09	1	true
1.54565       	DILUPBiCGStab	3.762100e-06	1.367460e-10	1	2.007510e-05	6.088190e-10	1	false	GAMG	9.363890e-08	1.275350e-09	1	true
1.54565       	DILUPBiCGStab	3.763000e-06	1.369670e-10	1	2.008150e-05	6.093340e-10	1	false	GAMG	9.486090e-08	1.241160e-09	1	true
1.54566       	DILUPBiCGStab	3.762100e-06	1.370390e-10	1	2.008030e-05	6.088920e-10	1	false	GAMG	9.620350e-08	1.226110e-09	1	true
1.54566       	DILUPBiCGStab	3.761200e-06	1.370990e-10	1	2.007820e-05	6.082890e-10	1	false	GAMG	9.013820e-08	1.252220e-09	1	true
1.54566       	DILUPBiCGStab	3.760880e-06	1.371340e-10	1	2.007940e-05	6.080030e-10	1	false	GAMG	8.834130e-08	1.252440e-09	1	true
1.54567       	DILUPBiCGStab	3.761270e-06	1.371630e-10	1	2.008200e-05	6.081620e-10	1	false	GAMG	8.946190e-08	1.251790e-09	1	true
1.54567       	DILUPBiCGStab	3.762200e-06	1.371800e-10	1	2.008670e-05	6.076570e-10	1	false	GAMG	9.201690e-08	1.302390e-09	1	true
1.54567       	DILUPBiCGStab	3.763680e-06	1.372830e-10	1	2.009000e-05	6.084120e-10	1	false	GAMG	9.940310e-08	1.299040e-09	1	true
1.54568       	DILUPBiCGStab	3.763890e-06	1.374690e-10	1	2.008840e-05	6.091140e-10	1	false	GAMG	1.026640e-07	1.212400e-09	1	true
1.54568       	DILUPBiCGStab	3.762600e-06	1.375600e-10	1	2.008880e-05	6.103950e-10	1	false	GAMG	9.321980e-08	1.232700e-09	1	true
1.54568       	DILUPBiCGStab	3.762150e-06	1.375870e-10	1	2.008960e-05	6.105480e-10	1	false	GAMG	9.270400e-08	1.249130e-09	1	true
1.54569       	DILUPBiCGStab	3.762270e-06	1.375820e-10	1	2.008900e-05	6.101150e-10	1	false	GAMG	9.276450e-08	1.231410e-09	1	true
1.54569       	DILUPBiCGStab	3.765780e-06	1.379470e-10	1	2.010540e-05	6.119830e-10	1	false	GAMG	9.329160e-08	1.211240e-09	1	true
1.5457        	DILUPBiCGStab	3.765560e-06	1.379620e-10	1	2.010320e-05	6.127360e-10	1	false	GAMG	9.346600e-08	1.210180e-09	1	true
1.5457        	DILUPBiCGStab	3.765050e-06	1.380350e-10	1	2.010060e-05	6.123250e-10	1	false	GAMG	9.471950e-08	1.185760e-09	1	true
1.5457        	DILUPBiCGStab	3.764430e-06	1.380880e-10	1	2.009700e-05	6.122580e-10	1	false	GAMG	8.997720e-08	1.177910e-09	1	true
1.54571       	DILUPBiCGStab	3.763810e-06	1.381350e-10	1	2.009440e-05	6.128710e-10	1	false	GAMG	8.805160e-08	1.179790e-09	1	true
1.54571       	DILUPBiCGStab	3.763530e-06	1.382200e-10	1	2.009290e-05	6.119580e-10	1	false	GAMG	8.832480e-08	1.171170e-09	1	true
1.54571       	DILUPBiCGStab	3.763400e-06	1.382580e-10	1	2.009060e-05	6.128450e-10	1	false	GAMG	8.985220e-08	1.157910e-09	1	true
1.54572       	DILUPBiCGStab	3.764270e-06	1.382820e-10	1	2.008930e-05	6.115540e-10	1	false	GAMG	9.039050e-08	1.161990e-09	1	true
1.54572       	DILUPBiCGStab	3.765230e-06	1.383660e-10	1	2.008910e-05	6.117600e-10	1	false	GAMG	9.515750e-08	1.160530e-09	1	true
1.54573       	DILUPBiCGStab	3.764810e-06	1.385130e-10	1	2.008800e-05	6.117150e-10	1	false	GAMG	9.520030e-08	1.150370e-09	1	true
1.54573       	DILUPBiCGStab	3.763800e-06	1.386330e-10	1	2.008790e-05	6.125580e-10	1	false	GAMG	9.146780e-08	1.157450e-09	1	true
1.54573       	DILUPBiCGStab	3.763630e-06	1.387020e-10	1	2.008830e-05	6.142330e-10	1	false	GAMG	9.037070e-08	1.193740e-09	1	true
1.54574       	DILUPBiCGStab	3.763930e-06	1.386610e-10	1	2.009070e-05	6.141180e-10	1	false	GAMG	9.136370e-08	1.192210e-09	1	true
1.54574       	DILUPBiCGStab	3.764280e-06	1.387940e-10	1	2.009230e-05	6.133550e-10	1	false	GAMG	9.190200e-08	1.181900e-09	1	true
1.54574       	DILUPBiCGStab	3.764720e-06	1.387880e-10	1	2.009480e-05	6.151250e-10	1	false	GAMG	9.292420e-08	1.194790e-09	1	true
1.54575       	DILUPBiCGStab	3.765680e-06	1.390890e-10	1	2.010090e-05	6.170520e-10	1	false	GAMG	9.458080e-08	1.224760e-09	1	true
1.54575       	DILUPBiCGStab	3.767270e-06	1.394850e-10	1	2.010990e-05	6.181570e-10	1	false	GAMG	9.032410e-08	1.240650e-09	1	true
1.54576       	DILUPBiCGStab	3.767560e-06	1.396940e-10	1	2.011120e-05	6.184340e-10	1	false	GAMG	8.849590e-08	1.228750e-09	1	true
1.54576       	DILUPBiCGStab	3.765570e-06	1.396110e-10	1	2.010440e-05	6.193390e-10	1	false	GAMG	8.897900e-08	1.264950e-09	1	true
1.54576       	DILUPBiCGStab	3.764850e-06	1.395490e-10	1	2.009890e-05	6.192850e-10	1	false	GAMG	9.039700e-08	1.271510e-09	1	true
1.54577       	DILUPBiCGStab	3.768890e-06	1.400330e-10	1	2.011480e-05	6.221630e-10	1	false	GAMG	9.422790e-08	1.296850e-09	1	true
1.54577       	DILUPBiCGStab	3.770290e-06	1.401970e-10	1	2.011220e-05	6.228900e-10	1	false	GAMG	9.589870e-08	1.283690e-09	1	true
1.54577       	DILUPBiCGStab	3.769740e-06	1.404470e-10	1	2.010790e-05	6.236980e-10	1	false	GAMG	9.298330e-08	1.223040e-09	1	true
1.54578       	DILUPBiCGStab	3.768110e-06	1.405860e-10	1	2.010570e-05	6.246120e-10	1	false	GAMG	8.767060e-08	1.239480e-09	1	true
1.54578       	DILUPBiCGStab	3.767470e-06	1.406510e-10	1	2.010560e-05	6.248740e-10	1	false	GAMG	9.198050e-08	1.232710e-09	1	true
1.54578       	DILUPBiCGStab	3.767260e-06	1.407070e-10	1	2.010530e-05	6.251480e-10	1	false	GAMG	9.225060e-08	1.223040e-09	1	true
1.54579       	DILUPBiCGStab	3.767060e-06	1.407650e-10	1	2.010470e-05	6.257430e-10	1	false	GAMG	9.211870e-08	1.206160e-09	1	true
1.54579       	DILUPBiCGStab	3.766950e-06	1.408880e-10	1	2.010350e-05	6.265410e-10	1	false	GAMG	9.198160e-08	1.200180e-09	1	true
1.5458        	DILUPBiCGStab	3.766740e-06	1.410410e-10	1	2.010280e-05	6.278870e-10	1	false	GAMG	9.372540e-08	1.188690e-09	1	true