/*--------------------------------*- C++ -*----------------------------------*\
| =========                 |                                                 |
| \\      /  F ield         | OpenFOAM: The Open Source CFD Toolbox           |
|  \\    /   O peration     | Version:  v2012                                 |
|   \\  /    A nd           | Website:  www.openfoam.com                      |
|    \\/     M anipulation  |                                                 |
\*---------------------------------------------------------------------------*/
FoamFile
{
    version     2.0;
    format      ascii;
    class       volScalarField;
    location    "1e-06";
    object      k;
}
// * * * * * * * * * * * * * * * * * * * * * * * * * * * * * * * * * * * * * //

dimensions      [0 2 -2 0 0 0 0];


internalField   nonuniform List<scalar> 
10203
(
0.147857
0.139809
0.136255
0.141947
0.143858
0.139123
0.131329
0.136012
0.138745
0.134539
0.12582
0.12632
0.129715
0.128415
0.120118
0.116753
0.120994
0.121691
0.116493
0.109482
0.114001
0.118046
0.114784
0.107582
0.107456
0.111463
0.112058
0.103669
0.098806
0.101942
0.10085
0.0985266
0.0909579
0.0923695
0.0946412
0.0925996
0.0854768
0.0828136
0.0847946
0.0816518
0.0790027
0.0716635
0.0736045
0.0752001
0.0721025
0.0659021
0.0642348
0.0668831
0.0686646
0.0637208
0.0589807
0.0618627
0.0656412
0.06549
0.0628184
0.0623483
0.0667028
0.0703729
0.0677928
0.0648205
0.0671383
0.0697839
0.068524
0.0645882
0.0634191
0.0652257
0.065825
0.062878
0.0594442
0.0610525
0.0638241
0.0648029
0.189327
0.187124
0.186464
0.183925
0.180519
0.181226
0.179363
0.178022
0.172479
0.173739
0.17118
0.170148
0.16664
0.165566
0.16344
0.162843
0.160351
0.156682
0.157214
0.156288
0.155178
0.151337
0.152009
0.150557
0.149798
0.146798
0.14543
0.142468
0.141856
0.138157
0.128597
0.132378
0.129339
0.128174
0.124018
0.121863
0.118878
0.118132
0.114682
0.108707
0.108867
0.105625
0.104437
0.100576
0.0988132
0.0968677
0.0963575
0.0940047
0.0924436
0.0913258
0.0898343
0.089465
0.0879465
0.0889232
0.0894245
0.0893181
0.0891607
0.0898912
0.0900309
0.0897728
0.0893062
0.087973
0.087677
0.0865577
0.0862204
0.0847566
0.0831116
0.0829313
0.0824049
0.0820042
0.0814105
0.0829047
0.256976
0.253243
0.252234
0.248265
0.24028
0.243196
0.240681
0.23932
0.232852
0.234446
0.231884
0.230879
0.227293
0.226216
0.224061
0.223374
0.220607
0.21397
0.217098
0.21541
0.214303
0.209701
0.209971
0.207685
0.206802
0.203172
0.200726
0.197166
0.196252
0.191897
0.17936
0.183643
0.179682
0.178425
0.173128
0.169874
0.16592
0.165001
0.160821
0.151099
0.153717
0.149759
0.14849
0.144023
0.141862
0.139453
0.138822
0.136094
0.132741
0.132143
0.090411
0.129188
0.126753
0.126738
0.126145
0.125831
0.12477
0.123513
0.123609
0.122523
0.121985
0.119961
0.119283
0.117805
0.11739
0.115765
0.112583
0.113697
0.113024
0.112659
0.111952
0.113295
0.26127
0.256197
0.255101
0.251161
0.253953
0.245944
0.243306
0.241955
0.238252
0.237231
0.234453
0.233424
0.230235
0.229502
0.226626
0.225886
0.223204
0.226447
0.21962
0.21782
0.216708
0.213558
0.212473
0.209932
0.209015
0.205534
0.203937
0.199253
0.198282
0.193915
0.190165
0.185569
0.181467
0.180186
0.175139
0.171868
0.167495
0.166538
0.162359
0.163398
0.155151
0.1511
0.149814
0.145718
0.143295
0.140666
0.140007
0.137303
0.137875
0.133248
0.130719
0.130201
0.128133
0.127784
0.127019
0.126682
0.12563
0.127186
0.12438
0.123258
0.122702
0.120963
0.120093
0.118488
0.11806
0.116456
0.117827
0.114361
0.113655
0.113288
0.112743
0.114033
0.322379
0.316239
0.314817
0.309758
0.306447
0.302724
0.299439
0.298065
0.292737
0.292678
0.289702
0.28866
0.285202
0.284335
0.281364
0.280501
0.277637
0.275992
0.273339
0.270839
0.269709
0.265378
0.264179
0.260876
0.259817
0.255576
0.252887
0.247746
0.246515
0.241525
0.23316
0.231416
0.226536
0.22516
0.219211
0.215127
0.209943
0.208781
0.203969
0.199366
0.195327
0.190429
0.189062
0.184255
0.181388
0.178263
0.177482
0.174417
0.172735
0.169311
0.16634
0.165385
0.162485
0.161563
0.160052
0.159562
0.157861
0.15744
0.155205
0.153484
0.152848
0.150482
0.149356
0.147437
0.146929
0.145113
0.144255
0.142741
0.14192
0.14156
0.140895
0.142212
0.377162
0.370434
0.368759
0.362677
0.353421
0.354141
0.350354
0.348902
0.341707
0.342896
0.339787
0.338704
0.334824
0.33373
0.330845
0.32989
0.326764
0.320124
0.321778
0.318717
0.317505
0.311781
0.310721
0.306814
0.305614
0.300566
0.296708
0.291411
0.289984
0.284358
0.271299
0.272746
0.267212
0.265718
0.25886
0.254068
0.248287
0.246956
0.241509
0.231726
0.231591
0.225976
0.224499
0.218916
0.21573
0.212249
0.211367
0.20793
0.20368
0.201989
0.198393
0.197338
0.193608
0.192351
0.190318
0.189706
0.187465
0.184818
0.18375
0.181566
0.18085
0.177865
0.176584
0.174418
0.173845
0.171813
0.168366
0.169206
0.168312
0.167949
0.167144
0.168585
0.383671
0.375334
0.37353
0.36747
0.36752
0.358705
0.354732
0.353305
0.349159
0.347457
0.344074
0.342957
0.339546
0.338853
0.335081
0.334048
0.33103
0.332981
0.325919
0.322697
0.321482
0.317395
0.314792
0.310553
0.309305
0.304423
0.301533
0.294895
0.293381
0.287732
0.282371
0.275977
0.270237
0.26871
0.262129
0.257298
0.250978
0.249587
0.244126
0.242516
0.234029
0.228267
0.226768
0.221607
0.218097
0.214325
0.213404
0.209988
0.20968
0.203896
0.200187
0.199114
0.195819
0.194163
0.191908
0.191261
0.189035
0.189435
0.185208
0.182955
0.182229
0.179582
0.178053
0.175713
0.175115
0.173104
0.174134
0.170446
0.169498
0.169127
0.168531
0.169912
0.434206
0.42556
0.423546
0.416536
0.410147
0.406507
0.402112
0.400567
0.394076
0.394108
0.390613
0.389443
0.38549
0.384552
0.380949
0.379841
0.376506
0.372889
0.370741
0.367033
0.36571
0.359965
0.357826
0.353075
0.351693
0.345996
0.341944
0.33533
0.333655
0.327392
0.31693
0.31431
0.307993
0.306345
0.298842
0.293419
0.286643
0.285108
0.279041
0.271976
0.267833
0.261459
0.259844
0.253856
0.250169
0.246127
0.24512
0.241328
0.238146
0.234535
0.230289
0.229109
0.224939
0.223127
0.220461
0.219711
0.217
0.214974
0.212315
0.209677
0.208875
0.205588
0.204014
0.201481
0.200824
0.198604
0.196615
0.19577
0.194784
0.19441
0.193651
0.195237
0.441793
0.431349
0.429182
0.422213
0.425091
0.411892
0.407274
0.405767
0.402871
0.399485
0.395658
0.394451
0.391076
0.390532
0.385924
0.384721
0.381524
0.386482
0.375603
0.371707
0.370388
0.366628
0.362619
0.357482
0.356045
0.350561
0.347553
0.339444
0.337663
0.331381
0.328352
0.318129
0.311565
0.309881
0.302728
0.297225
0.289825
0.288218
0.282141
0.283124
0.270718
0.264171
0.262532
0.257074
0.252971
0.248588
0.247533
0.243774
0.244685
0.236806
0.232429
0.231232
0.227613
0.225301
0.22238
0.22159
0.218907
0.220086
0.214094
0.211374
0.210561
0.207704
0.205805
0.203064
0.202375
0.200185
0.202825
0.197282
0.196229
0.195845
0.195355
0.19685
0.494455
0.484106
0.481693
0.473569
0.467419
0.462027
0.457006
0.455264
0.448739
0.448285
0.44442
0.443094
0.438862
0.438041
0.433874
0.432569
0.428903
0.425995
0.422323
0.417953
0.41643
0.410201
0.407338
0.401751
0.40013
0.393637
0.389198
0.38148
0.379529
0.372528
0.362584
0.357889
0.35074
0.348875
0.340542
0.334483
0.326739
0.324968
0.31818
0.311419
0.305636
0.298487
0.296681
0.29012
0.286003
0.281403
0.280237
0.276007
0.273114
0.268319
0.26339
0.262033
0.257268
0.254982
0.251693
0.25078
0.247562
0.245656
0.241961
0.238881
0.237959
0.234301
0.232511
0.229622
0.228863
0.226427
0.225071
0.223375
0.222294
0.221878
0.221113
0.222893
0.544954
0.535376
0.532762
0.523448
0.508769
0.510768
0.505455
0.503445
0.492991
0.495719
0.491969
0.490516
0.485255
0.48389
0.480593
0.47921
0.474986
0.464497
0.467762
0.46299
0.46123
0.452236
0.450724
0.444846
0.443045
0.435465
0.429165
0.422429
0.42034
0.412607
0.395145
0.396636
0.388998
0.386943
0.377323
0.37067
0.362862
0.360945
0.353436
0.339612
0.339872
0.332214
0.33023
0.322421
0.318369
0.313706
0.312438
0.307689
0.300438
0.299318
0.293876
0.292343
0.286261
0.284093
0.280556
0.279527
0.275753
0.270174
0.269453
0.26607
0.265033
0.260458
0.258872
0.255955
0.255136
0.252439
0.246882
0.249289
0.248215
0.247757
0.246611
0.248683
0.555065
0.543153
0.540322
0.53104
0.524031
0.518014
0.512376
0.51041
0.503548
0.502941
0.498721
0.49721
0.492611
0.491893
0.487243
0.485724
0.481669
0.478409
0.474282
0.469255
0.467495
0.46058
0.457186
0.450783
0.448905
0.441572
0.436676
0.427992
0.425753
0.417993
0.40755
0.401826
0.393843
0.391738
0.382518
0.375866
0.367199
0.36518
0.357655
0.350274
0.343828
0.335931
0.333915
0.326721
0.32224
0.317095
0.315759
0.311053
0.307982
0.302475
0.296856
0.295298
0.289861
0.287164
0.283267
0.282183
0.27845
0.276337
0.272001
0.268502
0.267451
0.263392
0.261456
0.258228
0.25736
0.254702
0.253472
0.25146
0.250285
0.249813
0.249008
0.251016
0.603133
0.59248
0.589491
0.578999
0.563766
0.564965
0.559117
0.556835
0.54551
0.548542
0.544527
0.542886
0.537062
0.535669
0.532171
0.530595
0.525901
0.515249
0.517913
0.512547
0.510533
0.500474
0.498795
0.492242
0.490196
0.481719
0.474754
0.467472
0.465134
0.456656
0.438774
0.439277
0.430906
0.428614
0.418017
0.410826
0.402335
0.400196
0.391958
0.377952
0.377249
0.368928
0.366735
0.358124
0.353843
0.348756
0.347328
0.342065
0.334282
0.332859
0.326762
0.325022
0.318078
0.31566
0.311616
0.310427
0.30613
0.299992
0.299089
0.295343
0.294174
0.28907
0.28748
0.284324
0.283406
0.280479
0.274806
0.277187
0.276042
0.275523
0.274219
0.276553
0.614316
0.60098
0.597737
0.587316
0.579323
0.572887
0.566643
0.56443
0.557142
0.556456
0.551866
0.550162
0.545146
0.544495
0.539402
0.537666
0.53319
0.529415
0.525026
0.519361
0.517361
0.509723
0.505895
0.49872
0.496588
0.488437
0.483081
0.47356
0.471045
0.462558
0.45149
0.444986
0.436213
0.433869
0.423784
0.41661
0.407102
0.404843
0.396612
0.388508
0.381617
0.373019
0.370796
0.362951
0.358165
0.352497
0.350989
0.345797
0.342303
0.336361
0.33006
0.3283
0.322153
0.319111
0.314635
0.313382
0.309151
0.30664
0.301946
0.29806
0.296881
0.292416
0.290405
0.28687
0.285893
0.283022
0.281642
0.279625
0.278356
0.277825
0.276947
0.279206
0.662999
0.651663
0.64828
0.636452
0.619414
0.621042
0.614675
0.612041
0.599254
0.603062
0.598857
0.596983
0.59037
0.588823
0.5854
0.583618
0.578338
0.566417
0.569604
0.563674
0.561348
0.54982
0.548298
0.541169
0.538851
0.529358
0.521467
0.514021
0.511429
0.502152
0.482764
0.483358
0.474284
0.471722
0.459979
0.452245
0.443231
0.440857
0.431831
0.416492
0.415991
0.407027
0.404592
0.39498
0.390546
0.385103
0.383495
0.377636
0.368737
0.367577
0.360747
0.35883
0.350824
0.348262
0.343769
0.342406
0.337545
0.330401
0.329825
0.325737
0.324416
0.318653
0.317161
0.313831
0.312803
0.309609
0.303233
0.306182
0.304961
0.304357
0.302774
0.305389
0.675387
0.661
0.657314
0.645597
0.635532
0.629744
0.622894
0.620354
0.611941
0.611774
0.606868
0.604925
0.599263
0.598582
0.5933
0.591327
0.586319
0.58105
0.577402
0.57112
0.56882
0.559999
0.556136
0.548269
0.545852
0.536764
0.530696
0.520712
0.517909
0.508641
0.496101
0.489665
0.480115
0.4775
0.466385
0.458705
0.448484
0.44597
0.436973
0.427435
0.420829
0.411538
0.409074
0.400379
0.395384
0.389235
0.387534
0.381777
0.377219
0.371469
0.362534
0.362465
0.355408
0.352144
0.347127
0.345689
0.340921
0.337506
0.333019
0.328764
0.327437
0.322442
0.32047
0.316671
0.315575
0.312456
0.310369
0.308911
0.307537
0.306922
0.30586
0.3084
0.724855
0.713356
0.709571
0.696196
0.675951
0.679359
0.672511
0.669422
0.654431
0.659572
0.655309
0.653153
0.645452
0.643561
0.640611
0.638616
0.632604
0.618189
0.623154
0.616722
0.614012
0.600517
0.599527
0.591985
0.589367
0.578692
0.569537
0.562427
0.559591
0.549439
0.527291
0.529209
0.519495
0.516622
0.503507
0.495192
0.485898
0.483282
0.473377
0.455465
0.456418
0.446842
0.44412
0.433233
0.428729
0.423047
0.421242
0.414681
0.403974
0.403759
0.364437
0.394053
0.384727
0.382145
0.377305
0.375756
0.370268
0.361581
0.361933
0.357537
0.356033
0.349424
0.348143
0.344739
0.343592
0.340071
0.332275
0.336507
0.335208
0.334488
0.332457
0.33536
0.734267
0.718633
0.714523
0.701654
0.690902
0.684446
0.676999
0.674159
0.665223
0.665012
0.659716
0.657554
0.651371
0.650665
0.645034
0.642831
0.637332
0.631724
0.627676
0.620784
0.618227
0.608629
0.604466
0.595902
0.593227
0.583338
0.576748
0.566197
0.563124
0.553166
0.540167
0.532949
0.522677
0.519816
0.507829
0.499712
0.488811
0.486059
0.476379
0.466354
0.459216
0.449294
0.446611
0.437151
0.431951
0.425324
0.423438
0.417133
0.411782
0.405992
0.396614
0.396079
0.388161
0.384687
0.379155
0.377545
0.372273
0.368121
0.363763
0.359176
0.357713
0.352227
0.350332
0.3463
0.345094
0.341743
0.339172
0.338077
0.336596
0.335902
0.33463
0.337443
0.744132
0.724274
0.719854
0.707569
0.706662
0.689803
0.681748
0.679206
0.676801
0.67068
0.664365
0.662219
0.657869
0.657988
0.649681
0.647279
0.642383
0.645956
0.632413
0.625068
0.622697
0.617621
0.609605
0.600038
0.597323
0.588376
0.584252
0.570178
0.566869
0.557142
0.551573
0.536896
0.526063
0.523231
0.512613
0.504405
0.49191
0.48903
0.479609
0.4771
0.462178
0.451894
0.449266
0.441552
0.43529
0.427733
0.425773
0.419765
0.420299
0.408345
0.400354
0.398236
0.392052
0.387319
0.381113
0.379446
0.374429
0.375294
0.365698
0.360919
0.359505
0.355401
0.352602
0.347958
0.346696
0.343543
0.346634
0.339734
0.33807
0.337409
0.33706
0.339585
0.796263
0.780044
0.775482
0.761132
0.748793
0.742465
0.734435
0.731145
0.720717
0.721195
0.715658
0.713205
0.706084
0.70514
0.699671
0.697222
0.691043
0.684365
0.680706
0.673274
0.670358
0.659284
0.655381
0.646312
0.643339
0.632414
0.62487
0.614394
0.611047
0.600292
0.585904
0.578808
0.56787
0.564707
0.551513
0.542928
0.531634
0.528628
0.518126
0.507012
0.49993
0.489379
0.486416
0.47581
0.470534
0.463564
0.461466
0.454471
0.447742
0.442492
0.434116
0.431605
0.422465
0.418973
0.413041
0.411239
0.405377
0.399993
0.396329
0.391438
0.389795
0.383552
0.381897
0.377743
0.376411
0.372745
0.36925
0.368947
0.36735
0.366535
0.364823
0.367935
0.811089
0.790561
0.785564
0.771643
0.765457
0.752275
0.743503
0.740468
0.735588
0.731145
0.724487
0.721986
0.716635
0.71663
0.708417
0.705698
0.700096
0.699394
0.689449
0.681486
0.678705
0.671705
0.664404
0.654207
0.651129
0.641084
0.635931
0.621903
0.618245
0.607648
0.598377
0.586018
0.574379
0.571189
0.55929
0.550646
0.537544
0.534342
0.524038
0.517486
0.505447
0.494425
0.491477
0.482589
0.476279
0.468212
0.465992
0.459273
0.457258
0.446941
0.438224
0.435737
0.428333
0.423593
0.41685
0.414951
0.409334
0.408193
0.40001
0.394863
0.39325
0.388434
0.385873
0.380975
0.379549
0.376076
0.376887
0.372093
0.370255
0.369453
0.368726
0.371587
0.865006
0.84965
0.844595
0.828057
0.810896
0.807733
0.799229
0.795183
0.780916
0.783873
0.778543
0.775653
0.766701
0.765088
0.76095
0.758247
0.750982
0.74051
0.740065
0.732275
0.728773
0.714593
0.712141
0.703018
0.699649
0.687119
0.677652
0.668564
0.66496
0.653117
0.634441
0.630123
0.61865
0.615045
0.599886
0.590672
0.579589
0.576289
0.564645
0.549897
0.545282
0.534142
0.530761
0.518207
0.51307
0.506088
0.503727
0.495763
0.486252
0.482925
0.473863
0.470942
0.459863
0.456674
0.450601
0.448563
0.44191
0.434176
0.432376
0.427221
0.425305
0.417754
0.416582
0.412541
0.411044
0.406888
0.401202
0.402913
0.401207
0.400189
0.397613
0.40105
0.881213
0.861142
0.85555
0.839519
0.827472
0.818452
0.809037
0.805289
0.796748
0.794788
0.788084
0.78513
0.778139
0.777677
0.770422
0.767383
0.760794
0.755396
0.749592
0.741159
0.737817
0.727922
0.722081
0.711596
0.708098
0.696584
0.689702
0.676763
0.672774
0.66114
0.647801
0.638064
0.625743
0.622108
0.608416
0.599281
0.586055
0.582514
0.571126
0.5604
0.551362
0.539651
0.536294
0.525656
0.519505
0.511177
0.508666
0.501043
0.495791
0.487835
0.478359
0.475473
0.466323
0.46187
0.454789
0.452629
0.44628
0.442461
0.436453
0.43098
0.429103
0.423162
0.421075
0.416097
0.414484
0.410571
0.408706
0.4064
0.404391
0.40339
0.401947
0.405189
0.937102
0.923603
0.918131
0.898847
0.874262
0.876655
0.867891
0.862829
0.843177
0.84958
0.844931
0.841518
0.830081
0.827411
0.825479
0.822586
0.813901
0.797464
0.802477
0.794602
0.790341
0.772066
0.771684
0.763038
0.759234
0.744686
0.732712
0.725949
0.722185
0.709045
0.683812
0.684399
0.672654
0.668515
0.650841
0.64082
0.630586
0.62701
0.613966
0.593331
0.593381
0.581794
0.577891
0.562787
0.557853
0.551274
0.548642
0.539466
0.525942
0.525805
0.516149
0.51272
0.499154
0.496436
0.490572
0.488287
0.480664
0.469593
0.470721
0.465398
0.463128
0.453816
0.453249
0.44964
0.44797
0.443155
0.433876
0.438969
0.437209
0.435916
0.432088
0.435786
0.950196
0.930414
0.924257
0.906161
0.891339
0.883363
0.873345
0.868858
0.857621
0.857046
0.850318
0.846921
0.838336
0.837294
0.830996
0.827664
0.820087
0.812722
0.808355
0.799525
0.795642
0.783422
0.778547
0.767896
0.764
0.751103
0.742655
0.730789
0.726509
0.713893
0.698601
0.689489
0.676604
0.672537
0.657112
0.647449
0.634302
0.630446
0.617993
0.605567
0.597149
0.584844
0.581074
0.56865
0.562616
0.554171
0.551379
0.542813
0.535307
0.528803
0.51863
0.515336
0.504379
0.500221
0.492948
0.490542
0.483438
0.477611
0.473201
0.467461
0.46531
0.458147
0.456567
0.451656
0.449865
0.445459
0.441944
0.441113
0.43895
0.437737
0.435413
0.438986
0.964215
0.937612
0.930841
0.914147
0.907807
0.890321
0.879048
0.875287
0.871692
0.864732
0.855932
0.852628
0.847432
0.847631
0.836716
0.832994
0.826736
0.82736
0.814423
0.804661
0.801258
0.795249
0.785617
0.772972
0.769037
0.758129
0.75325
0.735826
0.731061
0.719074
0.71052
0.694788
0.680773
0.67683
0.664091
0.65436
0.638218
0.634111
0.622349
0.616338
0.601078
0.588045
0.584455
0.575191
0.56752
0.557204
0.554273
0.546433
0.54499
0.531917
0.521231
0.518117
0.510216
0.504096
0.495432
0.492923
0.486442
0.4861
0.475779
0.469628
0.467632
0.463028
0.459958
0.453762
0.451867
0.447953
0.449885
0.443335
0.440775
0.439663
0.439169
0.442248
1.02393
1.00557
0.998928
0.977954
0.959142
0.953154
0.942782
0.937181
0.921703
0.923338
0.917195
0.913226
0.902142
0.900142
0.89588
0.892327
0.883299
0.873091
0.871172
0.862291
0.857621
0.841923
0.83871
0.828575
0.824225
0.809353
0.798788
0.789049
0.784582
0.77069
0.751579
0.744801
0.731677
0.727046
0.709114
0.698737
0.686468
0.682316
0.668424
0.652956
0.646429
0.633683
0.629351
0.614343
0.608537
0.600514
0.597425
0.587583
0.577337
0.572842
0.562092
0.558253
0.544762
0.541136
0.534124
0.531452
0.523338
0.515104
0.512793
0.506904
0.504367
0.495364
0.494462
0.490028
0.488046
0.482922
0.477218
0.478372
0.476125
0.474602
0.470878
0.474729
1.04292
1.01855
1.01109
0.991198
0.976251
0.965322
0.953481
0.948495
0.939106
0.935934
0.927608
0.923607
0.915556
0.914773
0.906311
0.902241
0.894428
0.888255
0.881882
0.871974
0.867675
0.857203
0.850291
0.838049
0.833549
0.820466
0.812793
0.798261
0.793179
0.779806
0.765223
0.753995
0.739542
0.734943
0.71942
0.709118
0.69373
0.689214
0.675922
0.663709
0.653428
0.639788
0.635577
0.623473
0.616327
0.606219
0.602907
0.593754
0.58741
0.578495
0.567096
0.563386
0.552763
0.547457
0.538839
0.535994
0.528484
0.523995
0.517502
0.511092
0.508673
0.502146
0.499972
0.494035
0.491882
0.487238
0.484967
0.48241
0.479658
0.478207
0.476305
0.479846
1.10611
1.09137
1.08446
1.05923
1.02992
1.03191
1.02173
1.01441
0.990521
0.997258
0.992813
0.988078
0.972939
0.969353
0.968992
0.965407
0.954134
0.935654
0.941738
0.933481
0.927584
0.905655
0.905921
0.897486
0.89259
0.874683
0.860661
0.855084
0.850694
0.834932
0.806564
0.807044
0.794272
0.788839
0.76704
0.755615
0.745457
0.741068
0.725089
0.701453
0.701685
0.68884
0.683688
0.664704
0.659334
0.652616
0.649228
0.637563
0.621567
0.622119
0.611043
0.606419
0.589139
0.58642
0.580406
0.577451
0.56788
0.554816
0.557076
0.55126
0.548136
0.536275
0.536284
0.532994
0.530807
0.524572
0.513585
0.519729
0.517574
0.515584
0.509671
0.513695
1.12208
1.09951
1.09144
1.0682
1.04971
1.04008
1.02786
1.02151
1.00787
1.00652
0.998911
0.994206
0.983249
0.981339
0.97538
0.971043
0.96157
0.953105
0.948803
0.938973
0.933734
0.919675
0.914513
0.903047
0.898003
0.882714
0.872676
0.860838
0.855547
0.840748
0.823601
0.813404
0.798784
0.7935
0.775125
0.764067
0.749838
0.744964
0.730039
0.715701
0.706357
0.692318
0.687426
0.672356
0.665529
0.656011
0.652344
0.641735
0.632544
0.625829
0.613877
0.609514
0.596028
0.591408
0.583198
0.580034
0.571366
0.564281
0.560158
0.553613
0.550718
0.542047
0.540699
0.53537
0.532977
0.527461
0.523077
0.522412
0.519559
0.517722
0.514099
0.517947
1.13925
1.10806
1.09898
1.07814
1.06619
1.04852
1.0342
1.02914
1.02319
1.01611
1.00522
1.00071
0.99453
0.994059
0.981947
0.976965
0.969668
0.967527
0.956052
0.944657
0.9403
0.933223
0.923422
0.908812
0.90374
0.891589
0.88548
0.866767
0.860649
0.847022
0.835719
0.820008
0.803519
0.798504
0.784073
0.77304
0.754422
0.749129
0.735469
0.726272
0.711201
0.695933
0.691411
0.680684
0.671997
0.659542
0.65565
0.646319
0.642567
0.629655
0.61683
0.612828
0.603474
0.596564
0.586095
0.582769
0.575206
0.573241
0.56333
0.55607
0.553481
0.548404
0.545255
0.537826
0.535264
0.530631
0.531009
0.525168
0.521621
0.519991
0.519096
0.522352
1.2076
1.18774
1.17937
1.15155
1.12662
1.12063
1.10855
1.10027
1.08002
1.08173
1.07581
1.07027
1.05519
1.05194
1.04954
1.04519
1.03335
1.02036
1.02045
1.01139
1.00484
0.985588
0.98305
0.973473
0.967863
0.949517
0.936811
0.92863
0.923447
0.906724
0.883532
0.877503
0.863389
0.857232
0.834911
0.822885
0.810839
0.80573
0.788558
0.769119
0.763515
0.749473
0.743668
0.724545
0.718105
0.710041
0.706059
0.69346
0.680391
0.676985
0.664826
0.659586
0.642219
0.638484
0.631456
0.627991
0.617719
0.607264
0.606364
0.59997
0.596403
0.584705
0.584289
0.580276
0.577665
0.57089
0.563017
0.56556
0.562832
0.560451
0.554367
0.558369
1.22505
1.19661
1.18674
1.16188
1.14314
1.12966
1.11491
1.10812
1.09687
1.09213
1.08219
1.07679
1.0671
1.06514
1.05634
1.05104
1.04177
1.03485
1.02818
1.01706
1.01153
1.00028
0.992749
0.979323
0.973592
0.958892
0.949801
0.934855
0.928496
0.913232
0.897569
0.884655
0.868114
0.86225
0.844447
0.832539
0.815546
0.809818
0.794226
0.780209
0.768728
0.753103
0.747737
0.733502
0.725263
0.713667
0.709341
0.698297
0.690178
0.681108
0.66778
0.662975
0.650291
0.644281
0.634436
0.630717
0.621784
0.615932
0.609793
0.602419
0.599223
0.591589
0.589446
0.582818
0.579951
0.574243
0.570876
0.568567
0.564901
0.562771
0.559753
0.563338
1.24486
1.20581
1.19477
1.17319
1.16469
1.13887
1.12144
1.11656
1.1142
1.10276
1.08874
1.08375
1.07979
1.07947
1.06326
1.05721
1.05085
1.05342
1.03601
1.02288
1.01868
1.01532
1.00266
0.985342
0.979676
0.969027
0.964546
0.941204
0.933813
0.92024
0.913214
0.891964
0.87305
0.86765
0.854712
0.842781
0.820429
0.814202
0.800405
0.794908
0.774052
0.756851
0.752078
0.743012
0.732631
0.717411
0.712834
0.703574
0.70289
0.6853
0.670846
0.666614
0.658809
0.650165
0.637506
0.633612
0.626235
0.627231
0.613272
0.604965
0.602251
0.598928
0.594665
0.585419
0.582363
0.577908
0.581465
0.571598
0.567036
0.56524
0.565606
0.568395
1.31926
1.29391
1.28376
1.25316
1.23
1.21767
1.20323
1.19394
1.1764
1.17355
1.16583
1.15935
1.14469
1.14127
1.13676
1.13149
1.11927
1.10988
1.10583
1.09595
1.08873
1.07228
1.06711
1.05634
1.04992
1.03155
1.01982
1.00918
1.00303
0.985414
0.965681
0.954825
0.939166
0.932177
0.909654
0.896649
0.882461
0.876476
0.858104
0.841106
0.831156
0.815753
0.809212
0.790279
0.782417
0.772795
0.768098
0.754619
0.74344
0.737016
0.723691
0.717771
0.700666
0.695592
0.687389
0.683306
0.672383
0.663734
0.660377
0.653296
0.64922
0.638015
0.636877
0.631981
0.628847
0.621536
0.615709
0.615583
0.612143
0.609301
0.603248
0.606949
1.3426
1.30971
1.29787
1.27011
1.24829
1.2327
1.21521
1.20757
1.19546
1.18939
1.17755
1.17121
1.16159
1.15898
1.14877
1.14244
1.13297
1.1256
1.11874
1.10666
1.10056
1.08996
1.08186
1.06719
1.06061
1.04597
1.03667
1.02024
1.01275
0.996717
0.980069
0.966603
0.948225
0.94153
0.923369
0.910288
0.891129
0.884393
0.867728
0.852636
0.840042
0.822734
0.816684
0.802375
0.792949
0.779556
0.774424
0.76271
0.754305
0.744169
0.729447
0.724025
0.711358
0.704303
0.693001
0.688587
0.679224
0.673468
0.666364
0.658096
0.654453
0.647312
0.64456
0.636748
0.63328
0.627241
0.623962
0.620772
0.616179
0.613627
0.610889
0.614093
1.42409
1.40498
1.39537
1.35654
1.31848
1.31678
1.30381
1.29102
1.25977
1.26412
1.26028
1.25257
1.23027
1.22489
1.22703
1.22245
1.20592
1.18543
1.19265
1.18547
1.17583
1.14923
1.15004
1.14383
1.13677
1.11296
1.09672
1.09343
1.08837
1.06728
1.03443
1.03375
1.02027
1.0118
0.982141
0.967901
0.958229
0.952352
0.930004
0.901614
0.901109
0.886838
0.87868
0.852559
0.845778
0.839512
0.834632
0.817726
0.798166
0.799654
0.78713
0.779669
0.755813
0.752569
0.747247
0.742917
0.729138
0.713238
0.717057
0.710906
0.705577
0.688893
0.689318
0.687295
0.684012
0.674345
0.66068
0.667902
0.665253
0.661418
0.65094
0.654711
1.44581
1.41623
1.40405
1.36953
1.3439
1.32826
1.31135
1.30053
1.28261
1.27699
1.26788
1.26021
1.24504
1.24068
1.23533
1.22909
1.21615
1.20723
1.20231
1.19202
1.18381
1.16843
1.1621
1.15088
1.14347
1.12471
1.1128
1.10131
1.09419
1.07536
1.05601
1.04302
1.02597
1.01785
0.994386
0.979919
0.964148
0.957138
0.937154
0.919821
0.907933
0.891191
0.88366
0.86419
0.854917
0.844057
0.838504
0.823897
0.812682
0.805094
0.790671
0.783854
0.766442
0.760149
0.750999
0.746154
0.734378
0.725932
0.72163
0.713837
0.709065
0.697948
0.696106
0.690509
0.686722
0.678681
0.673188
0.671952
0.667741
0.664275
0.657974
0.661146
1.46769
1.428
1.41363
1.38395
1.36107
1.34023
1.31896
1.31104
1.29943
1.29064
1.27566
1.26851
1.26011
1.25688
1.2438
1.23616
1.22744
1.22168
1.21227
1.19866
1.19253
1.18411
1.17486
1.15806
1.15067
1.13742
1.12861
1.10934
1.10032
1.08427
1.06896
1.05278
1.03185
1.02449
1.00704
0.992691
0.970267
0.962305
0.945178
0.930799
0.915039
0.895601
0.88907
0.875548
0.86469
0.848711
0.842659
0.830839
0.82324
0.810695
0.794286
0.788451
0.776595
0.76822
0.754822
0.749619
0.740306
0.735533
0.726315
0.716833
0.71289
0.706898
0.703317
0.693755
0.68959
0.683574
0.681357
0.676089
0.67026
0.667368
0.665409
0.668015
1.55854
1.53224
1.52082
1.47777
1.44148
1.43125
1.41542
1.4011
1.37237
1.37085
1.36487
1.3561
1.33382
1.32816
1.32769
1.32238
1.30516
1.28919
1.29136
1.28385
1.27334
1.25013
1.24811
1.24109
1.23327
1.20951
1.19489
1.18881
1.18306
1.16075
1.13205
1.12559
1.11064
1.10112
1.07088
1.05539
1.0432
1.03652
1.01238
0.986906
0.980961
0.965431
0.956293
0.930181
0.921672
0.91377
0.908217
0.89005
0.872991
0.870652
0.857249
0.848884
0.82525
0.820369
0.813903
0.808972
0.794186
0.78064
0.781215
0.774511
0.768443
0.752107
0.751546
0.748654
0.744876
0.734298
0.723162
0.726897
0.723595
0.719105
0.708366
0.711516
1.58162
1.54472
1.53022
1.49289
1.46517
1.44406
1.4234
1.41189
1.39492
1.38515
1.37296
1.36444
1.35041
1.34496
1.33665
1.3294
1.31687
1.30932
1.30199
1.29065
1.28221
1.26984
1.26153
1.24861
1.2405
1.22313
1.21176
1.19748
1.1892
1.17004
1.15231
1.13607
1.11672
1.10782
1.08496
1.06873
1.04971
1.04164
1.02073
1.00362
0.988669
0.97005
0.961869
0.943273
0.932011
0.918731
0.912376
0.897331
0.886761
0.876794
0.860998
0.853604
0.837201
0.82904
0.818001
0.812462
0.800423
0.792811
0.786399
0.777611
0.772375
0.762463
0.759335
0.752173
0.747789
0.739451
0.734751
0.731513
0.726235
0.722304
0.716654
0.718859
1.60623
1.55729
1.54032
1.50897
1.48587
1.45702
1.43104
1.42344
1.41318
1.40002
1.38088
1.37327
1.36664
1.36269
1.34544
1.33664
1.32924
1.32631
1.31261
1.29722
1.29163
1.28656
1.27545
1.25594
1.24806
1.23713
1.22943
1.206
1.19547
1.17995
1.1675
1.14679
1.12271
1.11497
1.0989
1.08299
1.05615
1.047
1.02977
1.01716
0.996421
0.974501
0.967776
0.955671
0.942915
0.9236
0.916718
0.905217
0.899377
0.882892
0.86464
0.85867
0.848316
0.8381
0.822
0.816096
0.807223
0.804301
0.791519
0.780629
0.776591
0.772324
0.767451
0.755573
0.750781
0.745078
0.744821
0.736053
0.728778
0.725689
0.724966
0.726588
1.70438
1.66833
1.65464
1.60861
1.57359
1.55311
1.53272
1.51811
1.49272
1.48409
1.47416
1.46481
1.44426
1.43758
1.43282
1.4266
1.41008
1.39879
1.39502
1.38618
1.37593
1.35786
1.35223
1.34311
1.33491
1.31313
1.3002
1.28988
1.28308
1.26075
1.23706
1.22387
1.20621
1.19618
1.16707
1.14956
1.13314
1.12552
1.10049
1.07823
1.06572
1.048
1.03852
1.01401
1.00292
0.992021
0.985825
0.967383
0.953204
0.94595
0.931024
0.922394
0.900595
0.893164
0.884361
0.878896
0.863966
0.853164
0.849367
0.841467
0.835191
0.820625
0.818223
0.813317
0.809077
0.798289
0.790108
0.789336
0.784766
0.780025
0.770245
0.772144
1.72837
1.68157
1.66446
1.62553
1.59353
1.56689
1.54064
1.52997
1.51314
1.49952
1.4823
1.47361
1.4618
1.45504
1.44201
1.43369
1.42294
1.41538
1.40623
1.39281
1.38548
1.37657
1.36672
1.35068
1.34241
1.32811
1.31741
1.29896
1.28926
1.27106
1.25373
1.2353
1.21232
1.20335
1.18233
1.16406
1.1399
1.13075
1.1099
1.09162
1.07405
1.05259
1.04455
1.0278
1.01431
0.99713
0.990102
0.975665
0.965246
0.952553
0.934736
0.927546
0.913118
0.902812
0.888581
0.882502
0.871137
0.864038
0.85496
0.844535
0.839479
0.831687
0.826907
0.816943
0.812068
0.804208
0.799769
0.794336
0.787384
0.783481
0.779426
0.780313
1.75877
1.69451
1.67507
1.64307
1.62496
1.58037
1.54817
1.54231
1.53741
1.5154
1.49013
1.48288
1.47971
1.47571
1.45081
1.44109
1.43615
1.44081
1.41705
1.39919
1.39543
1.39722
1.38158
1.35795
1.35027
1.34338
1.33929
1.30762
1.29565
1.28177
1.27727
1.24655
1.21829
1.21097
1.19802
1.18035
1.14644
1.13631
1.11975
1.11327
1.08209
1.057
1.05089
1.04204
1.0263
1.00206
0.994628
0.984312
0.983969
0.958863
0.938344
0.933029
0.926073
0.912683
0.892636
0.886313
0.878662
0.880977
0.860269
0.847528
0.844052
0.843041
0.835745
0.820392
0.815191
0.810437
0.815527
0.799046
0.789909
0.787137
0.788763
0.788819
1.85654
1.80894
1.79216
1.74508
1.70968
1.67864
1.65162
1.63823
1.61632
1.60034
1.5844
1.57493
1.55785
1.54936
1.53884
1.53125
1.51713
1.5097
1.50014
1.48873
1.47998
1.46821
1.459
1.44625
1.43792
1.42038
1.40873
1.39332
1.38471
1.36399
1.34563
1.32567
1.30376
1.29383
1.26771
1.24755
1.22512
1.21619
1.19156
1.172
1.15273
1.13164
1.12252
1.10126
1.08707
1.07169
1.06473
1.04734
1.03551
1.02324
1.00596
0.997777
0.979391
0.968902
0.956399
0.950322
0.936421
0.927883
0.919507
0.909569
0.903668
0.8923
0.887479
0.879234
0.874417
0.86437
0.858781
0.853356
0.846739
0.842183
0.834732
0.834922
1.88651
1.82755
1.80775
1.76697
1.73339
1.69674
1.6637
1.65458
1.63781
1.61959
1.59634
1.58784
1.57793
1.57044
1.55156
1.54224
1.53351
1.52855
1.51473
1.49895
1.49333