/*--------------------------------*- C++ -*----------------------------------*\
| =========                 |                                                 |
| \\      /  F ield         | OpenFOAM: The Open Source CFD Toolbox           |
|  \\    /   O peration     | Version:  v2012                                 |
|   \\  /    A nd           | Website:  www.openfoam.com                      |
|    \\/     M anipulation  |                                                 |
\*---------------------------------------------------------------------------*/
FoamFile
{
    version     2.0;
    format      ascii;
    class       volScalarField;
    location    "1e-06";
    object      kMean;
}
// * * * * * * * * * * * * * * * * * * * * * * * * * * * * * * * * * * * * * //

dimensions      [0 2 -2 0 0 0 0];


internalField   nonuniform List<scalar> 
10203
(
0.148094
0.139991
0.136416
0.142157
0.144095
0.139305
0.131456
0.136185
0.138967
0.134709
0.125942
0.12645
0.129882
0.128573
0.120223
0.116856
0.12112
0.121841
0.116608
0.109562
0.114119
0.118199
0.114925
0.107697
0.107573
0.11161
0.112211
0.103788
0.0989011
0.102064
0.100997
0.0986284
0.0910296
0.0924532
0.0947385
0.0926859
0.0855374
0.0828615
0.0848638
0.0817293
0.0790682
0.0717133
0.0736657
0.0752804
0.0721786
0.0659599
0.0642884
0.066953
0.0687443
0.0637879
0.059037
0.0619324
0.0657256
0.0655689
0.062882
0.06241
0.066783
0.0704654
0.0678696
0.0648782
0.0672114
0.0698747
0.0686065
0.0646512
0.0634766
0.0652978
0.0659047
0.0629423
0.059492
0.0611097
0.063896
0.0648727
0.189152
0.186971
0.186321
0.18378
0.18041
0.181091
0.179236
0.177891
0.172347
0.173598
0.171045
0.170013
0.166491
0.165411
0.163295
0.162707
0.160203
0.156554
0.157066
0.156156
0.155039
0.151191
0.151865
0.150428
0.149671
0.146662
0.145294
0.142343
0.141742
0.138036
0.128498
0.132265
0.129238
0.128071
0.123914
0.121763
0.11879
0.118048
0.114596
0.108646
0.108785
0.10555
0.10436
0.100497
0.0987347
0.0967964
0.0962897
0.0939337
0.092379
0.091262
0.0899621
0.0894088
0.0878917
0.0888735
0.0893823
0.0892779
0.0891228
0.0898606
0.0899992
0.089743
0.089278
0.0879467
0.0876499
0.0865302
0.086194
0.0847304
0.0830919
0.082904
0.0823777
0.0819783
0.0813851
0.0828793
0.257603
0.253863
0.252849
0.248851
0.240707
0.243773
0.241253
0.239881
0.233353
0.234992
0.232426
0.231415
0.227814
0.226738
0.224593
0.223904
0.221123
0.214354
0.217609
0.215916
0.214799
0.21016
0.210446
0.208154
0.207265
0.203617
0.201151
0.197595
0.196679
0.192306
0.179641
0.184021
0.180051
0.178787
0.173468
0.170203
0.166243
0.165321
0.161125
0.151286
0.154003
0.150038
0.148763
0.144278
0.142116
0.139705
0.13907
0.136332
0.132939
0.132368
0.0903001
0.129401
0.12695
0.126931
0.126332
0.126016
0.124944
0.123661
0.123771
0.122685
0.122139
0.120113
0.119437
0.117956
0.11754
0.11591
0.112695
0.113838
0.113164
0.112798
0.112085
0.113426
0.260674
0.255613
0.254526
0.250617
0.253566
0.245423
0.242787
0.241449
0.237797
0.236719
0.233932
0.232912
0.229735
0.228992
0.226107
0.225371
0.222699
0.226071
0.219118
0.217322
0.216223
0.213112
0.212006
0.20947
0.208561
0.2051
0.203517
0.198829
0.197861
0.193512
0.189887
0.185189
0.181094
0.179822
0.174799
0.171535
0.167169
0.166216
0.162054
0.163208
0.154864
0.150821
0.149542
0.145464
0.143041
0.140417
0.139761
0.137069
0.137679
0.133028
0.130663
0.129997
0.127947
0.127603
0.126845
0.126511
0.125471
0.127052
0.124233
0.123113
0.122563
0.120833
0.119961
0.118357
0.11793
0.116331
0.11773
0.114236
0.113532
0.113168
0.112629
0.113919
0.322198
0.316051
0.314635
0.309582
0.306344
0.302553
0.299272
0.297902
0.292603
0.29252
0.289545
0.288507
0.285056
0.284191
0.281216
0.280356
0.277495
0.275909
0.273199
0.2707
0.269573
0.265259
0.264046
0.260742
0.259687
0.25545
0.252767
0.247619
0.24639
0.241403
0.23309
0.231298
0.22642
0.225047
0.219105
0.215023
0.20984
0.20868
0.203872
0.199313
0.195236
0.190341
0.188976
0.184176
0.181309
0.178185
0.177406
0.174344
0.172685
0.169242
0.166274
0.165319
0.162425
0.1615
0.15999
0.159501
0.157801
0.157395
0.155145
0.153424
0.15279
0.150426
0.149299
0.14738
0.146874
0.145059
0.144221
0.142689
0.141869
0.14151
0.140847
0.142164
0.378138
0.371418
0.369732
0.363609
0.354035
0.355051
0.351255
0.349789
0.34247
0.343764
0.34066
0.339568
0.335663
0.334566
0.331701
0.33074
0.327598
0.32069
0.3226
0.319529
0.318304
0.312505
0.311486
0.307571
0.306361
0.301284
0.297387
0.292107
0.290673
0.285023
0.271721
0.273371
0.267822
0.266317
0.259423
0.254616
0.248825
0.247488
0.242018
0.232021
0.23207
0.22644
0.224955
0.219341
0.216155
0.212668
0.211781
0.20833
0.203989
0.202368
0.198759
0.197696
0.193939
0.192682
0.190641
0.190023
0.187769
0.185061
0.184039
0.181848
0.181127
0.178126
0.176848
0.17468
0.174103
0.172063
0.168542
0.16945
0.168553
0.168187
0.167373
0.168816
0.382692
0.374349
0.37256
0.366542
0.366915
0.357808
0.353845
0.352431
0.348408
0.346591
0.343201
0.342096
0.338712
0.338017
0.334224
0.333199
0.330197
0.332422
0.325093
0.32188
0.32068
0.316672
0.314017
0.309785
0.308548
0.303695
0.30084
0.294183
0.292677
0.287051
0.281936
0.275333
0.269607
0.268091
0.261549
0.25673
0.250421
0.249038
0.2436
0.242207
0.233535
0.227788
0.226299
0.22117
0.217659
0.213894
0.212979
0.209579
0.209366
0.203508
0.199812
0.198748
0.195482
0.193825
0.191577
0.190936
0.188723
0.189186
0.184909
0.182662
0.181943
0.179312
0.177779
0.175442
0.174848
0.172844
0.173953
0.170192
0.169247
0.168882
0.168296
0.169675
0.435288
0.426658
0.424633
0.417577
0.410809
0.407524
0.40312
0.401559
0.394908
0.39508
0.39159
0.390411
0.386424
0.385483
0.381905
0.380791
0.377437
0.373497
0.371658
0.367941
0.366604
0.360762
0.358684
0.353926
0.352532
0.346801
0.342703
0.336113
0.334431
0.328142
0.317397
0.315016
0.308682
0.307022
0.299477
0.294038
0.287254
0.285711
0.279619
0.272301
0.268377
0.261987
0.260363
0.254338
0.250654
0.246606
0.245593
0.241785
0.238491
0.23497
0.230711
0.229523
0.22532
0.223511
0.220838
0.220082
0.217356
0.215254
0.212656
0.210011
0.209202
0.205895
0.204326
0.20179
0.20113
0.198901
0.196816
0.19606
0.19507
0.194691
0.193921
0.195509
0.440586
0.430124
0.427977
0.421061
0.424383
0.41078
0.406174
0.404685
0.401971
0.398416
0.394582
0.393391
0.390056
0.38951
0.384871
0.38368
0.380503
0.385834
0.37459
0.370703
0.369403
0.365758
0.361667
0.356537
0.355113
0.349668
0.346706
0.338568
0.336797
0.330544
0.327834
0.317336
0.310791
0.309122
0.302019
0.29653
0.289141
0.287545
0.281498
0.282779
0.270112
0.263584
0.261958
0.256543
0.252436
0.24806
0.247013
0.243274
0.244311
0.236329
0.231967
0.230781
0.227201
0.224882
0.221968
0.221185
0.218517
0.219781
0.213719
0.211005
0.2102
0.207366
0.20546
0.202722
0.202039
0.199858
0.202607
0.196964
0.195915
0.195538
0.195062
0.196553
0.494213
0.483826
0.48142
0.473312
0.46728
0.46178
0.456762
0.455029
0.448574
0.448064
0.444194
0.442874
0.438662
0.437852
0.43366
0.432358
0.4287
0.425886
0.422118
0.417747
0.41623
0.410043
0.407146
0.401553
0.399935
0.393453
0.389042
0.381291
0.379342
0.372347
0.36251
0.357714
0.350567
0.348705
0.340389
0.334334
0.326583
0.324814
0.318035
0.31134
0.305498
0.298353
0.296551
0.290007
0.285887
0.281284
0.280121
0.275896
0.273055
0.268212
0.263286
0.261933
0.257181
0.254888
0.251597
0.250686
0.247471
0.245604
0.24187
0.23879
0.237872
0.234222
0.232428
0.229537
0.22878
0.226347
0.225028
0.223297
0.222217
0.221803
0.221044
0.222823
0.546358
0.536869
0.53424
0.524856
0.50961
0.512146
0.506824
0.50479
0.494053
0.497029
0.493298
0.49183
0.486502
0.485114
0.481891
0.480499
0.476243
0.465265
0.469008
0.464228
0.462445
0.453275
0.451885
0.446009
0.444193
0.436557
0.430156
0.423503
0.421406
0.413634
0.395704
0.397604
0.389946
0.387874
0.378182
0.371505
0.363704
0.361776
0.35423
0.340038
0.340624
0.332946
0.330949
0.323074
0.319033
0.314371
0.313095
0.308321
0.300868
0.299925
0.294467
0.292922
0.286783
0.28463
0.28109
0.280053
0.276259
0.270532
0.269942
0.266551
0.265505
0.260893
0.259319
0.256401
0.255576
0.252866
0.247146
0.249705
0.248626
0.248161
0.246993
0.249071
0.553626
0.541604
0.538795
0.52959
0.523171
0.516607
0.510978
0.509041
0.502488
0.501606
0.497362
0.495871
0.491349
0.490657
0.485917
0.48441
0.480389
0.477636
0.473006
0.467983
0.466249
0.459533
0.455992
0.449579
0.447718
0.440445
0.435661
0.426872
0.424645
0.416924
0.406968
0.400811
0.392845
0.390759
0.38162
0.37499
0.366311
0.364304
0.35682
0.349816
0.343037
0.335159
0.333161
0.326041
0.321545
0.316396
0.31507
0.310392
0.307543
0.301838
0.296235
0.294692
0.289319
0.2866
0.282704
0.281629
0.277917
0.275969
0.271482
0.26799
0.26695
0.262934
0.260982
0.257752
0.256892
0.254249
0.253195
0.251018
0.249847
0.249384
0.248605
0.250607
0.604569
0.594047
0.591045
0.580472
0.56464
0.566409
0.560554
0.558246
0.546578
0.54991
0.545922
0.544263
0.538355
0.536929
0.533532
0.531947
0.527214
0.516044
0.519219
0.513849
0.51181
0.501532
0.500009
0.493468
0.491407
0.482864
0.475771
0.468606
0.46626
0.45774
0.439355
0.4403
0.431913
0.429602
0.41892
0.411704
0.403231
0.401082
0.392803
0.378419
0.378051
0.369712
0.367504
0.358814
0.35455
0.349471
0.348034
0.342743
0.334727
0.333513
0.327401
0.325647
0.318634
0.316239
0.312196
0.310999
0.306679
0.300365
0.299623
0.295869
0.29469
0.289539
0.287966
0.284813
0.283888
0.280945
0.275088
0.277643
0.276494
0.275966
0.274635
0.276975
0.612774
0.599274
0.596053
0.585726
0.578392
0.571343
0.565106
0.562929
0.55603
0.555001
0.550375
0.548695
0.54378
0.543169
0.537949
0.536225
0.531793
0.528583
0.523629
0.517963
0.515994
0.508611
0.504591
0.497395
0.495282
0.487206
0.481997
0.472328
0.469823
0.461382
0.450866
0.44387
0.43511
0.432789
0.422805
0.415655
0.406119
0.403874
0.395691
0.388
0.380742
0.372164
0.369961
0.36221
0.357401
0.351721
0.350225
0.345066
0.341834
0.335654
0.329369
0.327625
0.32156
0.318486
0.314005
0.312762
0.308557
0.306244
0.301364
0.297485
0.296319
0.291911
0.289876
0.286335
0.285367
0.282514
0.281339
0.279129
0.277865
0.277344
0.276501
0.278751
0.66451
0.653361
0.649964
0.638041
0.62034
0.622602
0.61623
0.613564
0.60036
0.604531
0.600366
0.598472
0.591749
0.590153
0.58687
0.58508
0.579751
0.567257
0.571014
0.565085
0.562728
0.550928
0.549604
0.5425
0.540164
0.53059
0.522537
0.515253
0.512654
0.503328
0.48337
0.484467
0.475381
0.472798
0.46095
0.453187
0.444209
0.441824
0.432749
0.416991
0.416866
0.407886
0.405433
0.39572
0.391312
0.385885
0.384268
0.378376
0.369207
0.368294
0.361486
0.359516
0.351423
0.348894
0.344408
0.343037
0.338149
0.330797
0.330415
0.32632
0.324987
0.319163
0.317695
0.314372
0.313337
0.310124
0.303537
0.306685
0.30546
0.304847
0.303227
0.305852
0.673765
0.659145
0.655481
0.643878
0.634558
0.628074
0.621224
0.618729
0.61079
0.610214
0.605252
0.603336
0.597808
0.597187
0.591728
0.589766
0.584814
0.580183
0.575892
0.569601
0.567339
0.558835
0.554734
0.546827
0.544432
0.535439
0.529558
0.519371
0.516577
0.507363
0.495465
0.488452
0.478911
0.476321
0.465332
0.457682
0.44741
0.444909
0.435969
0.426909
0.419872
0.4106
0.40816
0.399583
0.394556
0.388384
0.386695
0.380978
0.376724
0.370691
0.36256
0.361722
0.354769
0.351461
0.346431
0.345004
0.340267
0.337086
0.332375
0.328127
0.326814
0.321892
0.31989
0.316078
0.314992
0.311896
0.310046
0.308362
0.306993
0.306389
0.305372
0.307902
0.726568
0.715345
0.711546
0.69804
0.676959
0.681171
0.674322
0.671189
0.655654
0.661258
0.65706
0.654877
0.647021
0.645057
0.642313
0.64031
0.63423
0.6191
0.624784
0.618362
0.61561
0.601756
0.601028
0.593535
0.590894
0.580109
0.570735
0.56386
0.561018
0.550802
0.527929
0.530491
0.520771
0.51787
0.504613
0.496261
0.487031
0.484402
0.474435
0.455983
0.457425
0.447835
0.445089
0.434068
0.429599
0.423948
0.422131
0.415527
0.404489
0.404582
0.363702
0.394842
0.3854
0.382866
0.378043
0.376482
0.370961
0.362017
0.362611
0.35821
0.35669
0.349999
0.348751
0.345362
0.344206
0.340661
0.332605
0.337083
0.335781
0.335049
0.332968
0.335882
0.734336
0.718703
0.714595
0.701716
0.690939
0.684516
0.677066
0.674226
0.665267
0.665081
0.65978
0.657618
0.651422
0.650729
0.645094
0.642891
0.637387
0.631757
0.627732
0.620838
0.618279
0.608656
0.604518
0.59595
0.593276
0.583379
0.576792
0.566241
0.563168
0.553206
0.54026
0.532989
0.522714
0.519854
0.507856
0.499749
0.488844
0.486093
0.47641
0.46639
0.459248
0.449324
0.446641
0.437171
0.431981
0.425352
0.423467
0.417159
0.411791
0.406019
0.39733
0.396105
0.388178
0.384712
0.379178
0.377568
0.372294
0.368129
0.363785
0.359196
0.357733
0.352241
0.350353
0.346319
0.345113
0.341761
0.339179
0.338096
0.336614
0.33592
0.334645
0.337463
0.742398
0.722269
0.717878
0.705735
0.705644
0.688008
0.679959
0.677473
0.675616
0.669014
0.662638
0.660526
0.656351
0.656511
0.648001
0.645613
0.640788
0.645055
0.630797
0.62344
0.621117
0.616431
0.608106
0.598491
0.595803
0.586975
0.58305
0.568742
0.565445
0.555781
0.550776
0.5356
0.524776
0.521974
0.511512
0.503319
0.490765
0.487901
0.478546
0.476521
0.461162
0.450898
0.448297
0.440733
0.434416
0.426832
0.424885
0.418924
0.4198
0.407522
0.399575
0.397451
0.391396
0.386596
0.380375
0.378721
0.373739
0.37487
0.365016
0.360243
0.358847
0.354835
0.351989
0.347332
0.346081
0.342953
0.346308
0.339157
0.337497
0.33685
0.336557
0.339064
0.797828
0.781898
0.777323
0.762837
0.749812
0.744149
0.736127
0.732788
0.721828
0.722761
0.717293
0.714813
0.707514
0.706519
0.701261
0.698805
0.692551
0.685281
0.682228
0.674811
0.671851
0.660391
0.656783
0.647767
0.644771
0.633725
0.625973
0.615741
0.61239
0.601569
0.586679
0.580015
0.569075
0.565884
0.552535
0.543932
0.53271
0.529691
0.519126
0.507609
0.500889
0.490328
0.487341
0.476582
0.471362
0.464428
0.462318
0.455277
0.448231
0.443284
0.434897
0.432364
0.423092
0.419666
0.413753
0.411941
0.406043
0.400406
0.396987
0.39209
0.390431
0.384093
0.382485
0.378349
0.377007
0.373315
0.369581
0.369507
0.367908
0.36708
0.36531
0.368441
0.8094
0.788508
0.783533
0.769781
0.764306
0.750453
0.741669
0.738704
0.734424
0.729475
0.722723
0.72026
0.715126
0.715193
0.706708
0.703998
0.698485
0.698385
0.687809
0.679819
0.677094
0.670541
0.662896
0.652619
0.649568
0.639669
0.634762
0.620428
0.616775
0.606251
0.597527
0.584689
0.573042
0.569886
0.558176
0.549556
0.536352
0.533166
0.522938
0.516804
0.504393
0.493383
0.490467
0.48176
0.475385
0.467267
0.465061
0.458399
0.456724
0.44608
0.437372
0.434912
0.427666
0.422846
0.416071
0.414185
0.40861
0.407745
0.399291
0.394146
0.392553
0.387853
0.385236
0.380311
0.378896
0.375455
0.376514
0.371481
0.369645
0.36886
0.368205
0.371046
0.866612
0.85164
0.846579
0.82987
0.812054
0.809526
0.801045
0.796937
0.782056
0.785519
0.780292
0.77737
0.768194
0.766501
0.762647
0.75994
0.75258
0.741544
0.741685
0.733926
0.73037
0.715734
0.713618
0.704583
0.701188
0.688508
0.678782
0.670012
0.666409
0.654487
0.635254
0.631412
0.619952
0.616314
0.600962
0.591718
0.58075
0.577438
0.565718
0.550575
0.546311
0.53517
0.53176
0.519018
0.513945
0.507021
0.504649
0.496629
0.486792
0.483779
0.47471
0.471763
0.460522
0.457411
0.451375
0.449326
0.442629
0.434627
0.433088
0.427932
0.425996
0.418325
0.417209
0.413201
0.411693
0.407504
0.40158
0.403519
0.401814
0.400781
0.39813
0.401585
0.879475
0.858941
0.853363
0.83754
0.826264
0.816522
0.807072
0.80341
0.79557
0.793047
0.786201
0.78329
0.776566
0.776212
0.768602
0.765565
0.759091
0.754344
0.747855
0.739372
0.736099
0.726727
0.720502
0.709891
0.706422
0.69509
0.688504
0.675181
0.671191
0.659645
0.646983
0.63665
0.6243
0.620705
0.607244
0.598149
0.584769
0.581241
0.569947
0.559702
0.550231
0.538522
0.535203
0.524785
0.518565
0.510155
0.507658
0.500105
0.49522
0.486906
0.477432
0.474579
0.465621
0.461078
0.453941
0.451796
0.4455
0.44198
0.435674
0.430199
0.428347
0.422548
0.420398
0.415375
0.413773
0.409899
0.408309
0.405739
0.403728
0.402747
0.401395
0.404619
0.938895
0.925906
0.920437
0.90092
0.875418
0.878703
0.869982
0.864833
0.844387
0.851423
0.846934
0.843479
0.831748
0.828957
0.827414
0.824524
0.81571
0.798493
0.804317
0.7965
0.792165
0.773314
0.773342
0.76484
0.761006
0.746257
0.733956
0.727614
0.72386
0.710613
0.684557
0.685864
0.674156
0.669974
0.652049
0.641977
0.631916
0.62833
0.615185
0.593958
0.594549
0.582971
0.579029
0.563684
0.558821
0.552337
0.549693
0.540442
0.526513
0.526771
0.517115
0.513652
0.499881
0.497254
0.491454
0.489156
0.481475
0.470077
0.471527
0.466209
0.463912
0.454447
0.453943
0.450389
0.448707
0.443847
0.434256
0.43965
0.437895
0.436583
0.432658
0.436371
0.950236
0.930476
0.924323
0.906207
0.89143
0.88343
0.873408
0.868917
0.857702
0.857111
0.850379
0.846979
0.838372
0.837346
0.831053
0.827719
0.820132
0.812805
0.808409
0.799575
0.795688
0.783461
0.778596
0.76794
0.764043
0.751132
0.742682
0.73083
0.72655
0.713926
0.698742
0.689527
0.676638
0.67257
0.657129
0.64748
0.634333
0.630477
0.618018
0.605642
0.597179
0.584871
0.581101
0.568663
0.562644
0.554197
0.551405
0.542834
0.535326
0.528828
0.518653
0.515359
0.50439
0.500244
0.492969
0.490563
0.483455
0.477623
0.473222
0.46748
0.465329
0.458156
0.456587
0.451674
0.449883
0.445475
0.441965
0.441131
0.438967
0.437753
0.435423
0.439004
0.962406
0.935259
0.928506
0.912074
0.906522
0.888281
0.876968
0.873317
0.87043
0.862913
0.853945
0.850695
0.845834
0.846127
0.834798
0.831079
0.824967
0.826246
0.812593
0.802765
0.799451
0.794015
0.783961
0.77116
0.767263
0.756583
0.75202
0.734151
0.729383
0.717506
0.709541
0.693299
0.679243
0.67535
0.662894
0.653187
0.636862
0.632769
0.621121
0.615585
0.599893
0.586857
0.583314
0.574314
0.566548
0.556132
0.553217
0.545462
0.544404
0.530945
0.520257
0.517183
0.509511
0.503274
0.494543
0.492051
0.485635
0.485611
0.474966
0.46881
0.466844
0.462412
0.45926
0.453009
0.451127
0.447261
0.449475
0.44265
0.440086
0.438998
0.438615
0.441666
1.02554
1.0077
1.00106
0.979839
0.96042
0.955036
0.944722
0.939023
0.922879
0.925019
0.919048
0.915034
0.903628
0.901534
0.897669
0.894121
0.884948
0.874222
0.872869
0.864058
0.859306
0.843065
0.840231
0.830254
0.825873
0.81078
0.799916
0.790601
0.786149
0.772144
0.752505
0.746163
0.733087
0.728411
0.710205
0.699799
0.687719
0.683559
0.66956
0.65371
0.647527
0.634799
0.630426
0.615156
0.609439
0.601523
0.598424
0.5885
0.577925
0.57376
0.563016
0.55914
0.545425
0.541907
0.534968
0.532284
0.524104
0.515593
0.513563
0.507682
0.505117
0.495943
0.495118
0.490747
0.488754
0.48358
0.477637
0.479023
0.476786
0.475242
0.471405
0.47528
1.04115
1.01618
1.00871
0.989125
0.974915
0.963299
0.951376
0.946519
0.937909
0.934166
0.92561
0.921665
0.913994
0.913332
0.904395
0.900311
0.892674
0.887109
0.88007
0.870058
0.865861
0.85602
0.848678
0.836217
0.831751
0.818931
0.811589
0.796569
0.791465
0.77822
0.7643
0.752504
0.737972
0.733428
0.718228
0.707971
0.692339
0.68783
0.674671
0.662931
0.652224
0.63856
0.634401
0.622599
0.615363
0.605111
0.601813
0.592762
0.586789
0.577497
0.566081
0.562418
0.552057
0.546635
0.537915
0.535084
0.527653
0.523474
0.516663
0.510236
0.507853
0.501526
0.499272
0.493249
0.491108
0.486524
0.484528
0.4817
0.478935
0.477513
0.475743
0.479263
1.10791
1.0938
1.08692
1.06136
1.03111
1.03403
1.02394
1.0165
0.991694
0.999103
0.994907
0.99012
0.974576
0.970862
0.971002
0.967438
0.955975
0.936707
0.943633
0.93549
0.929486
0.90686
0.907595
0.899398
0.894469
0.876279
0.861899
0.856847
0.852491
0.836579
0.807349
0.808566
0.795884
0.790394
0.768253
0.756772
0.746877
0.742485
0.726365
0.702107
0.702912
0.690108
0.684902
0.665593
0.660315
0.653754
0.650356
0.638584
0.622158
0.623144
0.61209
0.607418
0.589861
0.58726
0.581357
0.57839
0.568735
0.555318
0.557935
0.552139
0.548978
0.536906
0.536995
0.533802
0.531604
0.525304
0.513981
0.520451
0.518315
0.516299
0.510245
0.514285
1.12211
1.09957
1.0915
1.06824
1.04989
1.04015
1.02792
1.02156
1.00801
1.00658
0.998971
0.994261
0.983281
0.981381
0.975437
0.971095
0.961607
0.953267
0.948857
0.939022
0.933776
0.919745
0.914558
0.903092
0.898045
0.882736
0.8727
0.86088
0.855587
0.840777
0.823799
0.813441
0.798817
0.793531
0.775137
0.76409
0.749869
0.744994
0.730059
0.715833
0.706388
0.692345
0.687452
0.672369
0.665554
0.656037
0.652369
0.641752
0.632595
0.625854
0.613899
0.609534
0.596041
0.59143
0.583219
0.580055
0.57138
0.564316
0.560179
0.553632
0.550735
0.542056
0.540718
0.535388
0.532995
0.527475
0.523128
0.52243
0.519576
0.517738
0.514107
0.517963
1.13742
1.10557
1.09647
1.07601
1.06474
1.04643
1.032
1.02711
1.02188
1.01431
1.00314
0.998709
0.99297
0.992609
0.979962
0.974964
0.967885
0.966289
0.954181
0.942655
0.938428
0.93198
0.921769
0.906893
0.901864
0.890033
0.884255
0.865003
0.858856
0.845387
0.834637
0.818466
0.801873
0.796927
0.782874
0.771877
0.752972
0.747687
0.734189
0.72542
0.709959
0.694656
0.690201
0.679811
0.671019
0.658392
0.654516
0.645308
0.64191
0.628624
0.615773
0.611828
0.602768
0.595728
0.585136
0.581826
0.57436
0.572697
0.562466
0.555182
0.552637
0.547789
0.544547
0.537016
0.534466
0.529907
0.530543
0.524444
0.520878
0.519282
0.518542
0.52177
1.20935
1.19014
1.18181
1.15361
1.12805
1.12269
1.11074
1.1023
1.08128
1.0835
1.07787
1.07226
1.05673
1.05338
1.05151
1.04718
1.03511
1.02161
1.02229
1.01338
1.00669
0.986797
0.984664
0.975365
0.969716
0.951043
0.938021
0.93037
0.925232
0.908335
0.884541
0.878992
0.864993
0.858769
0.836065
0.823999
0.812246
0.807137
0.789802
0.769941
0.76472
0.750737
0.744868
0.725391
0.719052
0.711171
0.707179
0.694455
0.681053
0.677997
0.665871
0.660575
0.64291
0.6393
0.632404
0.628926
0.618554
0.607815
0.607214
0.600847
0.597237
0.585305
0.584979
0.581081
0.57846
0.571607
0.563482
0.566273
0.563572
0.561159
0.554912
0.558937
1.22505
1.19666
1.1868
1.16192
1.14305
1.12973
1.11497
1.10817
1.09693
1.09219
1.08225
1.07685
1.06714
1.06517
1.0564
1.05109
1.04181
1.03478
1.02823
1.0171
1.01157
1.00032
0.992799
0.979369
0.973633
0.958918
0.949798
0.934899
0.928535
0.913261
0.897565
0.884696
0.868148
0.86228
0.844465
0.832562
0.815577
0.809847
0.794245
0.78015
0.768761
0.75313
0.747763
0.73352
0.72529
0.713693
0.709366
0.698314
0.69014
0.681135
0.667802
0.662995
0.650308
0.644306
0.634458
0.630737
0.621799
0.615901
0.609815
0.602438
0.599241
0.591602
0.589467
0.582837
0.579969
0.574257
0.570845
0.568586
0.564918
0.562787
0.559763
0.563355
1.2431
1.20332
1.19227
1.17112
1.16338
1.13682
1.11927
1.11458
1.11292
1.10102
1.0867
1.0818
1.0783
1.0781
1.06132
1.05525
1.04914
1.05232
1.03418
1.0209
1.01686
1.01411
1.00106
0.983442
0.977826
0.967532
0.963382
0.939459
0.932033
0.91864
0.912197
0.890448
0.871407
0.866087
0.853554
0.841656
0.818987
0.812766
0.799153
0.794146
0.772826
0.75558
0.750887
0.742167
0.731681
0.716267
0.711705
0.702589
0.702288
0.684279
0.669788
0.665624
0.658125
0.649348
0.63655
0.632673
0.625409
0.626732
0.612415
0.604078
0.601416
0.598335
0.593977
0.584614
0.581571
0.577201
0.581045
0.570885
0.566297
0.564539
0.565075
0.567832
1.32087
1.29613
1.28603
1.25502
1.23141
1.21956
1.20526
1.19579
1.17765
1.17515
1.16773
1.16118
1.14607
1.14257
1.13857
1.13333
1.12087
1.1111
1.10752
1.0978
1.09043
1.07344
1.06859
1.0581
1.05165
1.03294
1.02094
1.0108
1.00471
0.986903
0.96673
0.956202
0.940675
0.933614
0.910706
0.897668
0.883782
0.877802
0.859253
0.841933
0.832287
0.816953
0.810343
0.791064
0.783292
0.773866
0.769161
0.755544
0.744089
0.737972
0.724691
0.718709
0.701313
0.696352
0.688294
0.6842
0.673164
0.664272
0.661183
0.654136
0.650012
0.638573
0.637521
0.632752
0.629609
0.62221
0.616172
0.616261
0.612854
0.609976
0.603751
0.607478
1.34077
1.30723
1.29532
1.26804
1.2468
1.2307
1.21303
1.20559
1.19421
1.18772
1.17551
1.16925
1.16015
1.15762
1.14686
1.14048
1.13129
1.12436
1.11697
1.10468
1.09874
1.08879
1.08032
1.06529
1.05874
1.0445
1.03546
1.01851
1.01093
0.995107
0.979009
0.965108
0.946544
0.939934
0.922221
0.909175
0.889664
0.882913
0.866462
0.851768
0.838818
0.821427
0.815463
0.801539
0.792017
0.778385
0.773257
0.761711
0.753618
0.743142
0.728351
0.723004
0.71068
0.703499
0.692015
0.68761
0.678382
0.672894
0.665496
0.657172
0.653589
0.646721
0.643882
0.635916
0.632455
0.626518
0.623476
0.620045
0.615409
0.612901
0.610357
0.613538
1.42585
1.40744
1.39793
1.35862
1.3197
1.31883
1.30608
1.29306
1.26088
1.26583
1.26236
1.25459
1.23174
1.22628
1.22899
1.22448
1.20765
1.18648
1.19446
1.18751
1.1777
1.15034
1.15161
1.14578
1.13868
1.11447
1.09792
1.09522
1.09025
1.06893
1.03527
1.03524
1.02195
1.01341
0.983271
0.968999
0.959686
0.953835
0.931267
0.902296
0.902329
0.888172
0.879932
0.853376
0.84671
0.84069
0.835813
0.818737
0.798768
0.800689
0.78824
0.780705
0.756482
0.753378
0.748244
0.743909
0.729992
0.713749
0.717928
0.711836
0.70645
0.689476
0.690001
0.688141
0.684855
0.675082
0.661085
0.668632
0.666037
0.662161
0.651475
0.655267
1.44587
1.41628
1.40411
1.36955
1.34418
1.32833
1.31142
1.30057
1.28283
1.27704
1.26795
1.26026
1.2451
1.24073
1.23539
1.22914
1.21618
1.20749
1.20236
1.19207
1.18384
1.16857
1.16214
1.15093
1.14351
1.12474
1.11286
1.10135
1.09423
1.07538
1.05626
1.04305
1.026
1.01788
0.994412
0.979939
0.96418
0.957167
0.937166
0.920009
0.907962
0.89122
0.883683
0.864225
0.854937
0.844084
0.838529
0.823908
0.812788
0.80512
0.790694
0.783872
0.766477
0.760167
0.751022
0.746174
0.734388
0.726012
0.721651
0.713857
0.709081
0.697972
0.696121
0.690529
0.68674
0.678691
0.673278
0.671971
0.667759
0.66429
0.657986
0.661158
1.46579
1.4255
1.41104
1.38189
1.35947
1.33825
1.31677
1.30909
1.29807
1.289
1.27363
1.26657
1.25869
1.25552
1.24191
1.23421
1.2258
1.22037
1.21053
1.19667
1.19074
1.18288
1.17335
1.15615
1.1488
1.13597
1.12738
1.1076
1.09849
1.08268
1.06778
1.0513
1.03015
1.02288
1.00589
0.991581
0.968799
0.960815
0.94393
0.929867
0.913826
0.89429
0.887858
0.874708
0.863772
0.847541
0.841489
0.829857
0.822511
0.809675
0.793181
0.787433
0.775909
0.767429
0.753835
0.748638
0.73948
0.734929
0.725456
0.715907
0.712031
0.706311
0.702656
0.692929
0.688767
0.682867
0.680843
0.675376
0.669493
0.66665
0.664893
0.667476
1.5603
1.53459
1.5233
1.47973
1.44286
1.43319
1.41761
1.40303
1.37357
1.37246
1.36685
1.35801
1.33519
1.3295
1.32954
1.32431
1.30677
1.29036
1.29306
1.28579
1.2751
1.25127
1.24959
1.24295
1.2351
1.21092
1.19609
1.19052
1.18489
1.16233
1.13303
1.12701
1.11228
1.10266
1.07196
1.05644
1.04461
1.03796
1.01358
0.98769
0.982126
0.966727
0.957498
0.930967
0.922558
0.914905
0.90936
0.891007
0.873654
0.871642
0.858329
0.849882
0.8259
0.82114
0.814868
0.809937
0.794998
0.781199
0.782051
0.775416
0.769285
0.752666
0.752197
0.749473
0.745696
0.735
0.723618
0.727596
0.724357
0.719822
0.70887
0.712045
1.58164
1.54478
1.53029
1.49292
1.4653
1.44413
1.42347
1.41194
1.39508
1.3852
1.37303
1.36449
1.35048
1.345
1.33671
1.32945
1.31691
1.30945
1.30205
1.29071
1.28225
1.26997
1.26157
1.24867
1.24054
1.22317
1.2118
1.19753
1.18924
1.17007
1.15246
1.13611
1.11676
1.10785
1.085
1.06875
1.04974
1.04167
1.02075
1.00371
0.988704
0.970082
0.961895
0.943315
0.932033
0.918761
0.912402
0.897347
0.88681
0.876823
0.861024
0.853624
0.83724
0.829061
0.818027
0.812483
0.800437
0.792847
0.786424
0.777634
0.772393
0.762493
0.759353
0.752195
0.747808
0.739464
0.734793
0.731534
0.726254
0.722319
0.716672
0.718873
1.60449
1.55501
1.53796
1.50711
1.48441
1.45523
1.42907
1.4217
1.4119
1.39856
1.37906
1.37154
1.36536
1.36149
1.34377
1.3349
1.3278
1.32514
1.31106
1.29545
1.29004
1.28541
1.2741
1.25423
1.24639
1.23583
1.22832
1.20443
1.1938
1.17852
1.1664
1.14544
1.12116
1.11351
1.09786
1.08198
1.05482
1.04564
1.02864
1.0163
0.995325
0.973309
0.966682
0.954898
0.942089
0.922536
0.915651
0.904334
0.898711
0.881968
0.863631
0.857745
0.84768
0.837387
0.8211
0.8152
0.80648
0.80375
0.790741
0.779784
0.775811
0.771786
0.766857
0.754824
0.750033
0.744443
0.744352
0.735411
0.728081
0.725039
0.724501
0.726106
1.70599
1.67041
1.65684
1.61032
1.575
1.55482
1.53465
1.5198
1.4939
1.48548
1.47589
1.46647
1.44547
1.43876
1.43443
1.42828
1.41147
1.39995
1.39649
1.38789
1.37747
1.35896
1.35352
1.34475
1.33653
1.31437
1.3013
1.29139
1.28471
1.26214
1.23809
1.22512
1.20766
1.19755
1.16803
1.1505
1.13438
1.1268
1.10154
1.07904
1.06675
1.04915
1.03958
1.01473
1.0037
0.993028
0.986841
0.968222
0.95386
0.946825
0.931986
0.92328
0.901194
0.893846
0.88522
0.879757
0.86468
0.853714
0.850108
0.842275
0.835938
0.821134
0.818797
0.814046
0.809809
0.798906
0.790569
0.789955
0.785444
0.780661
0.770692
0.77261
1.72828
1.68163
1.66453
1.62557
1.59335
1.56697
1.54071
1.53002
1.51312
1.49958
1.48236
1.47367
1.46185
1.45504
1.44208
1.43374
1.42299
1.41526
1.40629
1.39287
1.38552
1.37658
1.36677
1.35074
1.34245
1.32816
1.31736
1.29902
1.2893
1.2711
1.25364
1.23535
1.21236
1.20339
1.18236
1.16407
1.13994
1.13078
1.10992
1.09151
1.07409
1.05262
1.04458
1.02782
1.01433
0.99716
0.990128
0.975685
0.96517
0.952586
0.934761
0.927566
0.913135
0.902834
0.888606
0.882522
0.871154
0.863976
0.854987
0.844557
0.839497
0.831704
0.826927
0.816966
0.812087
0.804224
0.79971
0.794359
0.787403
0.783497
0.779441
0.780327
1.75731
1.69238
1.67291
1.64137
1.62389
1.57871
1.54636
1.54075
1.53637
1.51407
1.48848
1.48132
1.47858
1.4747
1.44928
1.43952
1.43487
1.43998
1.41565
1.39758
1.39401
1.39625
1.38038
1.35638
1.34875
1.34221
1.33839
1.30619
1.29414
1.28047
1.27643
1.24532
1.21685
1.20963
1.19707
1.17945
1.14521
1.13506
1.11872
1.11265
1.08107
1.0559
1.04989
1.04135
1.02554
1.00108
0.993648
0.983505
0.98348
0.958006
0.937412
0.932181
0.925501
0.912027
0.891802
0.885487
0.87798
0.880571
0.859547
0.846748
0.843336
0.842554
0.835199
0.819701
0.814504
0.809858
0.815188
0.798454
0.789268
0.786541
0.78834
0.788379
1.85794
1.81088
1.79419
1.74664
1.71088
1.68021
1.6534
1.63978
1.61742
1.6016
1.58598
1.57644
1.55897
1.55039
1.54031
1.53279
1.51838
1.5107
1.50149
1.49029
1.48137
1.46923
1.46018
1.44776
1.4394
1.42152
1.40968
1.39472
1.38621
1.36527
1.34658
1.32684
1.30512
1.2951
1.26862
1.2484
1.22628
1.21737
1.19252
1.17271
1.15369
1.13272
1.12351
1.10195
1.08779
1.07263
1.06568
1.04812
1.03607
1.02406
1.00687
0.998606
0.979966
0.969541
0.957213
0.951133
0.93709
0.928358
0.92021
0.910331
0.904369
0.892787
0.888017
0.879924
0.875107
0.864947
0.859185
0.853945
0.84738
0.842782
0.835155
0.835356
1.8849
1.82549
1.80564
1.7653
1.73201
1.69517
1.66196
1.65306
1.63665
1.61833
1.59477
1.58635
1.57683
1.5694
1.55013
1.54074
1.53229
1.5275
1.51343
1.49742
1.49197
1.48693
1.4758
1.45592
1.44785
1.43739
1.42864
1.40451
1.39322
1.37682
1.3624