/*--------------------------------*- C++ -*----------------------------------*\
| =========                 |                                                 |
| \\      /  F ield         | OpenFOAM: The Open Source CFD Toolbox           |
|  \\    /   O peration     | Version:  v2012                                 |
|   \\  /    A nd           | Website:  www.openfoam.com                      |
|    \\/     M anipulation  |                                                 |
\*---------------------------------------------------------------------------*/
FoamFile
{
    version     2.0;
    format      ascii;
    class       volScalarField;
    location    "1e-06";
    object      kPrime2Mean;
}
// * * * * * * * * * * * * * * * * * * * * * * * * * * * * * * * * * * * * * //

dimensions      [0 4 -4 0 0 0 0];


internalField   nonuniform List<scalar> 
10203
(
2.68953e-08
1.59113e-08
1.24038e-08
2.11552e-08
2.68203e-08
1.6004e-08
7.75775e-09
1.44148e-08
2.35225e-08
1.39135e-08
7.05068e-09
8.16696e-09
1.33731e-08
1.19849e-08
5.29871e-09
5.05066e-09
7.66704e-09
1.07185e-08
6.29836e-09
3.06262e-09
6.64883e-09
1.108e-08
9.47735e-09
6.32229e-09
6.53478e-09
1.03926e-08
1.11959e-08
6.81972e-09
4.35089e-09
7.13807e-09
1.03238e-08
4.94833e-09
2.46655e-09
3.35532e-09
4.51281e-09
3.53402e-09
1.7632e-09
1.09454e-09
2.27687e-09
2.86873e-09
2.05114e-09
1.18519e-09
1.78859e-09
3.07624e-09
2.76381e-09
1.59154e-09
1.37907e-09
2.33214e-09
3.03062e-09
2.14364e-09
1.50176e-09
2.3162e-09
3.41546e-09
2.97467e-09
1.92607e-09
1.8196e-09
3.07036e-09
4.09415e-09
2.81908e-09
1.59313e-09
2.55294e-09
3.94344e-09
3.25163e-09
1.89831e-09
1.57852e-09
2.48445e-09
3.03443e-09
1.97302e-09
1.08818e-09
1.56612e-09
2.47258e-09
2.32741e-09
1.50644e-08
1.14832e-08
1.0091e-08
1.03806e-08
5.8315e-09
8.999e-09
7.90198e-09
8.38418e-09
8.50403e-09
9.73252e-09
8.96868e-09
8.87969e-09
1.07459e-08
1.16984e-08
1.02964e-08
9.15329e-09
1.06312e-08
8.03288e-09
1.07032e-08
8.45785e-09
9.49347e-09
1.03895e-08
1.01927e-08
8.09426e-09
7.83394e-09
9.00403e-09
9.01546e-09
7.66419e-09
6.4327e-09
7.21921e-09
4.80229e-09
6.25594e-09
5.03206e-09
5.14596e-09
5.25306e-09
4.8451e-09
3.83264e-09
3.41903e-09
3.65685e-09
1.79818e-09
3.31245e-09
2.73648e-09
2.84621e-09
3.03642e-09
2.99035e-09
2.46433e-09
2.23235e-09
2.43889e-09
2.01635e-09
1.97622e-09
7.8052e-09
1.53073e-09
1.45118e-09
1.19562e-09
8.61419e-10
7.84196e-10
6.94837e-10
4.56552e-10
4.89401e-10
4.30466e-10
3.84779e-10
3.34496e-10
3.58361e-10
3.67918e-10
3.397e-10
3.33532e-10
1.89046e-10
3.6316e-10
3.56997e-10
3.26127e-10
3.13607e-10
3.13791e-10
1.90793e-07
1.86269e-07
1.83161e-07
1.66047e-07
8.83555e-08
1.61166e-07
1.58285e-07
1.52127e-07
1.21531e-07
1.43981e-07
1.42095e-07
1.3921e-07
1.31563e-07
1.32276e-07
1.37071e-07
1.35866e-07
1.28867e-07
7.13227e-08
1.26212e-07
1.24052e-07
1.19112e-07
1.01786e-07
1.09037e-07
1.06366e-07
1.03721e-07
9.53216e-08
8.71925e-08
8.90392e-08
8.78907e-08
8.08559e-08
3.82439e-08
6.8955e-08
6.58221e-08
6.34059e-08
5.56705e-08
5.22888e-08
5.01025e-08
4.91836e-08
4.45189e-08
1.67424e-08
3.9461e-08
3.74683e-08
3.58521e-08
3.15011e-08
3.10917e-08
3.03871e-08
2.97604e-08
2.73432e-08
1.89357e-08
2.43152e-08
5.87353e-09
2.16229e-08
1.85999e-08
1.78485e-08
1.6778e-08
1.63094e-08
1.45927e-08
1.0468e-08
1.26152e-08
1.26229e-08
1.14625e-08
1.10765e-08
1.1326e-08
1.10432e-08
1.08272e-08
1.01267e-08
5.96569e-09
9.60197e-09
9.43992e-09
9.23571e-09
8.56028e-09
8.28242e-09
1.71014e-07
1.64736e-07
1.59776e-07
1.42913e-07
7.23625e-08
1.31009e-07
1.30289e-07
1.23819e-07
1.00052e-07
1.26432e-07
1.31132e-07
1.26825e-07
1.2105e-07
1.25211e-07
1.30388e-07
1.28167e-07
1.22746e-07
6.83601e-08
1.21317e-07
1.19522e-07
1.13452e-07
9.57021e-08
1.0499e-07
1.02679e-07
9.92254e-08
9.09116e-08
8.51942e-08
8.65997e-08
8.50766e-08
7.8365e-08
3.73383e-08
6.94807e-08
6.69225e-08
6.38298e-08
5.58187e-08
5.33401e-08
5.10256e-08
4.9648e-08
4.4762e-08
1.72848e-08
3.96442e-08
3.75438e-08
3.54387e-08
3.0876e-08
3.08698e-08
3.00011e-08
2.90743e-08
2.64518e-08
1.85082e-08
2.31812e-08
1.4963e-09
1.98904e-08
1.6487e-08
1.57949e-08
1.46087e-08
1.39813e-08
1.21367e-08
8.69916e-09
1.0435e-08
1.00386e-08
9.31619e-09
8.10642e-09
8.3596e-09
8.19765e-09
8.03762e-09
7.52077e-09
4.594e-09
7.41576e-09
7.34324e-09
6.99002e-09
6.20285e-09
6.28275e-09
1.66558e-08
1.78546e-08
1.69889e-08
1.57198e-08
5.43207e-09
1.48314e-08
1.42594e-08
1.34947e-08
9.16841e-09
1.27171e-08
1.25171e-08
1.19408e-08
1.08018e-08
1.05086e-08
1.10477e-08
1.06227e-08
1.02119e-08
3.50871e-09
9.94297e-09
9.75403e-09
9.31745e-09
7.23549e-09
8.96323e-09
8.98414e-09
8.64921e-09
8.07262e-09
7.29793e-09
8.13324e-09
7.86966e-09
7.4515e-09
2.49225e-09
6.97073e-09
6.67781e-09
6.39058e-09
5.58396e-09
5.43888e-09
5.32536e-09
5.11396e-09
4.68481e-09
1.40233e-09
4.16522e-09
3.85336e-09
3.652e-09
3.08498e-09
3.11013e-09
2.98428e-09
2.84938e-09
2.6254e-09
1.26405e-09
2.39196e-09
2.14706e-09
2.10237e-09
1.7895e-09
1.93184e-09
1.91608e-09
1.82997e-09
1.76728e-09
1.01098e-09
1.77787e-09
1.75502e-09
1.66474e-09
1.49463e-09
1.59369e-09
1.5704e-09
1.49424e-09
1.41801e-09
5.77672e-10
1.33875e-09
1.28502e-09
1.22048e-09
1.10537e-09
1.13524e-09
4.71269e-07
4.77087e-07
4.67012e-07
4.27766e-07
1.86006e-07
4.07997e-07
4.00672e-07
3.87534e-07
2.86454e-07
3.70991e-07
3.75562e-07
3.67789e-07
3.45877e-07
3.44175e-07
3.6073e-07
3.5566e-07
3.41818e-07
1.57624e-07
3.31925e-07
3.24656e-07
3.1399e-07
2.57475e-07
2.88208e-07
2.81937e-07
2.74936e-07
2.53357e-07
2.26806e-07
2.37622e-07
2.33122e-07
2.17305e-07
8.72665e-08
1.91752e-07
1.82432e-07
1.76357e-07
1.55452e-07
1.47133e-07
1.42061e-07
1.38507e-07
1.26819e-07
4.27307e-08
1.11966e-07
1.05179e-07
1.01374e-07
8.83117e-08
8.80652e-08
8.57605e-08
8.36417e-08
7.76884e-08
4.63665e-08
6.98053e-08
6.53221e-08
6.25077e-08
5.33845e-08
5.30256e-08
5.05508e-08
4.90529e-08
4.49287e-08
2.86252e-08
4.04593e-08
3.87538e-08
3.72542e-08
3.29954e-08
3.38825e-08
3.3191e-08
3.24041e-08
3.03846e-08
1.49164e-08
2.88773e-08
2.83403e-08
2.75232e-08
2.53344e-08
2.5675e-08
4.79408e-07
4.85039e-07
4.69923e-07
4.3001e-07
1.82683e-07
4.01006e-07
3.9265e-07
3.80447e-07
2.80792e-07
3.74201e-07
3.79893e-07
3.69313e-07
3.46869e-07
3.48593e-07
3.66445e-07
3.59203e-07
3.46123e-07
1.55911e-07
3.39554e-07
3.33059e-07
3.20559e-07
2.59992e-07
2.9854e-07
2.93395e-07
2.84912e-07
2.63286e-07
2.38946e-07
2.51951e-07
2.46139e-07
2.3034e-07
9.36627e-08
2.06164e-07
1.96603e-07
1.89283e-07
1.66382e-07
1.59086e-07
1.53446e-07
1.48908e-07
1.36204e-07
4.70635e-08
1.20569e-07
1.13048e-07
1.08097e-07
9.37593e-08
9.42865e-08
9.15598e-08
8.87715e-08
8.22354e-08
4.85474e-08
7.40361e-08
6.90961e-08
6.56493e-08
5.56246e-08
5.61117e-08
5.3631e-08
5.1711e-08
4.75378e-08
3.03085e-08
4.36078e-08
4.20752e-08
4.01378e-08
3.55409e-08
3.67105e-08
3.60364e-08
3.49521e-08
3.30796e-08
1.60657e-08
3.14651e-08
3.07216e-08
2.94312e-08
2.68777e-08
2.73387e-08
5.88252e-07
6.04791e-07
5.92055e-07
5.4272e-07
2.19422e-07
5.17194e-07
5.0849e-07
4.92083e-07
3.45515e-07
4.72085e-07
4.77838e-07
4.6777e-07
4.35614e-07
4.33258e-07
4.57237e-07
4.50567e-07
4.32583e-07
1.84751e-07
4.21069e-07
4.12452e-07
3.99201e-07
3.16846e-07
3.67501e-07
3.60796e-07
3.51858e-07
3.23614e-07
2.87905e-07
3.05952e-07
2.99814e-07
2.79997e-07
1.08694e-07
2.48273e-07
2.36214e-07
2.28391e-07
2.00124e-07
1.90528e-07
1.85067e-07
1.80278e-07
1.6529e-07
5.21665e-08
1.46544e-07
1.37857e-07
1.33017e-07
1.14616e-07
1.15816e-07
1.13143e-07
1.10302e-07
1.02653e-07
5.8422e-08
9.31769e-08
8.75352e-08
8.3905e-08
7.11411e-08
7.22347e-08
6.94286e-08
6.73874e-08
6.21989e-08
3.83441e-08
5.69285e-08
5.46623e-08
5.26554e-08
4.6304e-08
4.77659e-08
4.6767e-08
4.55915e-08
4.30193e-08
1.97674e-08
4.08687e-08
3.99909e-08
3.86488e-08
3.55678e-08
3.62827e-08
7.19449e-07
7.39952e-07
7.15387e-07
6.52932e-07
2.4762e-07
6.08379e-07
5.96051e-07
5.76064e-07
3.98805e-07
5.62605e-07
5.69758e-07
5.52941e-07
5.12293e-07
5.14341e-07
5.45639e-07
5.34048e-07
5.12994e-07
2.07091e-07
5.05422e-07
4.96e-07
4.77004e-07
3.72644e-07
4.45019e-07
4.39037e-07
4.25957e-07
3.91765e-07
3.52185e-07
3.77284e-07
3.67926e-07
3.4407e-07
1.32093e-07
3.08177e-07
2.93563e-07
2.82354e-07
2.45744e-07
2.3599e-07
2.2888e-07
2.21747e-07
2.02514e-07
5.84691e-08
1.79554e-07
1.68136e-07
1.60693e-07
1.37321e-07
1.39762e-07
1.36121e-07
1.31827e-07
1.22095e-07
6.80489e-08
1.10887e-07
1.03905e-07
9.8815e-08
8.28974e-08
8.55974e-08
8.24946e-08
7.95501e-08
7.36679e-08
4.50421e-08
6.84352e-08
6.60808e-08
6.31642e-08
5.53295e-08
5.77666e-08
5.66977e-08
5.48254e-08
5.18152e-08
2.2995e-08
4.9075e-08
4.77614e-08
4.58038e-08
4.1632e-08
4.2638e-08
3.05266e-08
4.05872e-08
3.88146e-08
3.42229e-08
9.95522e-09
3.16e-08
3.08882e-08
2.86293e-08
1.41677e-08
2.5457e-08
2.64442e-08
2.51433e-08
2.09304e-08
1.86493e-08
2.38161e-08
2.31411e-08
2.14944e-08
6.16198e-09
2.18111e-08
2.19902e-08
2.07568e-08
1.29456e-08
1.91824e-08
2.03998e-08
1.96723e-08
1.74096e-08
1.25835e-08
1.84516e-08
1.80587e-08
1.68151e-08
2.80632e-09
1.56114e-08
1.5433e-08
1.47536e-08
1.19219e-08
1.13477e-08
1.24091e-08
1.20101e-08
1.07393e-08
3.1826e-09
9.68172e-09
9.13342e-09
8.60029e-09
6.50459e-09
6.84356e-09
7.11198e-09
6.82673e-09
6.12174e-09
1.78652e-09
5.72466e-09
5.46403e-09
5.12858e-09
3.85704e-09
4.44771e-09
4.63423e-09
4.44675e-09
4.14332e-09
1.36073e-09
4.13073e-09
4.09224e-09
3.86799e-09
3.10004e-09
3.46568e-09
3.59708e-09
3.4367e-09
3.18921e-09
9.14908e-10
3.03957e-09
2.95755e-09
2.80355e-09
2.36012e-09
2.45066e-09
9.98144e-07
1.12769e-06
1.10524e-06
1.00145e-06
3.55698e-07
9.59664e-07
9.45016e-07
9.12339e-07
5.67712e-07
8.65922e-07
8.90861e-07
8.69309e-07
7.83118e-07
7.54265e-07
8.49066e-07
8.36992e-07
7.95168e-07
2.96427e-07
7.82051e-07
7.72095e-07
7.43884e-07
5.42091e-07
6.77993e-07
6.81118e-07
6.63417e-07
5.99752e-07
4.93105e-07
5.80213e-07
5.69955e-07
5.29618e-07
1.56669e-07
4.69507e-07
4.50635e-07
4.34723e-07
3.69355e-07
3.49233e-07
3.5411e-07
3.44949e-07
3.14298e-07
9.04105e-08
2.81084e-07
2.66639e-07
2.56583e-07
2.11784e-07
2.19039e-07
2.19694e-07
2.14074e-07
1.98027e-07
9.14351e-08
1.8261e-07
1.7314e-07
1.65698e-07
1.34816e-07
1.42556e-07
1.40861e-07
1.3671e-07
1.26441e-07
6.29552e-08
1.18116e-07
1.14236e-07
1.09883e-07
9.2994e-08
9.81512e-08
9.79801e-08
9.52509e-08
8.9563e-08
3.42019e-08
8.50744e-08
8.33514e-08
8.03825e-08
7.18762e-08
7.38656e-08
1.06463e-06
1.23167e-06
1.19674e-06
1.0782e-06
3.78414e-07
1.01322e-06
9.9943e-07
9.58377e-07
5.73463e-07
9.11858e-07
9.44801e-07
9.1649e-07
8.14458e-07
7.81235e-07
8.9922e-07
8.83328e-07
8.37186e-07
3.05438e-07
8.32462e-07
8.27199e-07
7.9294e-07
5.59159e-07
7.28326e-07
7.39784e-07
7.18372e-07
6.46737e-07
5.2558e-07
6.38494e-07
6.25278e-07
5.81769e-07
1.72023e-07
5.23012e-07
5.0513e-07
4.85636e-07
4.08232e-07
3.88472e-07
3.98871e-07
3.87416e-07
3.51839e-07
1.05878e-07
3.15433e-07
2.98994e-07
2.8558e-07
2.32206e-07
2.42651e-07
2.4488e-07
2.37606e-07
2.18735e-07
9.66121e-08
2.02884e-07
1.92738e-07
1.83428e-07
1.46542e-07
1.58449e-07
1.58065e-07
1.52814e-07
1.41384e-07
6.77259e-08
1.34108e-07
1.30445e-07
1.24745e-07
1.04227e-07
1.11877e-07
1.12486e-07
1.08842e-07
1.01895e-07
3.80497e-08
9.69789e-08
9.48179e-08
9.09626e-08
8.01298e-08
8.27166e-08
1.06521e-06
1.26674e-06
1.24379e-06
1.11799e-06
3.92795e-07
1.07382e-06
1.06056e-06
1.02219e-06
5.84413e-07
9.61326e-07
9.99123e-07
9.7371e-07
8.57345e-07
8.14084e-07
9.50156e-07
9.37737e-07
8.84334e-07
3.23819e-07
8.75079e-07
8.68996e-07
8.35046e-07
5.72844e-07
7.56134e-07
7.70412e-07
7.50268e-07
6.70079e-07
5.29824e-07
6.58559e-07
6.4861e-07
6.00426e-07
1.71553e-07
5.33529e-07
5.16128e-07
4.97264e-07
4.1419e-07
3.91697e-07
4.07999e-07
3.97853e-07
3.61141e-07
1.10191e-07
3.25131e-07
3.10533e-07
2.98267e-07
2.39167e-07
2.51867e-07
2.5681e-07
2.50343e-07
2.30583e-07
9.90989e-08
2.14695e-07
2.04711e-07
1.95702e-07
1.54604e-07
1.67887e-07
1.68392e-07
1.63505e-07
1.50923e-07
6.95705e-08
1.42356e-07
1.3821e-07
1.32796e-07
1.09434e-07
1.17704e-07
1.18857e-07
1.15547e-07
1.08176e-07
3.95854e-08
1.03031e-07
1.01192e-07
9.74805e-08
8.55477e-08
8.85094e-08
1.22745e-06
1.5013e-06
1.46063e-06
1.30071e-06
4.45885e-07
1.22551e-06
1.21452e-06
1.15767e-06
6.34019e-07
1.0872e-06
1.14218e-06
1.10567e-06
9.56692e-07
9.01769e-07
1.08407e-06
1.0663e-06
1.00123e-06
3.55191e-07
1.00243e-06
1.0034e-06
9.57786e-07
6.32914e-07
8.71724e-07
9.00494e-07
8.73697e-07
7.74522e-07
6.01821e-07
7.77232e-07
7.62711e-07
7.06298e-07
1.98163e-07
6.35464e-07
6.18747e-07
5.93711e-07
4.8708e-07
4.62481e-07
4.89561e-07
4.75788e-07
4.29479e-07
1.3021e-07
3.868e-07
3.68754e-07
3.51398e-07
2.76212e-07
2.93954e-07
3.02425e-07
2.93445e-07
2.68379e-07
1.10408e-07
2.51291e-07
2.39601e-07
2.28055e-07
1.75909e-07
1.95515e-07
1.98476e-07
1.91901e-07
1.76718e-07
7.83152e-08
1.69092e-07
1.65103e-07
1.57582e-07
1.27539e-07
1.39536e-07
1.42351e-07
1.37688e-07
1.28149e-07
4.55981e-08
1.22201e-07
1.19813e-07
1.14738e-07
9.88156e-08
1.02638e-07
1.18576e-06
1.49553e-06
1.47122e-06
1.30632e-06
4.43206e-07
1.25852e-06
1.24919e-06
1.19867e-06
6.29772e-07
1.11328e-06
1.17474e-06
1.14246e-06
9.79063e-07
9.12617e-07
1.11467e-06
1.10163e-06
1.02902e-06
3.63469e-07
1.02559e-06
1.02636e-06
9.81821e-07
6.31917e-07
8.79745e-07
9.12986e-07
8.88214e-07
7.80689e-07
5.89291e-07
7.81103e-07
7.71673e-07
7.10116e-07
1.87649e-07
6.30594e-07
6.15825e-07
5.92039e-07
4.80524e-07
4.5276e-07
4.87645e-07
4.75889e-07
4.29182e-07
1.26211e-07
3.88178e-07
3.73724e-07
3.5784e-07
2.76883e-07
2.96701e-07
3.09099e-07
3.01347e-07
2.75576e-07
1.1105e-07
2.58801e-07
2.70141e-07
2.36678e-07
1.8028e-07
2.01034e-07
2.05454e-07
1.99502e-07
1.83183e-07
7.86473e-08
1.74298e-07
1.69997e-07
1.62933e-07
1.29899e-07
1.42462e-07
1.46295e-07
1.42095e-07
1.32178e-07
4.60173e-08
1.26166e-07
1.24292e-07
1.19471e-07
1.02353e-07
1.06437e-07
1.36702e-06
1.78647e-06
1.74328e-06
1.52901e-06
4.8988e-07
1.44389e-06
1.44154e-06
1.36401e-06
6.83522e-07
1.25797e-06
1.34868e-06
1.30267e-06
1.09249e-06
1.00463e-06
1.27634e-06
1.25837e-06
1.16765e-06
3.87162e-07
1.17733e-06
1.19051e-06
1.13041e-06
6.98136e-07
1.01391e-06
1.07201e-06
1.03936e-06
9.03826e-07
6.65935e-07
9.24964e-07
9.11019e-07
8.38132e-07
2.07133e-07
7.53627e-07
7.42629e-07
7.10787e-07
5.66296e-07
5.33771e-07
5.88658e-07
5.72875e-07
5.12744e-07
1.40088e-07
4.63863e-07
4.45955e-07
4.23576e-07
3.20101e-07
3.46307e-07
3.65982e-07
3.55252e-07
3.22011e-07
1.23316e-07
3.04322e-07
3.30582e-10
2.77523e-07
2.05393e-07
2.34385e-07
2.43522e-07
2.35549e-07
2.15254e-07
8.84748e-08
2.07756e-07
2.03995e-07
1.94099e-07
1.5133e-07
1.68616e-07
1.75658e-07
1.69917e-07
1.56939e-07
5.19548e-08
1.50075e-07
1.47806e-07
1.4118e-07
1.18239e-07
1.23225e-07
1.4876e-06
2.00604e-06
1.97554e-06
1.72035e-06
5.13524e-07
1.65962e-06
1.65819e-06
1.57672e-06
7.53947e-07
1.43641e-06
1.54845e-06
1.49949e-06
1.24239e-06
1.13078e-06
1.46311e-06
1.44763e-06
1.33482e-06
4.18202e-07
1.34249e-06
1.35833e-06
1.2893e-06
7.74089e-07
1.13817e-06
1.21176e-06
1.17583e-06
1.01186e-06
7.24562e-07
1.03467e-06
1.02561e-06
9.34375e-07
2.04302e-07
8.26804e-07
8.1742e-07
7.81755e-07
6.13357e-07
5.72266e-07
6.43065e-07
6.27505e-07
5.59147e-07
1.3375e-07
5.06469e-07
4.91386e-07
4.67877e-07
3.46468e-07
3.76861e-07
4.03864e-07
3.93293e-07
3.55567e-07
1.31643e-07
3.3665e-07
2.67912e-07
3.08728e-07
2.24739e-07
2.57116e-07
2.69381e-07
2.61291e-07
2.37753e-07
9.41604e-08
2.28074e-07
2.23774e-07
2.13349e-07
1.63404e-07
1.82499e-07
1.91779e-07
1.85916e-07
1.71178e-07
5.34083e-08
1.63472e-07
1.61662e-07
1.54688e-07
1.28494e-07
1.33812e-07
2.3624e-09
2.39746e-09
2.58617e-09
1.9123e-09
7.19521e-10
2.42422e-09
2.2181e-09
2.18624e-09
9.47356e-10
2.30468e-09
2.00323e-09
1.98531e-09
1.22075e-09
2.0246e-09
1.75969e-09
1.74195e-09
1.44347e-09
5.42964e-10
1.55234e-09
1.38536e-09
1.33572e-09
3.57008e-10
1.34259e-09
1.1449e-09
1.12959e-09
7.96871e-10
9.45152e-10
9.39668e-10
9.28522e-10
7.75152e-10
4.47455e-09
7.88214e-10
6.76652e-10
6.72146e-10
3.66821e-10
6.55168e-10
5.5089e-10
5.58458e-10
4.53129e-10
6.52957e-10
5.03052e-10
4.36889e-10
4.45402e-10
1.99744e-10
4.4509e-10
3.81325e-10
3.83534e-10
3.23893e-10
4.6276e-11
3.39184e-10
2.58012e-07
3.06483e-10
1.29205e-10
3.01128e-10
2.5387e-10
2.55328e-10
2.17969e-10
3.22171e-11
2.23318e-10
1.99868e-10
2.02845e-10
9.66165e-11
2.05198e-10
1.76197e-10
1.7654e-10
1.59813e-10
2.18031e-11
1.68429e-10
1.62833e-10
1.61562e-10
1.0899e-10
1.79781e-10
1.52665e-06
2.0371e-06
1.97742e-06
1.70131e-06
5.25145e-07
1.62725e-06
1.61639e-06
1.51534e-06
7.08573e-07
1.40119e-06
1.50632e-06
1.44568e-06
1.16294e-06
1.10188e-06
1.42532e-06
1.40027e-06
1.2834e-06
4.10634e-07
1.31906e-06
1.33735e-06
1.25952e-06
7.1378e-07
1.13505e-06
1.20712e-06
1.16531e-06
9.89193e-07
7.28735e-07
1.03867e-06
1.02085e-06
9.32063e-07
3.20543e-07
8.43186e-07
8.32151e-07
7.92779e-07
6.06727e-07
5.90091e-07
6.56376e-07
6.37205e-07
5.64428e-07
1.68004e-07
5.14361e-07
4.94271e-07
4.6694e-07
3.33863e-07
3.80534e-07
4.04306e-07
3.91369e-07
3.51187e-07
1.23974e-07
3.36389e-07
3.04827e-07
3.0547e-07
2.13043e-07
2.58595e-07
2.69808e-07
2.60279e-07
2.35915e-07
8.90485e-08
2.30021e-07
2.25939e-07
2.14012e-07
1.58298e-07
1.85305e-07
1.93499e-07
1.86713e-07
1.71251e-07
5.25259e-08
1.64315e-07
1.617e-07
1.53759e-07
1.24125e-07
1.33521e-07
1.27506e-06
1.78514e-06
1.76073e-06
1.50484e-06
5.38279e-07
1.46955e-06
1.47993e-06
1.39519e-06
6.37065e-07
1.26774e-06
1.38075e-06
1.33282e-06
1.05462e-06
9.82751e-07
1.30535e-06
1.29237e-06
1.17347e-06
4.32428e-07
1.19688e-06
1.21933e-06
1.15012e-06
6.31599e-07
1.01486e-06
1.09178e-06
1.05722e-06
8.85888e-07
6.27624e-07
9.34759e-07
9.2836e-07
8.39254e-07
3.08393e-07
7.48185e-07
7.44765e-07
7.10404e-07
5.33531e-07
5.14522e-07
5.89972e-07
5.75838e-07
5.08798e-07
1.81085e-07
4.66759e-07
4.56555e-07
4.33201e-07
3.01717e-07
3.47395e-07
3.76882e-07
3.66865e-07
3.2838e-07
1.20801e-07
3.15816e-07
3.07062e-07
2.89705e-07
1.97647e-07
2.41695e-07
2.55579e-07
2.47766e-07
2.23146e-07
8.54211e-08
2.17128e-07
2.13646e-07
2.03035e-07
1.46702e-07
1.73201e-07
1.83693e-07
1.77777e-07
1.62086e-07
5.49383e-08
1.56331e-07
1.55045e-07
1.47958e-07
1.18068e-07
1.2713e-07
1.4766e-06
2.18036e-06
2.12904e-06
1.78774e-06
6.83146e-07
1.71074e-06
1.72984e-06
1.60165e-06
6.96671e-07
1.43494e-06
1.60074e-06
1.53203e-06
1.17195e-06
1.06395e-06
1.50506e-06
1.48735e-06
1.33504e-06
5.23532e-07
1.38384e-06
1.42969e-06
1.33437e-06
6.96681e-07
1.16954e-06
1.29673e-06
1.25139e-06
1.02882e-06
7.02005e-07
1.11715e-06
1.10647e-06
9.99153e-07
3.69099e-07
9.0236e-07
9.11721e-07
8.65026e-07
6.31628e-07
6.04695e-07
7.22031e-07
7.03233e-07
6.13755e-07
2.35978e-07
5.627e-07
5.49585e-07
5.16162e-07
3.47481e-07
4.03684e-07
4.50022e-07
4.36199e-07
3.85048e-07
1.43894e-07
3.7374e-07
3.65309e-07
3.42055e-07
2.23741e-07
2.80605e-07
3.04872e-07
2.94426e-07
2.62814e-07
1.00859e-07
2.59252e-07
2.57438e-07
2.42539e-07
1.69141e-07
2.02923e-07
2.2027e-07
2.12834e-07
1.92681e-07
6.90415e-08
1.86001e-07
1.84863e-07
1.74857e-07
1.35006e-07
1.45379e-07
1.34459e-06
2.05994e-06
2.04499e-06
1.70416e-06
6.9311e-07
1.66804e-06
1.70607e-06
1.58993e-06
6.70837e-07
1.40044e-06
1.58096e-06
1.52098e-06
1.14991e-06
1.03024e-06
1.48779e-06
1.48034e-06
1.31821e-06
5.50947e-07
1.35767e-06
1.40885e-06
1.31656e-06
6.71394e-07
1.12803e-06
1.26504e-06
1.2239e-06
9.94161e-07
6.58898e-07
1.08112e-06
1.08294e-06
9.65919e-07
3.39345e-07
8.54532e-07
8.70361e-07
8.26797e-07
5.93173e-07
5.60433e-07
6.88366e-07
6.74327e-07
5.86732e-07
2.33271e-07
5.39418e-07
5.36522e-07
5.05988e-07
3.32358e-07
3.87715e-07
4.41458e-07
4.30442e-07
3.79001e-07
1.47258e-07
3.68326e-07
3.62187e-07
3.40059e-07
2.18547e-07
2.74073e-07
3.02064e-07
2.9309e-07
2.6007e-07
1.0236e-07
2.55288e-07
2.53978e-07
2.39963e-07
1.63933e-07
1.9722e-07
2.17999e-07
2.10871e-07
1.89593e-07
7.13378e-08
1.83302e-07
1.83833e-07
1.74659e-07
1.33137e-07
1.4271e-07
1.56858e-06
2.51278e-06
2.47905e-06
2.02596e-06
7.52167e-07
1.92565e-06
1.99272e-06
1.82134e-06
7.14688e-07
1.56557e-06
1.82996e-06
1.74693e-06
1.27531e-06
1.10832e-06
1.71021e-06
1.70488e-06
1.49556e-06
5.70263e-07
1.55771e-06
1.65012e-06
1.5237e-06
7.35119e-07
1.28537e-06
1.49949e-06
1.44718e-06
1.15056e-06
7.38586e-07
1.28645e-06
1.2888e-06
1.1466e-06
3.42365e-07
1.02505e-06
1.06655e-06
1.00692e-06
7.01666e-07
6.53818e-07
8.42683e-07
8.24892e-07
7.0669e-07
2.46831e-07
6.48503e-07
6.46773e-07
6.0325e-07
3.83432e-07
4.46953e-07
5.27871e-07
5.12923e-07
4.44199e-07
1.64274e-07
4.35452e-07
4.32921e-07
4.02404e-07
2.47851e-07
3.15922e-07
3.61057e-07
3.49324e-07
3.05983e-07
1.15977e-07
3.04447e-07
3.06685e-07
2.86918e-07
1.89098e-07
2.2897e-07
2.61151e-07
2.52793e-07
2.25158e-07
7.87087e-08
2.17989e-07
2.19582e-07
2.06242e-07
1.52157e-07
1.61944e-07
1.62925e-06
2.68927e-06
2.69114e-06
2.17322e-06
6.74212e-07
2.1205e-06
2.20732e-06
2.029e-06
7.37842e-07
1.71365e-06
2.02367e-06
1.93862e-06
1.40102e-06
1.20699e-06
1.88984e-06
1.89452e-06
1.64973e-06
5.34404e-07
1.71076e-06
1.81915e-06
1.67882e-06
7.8541e-07
1.38712e-06
1.63872e-06
1.58305e-06
1.24469e-06
7.80859e-07
1.39766e-06
1.41232e-06
1.23679e-06
2.78138e-07
1.07938e-06
1.13295e-06
1.06856e-06
7.31478e-07
6.70523e-07
8.86379e-07
8.71739e-07
7.42144e-07
1.95712e-07
6.81127e-07
6.90858e-07
6.45483e-07
4.00427e-07
4.66221e-07
5.62511e-07
5.49175e-07
4.73493e-07
1.61969e-07
4.63845e-07
4.64291e-07
4.31808e-07
2.62257e-07
3.32161e-07
3.85612e-07
3.74407e-07
3.26012e-07
1.15942e-07
3.21945e-07
3.25065e-07
3.04459e-07
1.97061e-07
2.37968e-07
2.76976e-07
2.67954e-07
2.36553e-07
7.14761e-08
2.28345e-07
2.32357e-07
2.19227e-07
1.59564e-07
1.68053e-07
8.37455e-10
1.94142e-09
2.11755e-09
1.01901e-09
4.24594e-09
2.19678e-09
1.89357e-09
1.68232e-09
3.36827e-09
2.09068e-09
1.7625e-09
1.62495e-09
6.16569e-10
1.2919e-09
1.56738e-09
1.45499e-09
9.55801e-10
3.45976e-09
1.40964e-09
1.17679e-09
1.02687e-09
7.31318e-10
1.19051e-09
9.78796e-10
9.17493e-10
3.96193e-10
3.62135e-10
8.46394e-10
7.9053e-10
5.45047e-10
1.01941e-08
7.23507e-10
5.62703e-10
5.37592e-10
1.31213e-10
4.62076e-10
4.65422e-10
4.64215e-10
2.96701e-10
2.89926e-09
4.61025e-10
3.68762e-10
3.65686e-10
7.99941e-11
3.9017e-10
3.30357e-10
3.23816e-10
2.17374e-10
1.88884e-10
3.10444e-10
2.51443e-10
2.40059e-10
5.52208e-11
2.73537e-10
2.17646e-10
2.119e-10
1.49036e-10
6.4823e-11
2.02952e-10
1.7295e-10
1.66091e-10
3.72783e-11
1.91472e-10
1.56766e-10
1.51606e-10
1.17877e-10
2.31826e-10
1.52022e-10
1.4054e-10
1.34106e-10
4.92378e-11
1.57334e-10
1.65534e-06
2.79729e-06
2.75256e-06
2.16583e-06
8.34108e-07
2.09766e-06
2.17854e-06
1.95342e-06
8.02362e-07
1.66669e-06
1.98975e-06
1.87971e-06
1.28539e-06
1.13989e-06
1.85449e-06
1.84528e-06
1.57436e-06
6.26757e-07
1.68852e-06
1.81071e-06
1.64434e-06
7.65883e-07
1.38091e-06
1.65203e-06
1.58371e-06
1.20207e-06
7.61127e-07
1.40995e-06
1.41405e-06
1.23491e-06
4.821e-07
1.11252e-06
1.17287e-06
1.09709e-06
7.16249e-07
6.87198e-07
9.19523e-07
8.9883e-07
7.5203e-07
2.83785e-07
6.98958e-07
7.02549e-07
6.46888e-07
3.81668e-07
4.70197e-07
5.70927e-07
5.53358e-07
4.67863e-07
1.71036e-07
4.69542e-07
4.7033e-07
4.32395e-07
2.46035e-07
3.34336e-07
3.9078e-07
3.76786e-07
3.22503e-07
1.1813e-07
3.26768e-07
3.3102e-07
3.06552e-07
1.8691e-07
2.39807e-07
2.79589e-07
2.69828e-07
2.35864e-07
8.30783e-08
2.30982e-07
2.33885e-07
2.17495e-07
1.50522e-07
1.66461e-07
1.34974e-06
2.34939e-06
2.36197e-06
1.835e-06
8.41893e-07
1.82801e-06
1.93714e-06
1.74748e-06
7.10383e-07
1.45225e-06
1.76735e-06
1.68137e-06
1.13383e-06
9.95964e-07
1.64677e-06
1.65525e-06
1.39727e-06
6.5726e-07
1.48393e-06
1.60682e-06
1.46094e-06
6.70063e-07
1.19059e-06
1.45219e-06
1.39818e-06
1.0458e-06
6.53961e-07
1.23768e-06
1.26024e-06
1.08313e-06
4.38876e-07
9.49446e-07
1.01631e-06
9.52253e-07
6.08037e-07
5.74171e-07
7.97898e-07
7.86514e-07
6.55348e-07
2.88291e-07
6.10805e-07
6.31137e-07
5.84837e-07
3.33986e-07
4.11092e-07
5.14553e-07
5.02705e-07
4.22999e-07
1.74122e-07
4.2449e-07
4.29947e-07
3.96207e-07
2.21217e-07
2.98868e-07
3.57669e-07
3.47058e-07
2.94853e-07
1.19629e-07
2.97428e-07
3.03183e-07
2.81537e-07
1.67756e-07
2.15322e-07
2.58693e-07
2.5057e-07
2.15834e-07
8.76708e-08
2.11556e-07
2.17774e-07
2.03886e-07
1.38328e-07
1.51253e-07
1.62014e-06
2.89034e-06
2.9081e-06
2.20791e-06
9.12976e-07
2.10003e-06
2.26982e-06
2.00121e-06
7.32635e-07
1.60233e-06
2.04715e-06
1.93347e-06
1.25057e-06
1.06523e-06
1.88359e-06
1.90897e-06
1.57726e-06
6.71657e-07
1.68484e-06
1.88441e-06
1.68757e-06
7.17387e-07
1.33502e-06
1.72228e-06
1.65675e-06
1.20642e-06
7.41325e-07
1.46267e-06
1.50049e-06
1.2839e-06
4.33449e-07
1.13346e-06
1.25555e-06
1.16765e-06
7.21817e-07
6.67506e-07
9.81679e-07
9.70681e-07
7.91339e-07
3.05023e-07
7.32289e-07
7.61171e-07
6.96714e-07
3.84918e-07
4.68032e-07
6.17145e-07
6.02234e-07
4.95326e-07
1.93668e-07
5.00239e-07
5.16759e-07
4.70327e-07
2.49505e-07
3.39273e-07
4.28114e-07
4.15092e-07
3.45728e-07
1.35517e-07
3.52531e-07
3.66863e-07
3.36502e-07
1.92046e-07
2.44913e-07
3.0796e-07
2.98962e-07
2.54549e-07
9.56163e-08
2.50378e-07
2.59601e-07
2.39515e-07
1.56949e-07
1.68542e-07
1.62713e-06
2.98554e-06
3.05622e-06
2.28777e-06
7.15851e-07
2.24865e-06
2.4547e-06
2.17898e-06
6.89179e-07
1.70926e-06
2.20404e-06
2.09318e-06
1.3445e-06
1.14315e-06
2.02943e-06
2.07297e-06
1.70212e-06
5.56566e-07
1.80481e-06
2.0287e-06
1.81818e-06
7.287e-07
1.40753e-06
1.83766e-06
1.7733e-06
1.27946e-06
7.68987e-07
1.56124e-06
1.61883e-06
1.36016e-06
3.08086e-07
1.15984e-06
1.30025e-06
1.20949e-06
7.34244e-07
6.68482e-07
1.00507e-06
1.0012e-06
8.10695e-07
2.12809e-07
7.49166e-07
7.99553e-07
7.32573e-07
3.92089e-07
4.76679e-07
6.42694e-07
6.31397e-07
5.17053e-07
1.72985e-07
5.20422e-07
5.4294e-07
4.94316e-07
2.58261e-07
3.48475e-07
4.47602e-07
4.36256e-07
3.61371e-07
1.24407e-07
3.64342e-07
3.81115e-07
3.50064e-07
1.96199e-07
2.49197e-07
3.21828e-07
3.13473e-07
2.64435e-07
7.7065e-08
2.56385e-07
2.70665e-07
2.51272e-07
1.61935e-07
1.70856e-07
4.37212e-10
1.80587e-09
1.95896e-09
5.01624e-10
1.63969e-08
2.10591e-09
1.81555e-09
1.35059e-09
8.94606e-09
1.78885e-09
1.71986e-09
1.41606e-09
4.73696e-10
8.48011e-10
1.55676e-09
1.32208e-09
6.42353e-10
1.32694e-08
1.38147e-09
1.1433e-09
8.39626e-10
2.47903e-09
1.00433e-09
9.69105e-10
8.27674e-10
2.11272e-10
2.79897e-10
8.59678e-10
7.57572e-10
3.96767e-10
1.97266e-08
6.8977e-10
5.36659e-10
4.69538e-10
6.86987e-11
2.63943e-10
4.53146e-10
4.3028e-10
1.90512e-10
8.78987e-09
4.54651e-10
3.55547e-10
3.23483e-10
8.61897e-11
3.0234e-10
3.21333e-10
2.97421e-10
1.43272e-10
1.32165e-09
3.10303e-10
2.35441e-10
2.03578e-10
7.78445e-11
2.32818e-10
2.14433e-10
1.95982e-10
1.03568e-10
5.97662e-10
2.06142e-10
1.69625e-10
1.48959e-10
3.74732e-11
1.64804e-10
1.58168e-10
1.44942e-10
9.02629e-11
1.2553e-09
1.51467e-10
1.37377e-10
1.21675e-10
2.80127e-11
1.24349e-10
1.68253e-06
3.12374e-06
3.15077e-06
2.27356e-06
1.05845e-06
2.2057e-06
2.41474e-06
2.07124e-06
8.61698e-07
1.63011e-06
2.16073e-06
2.01412e-06
1.2196e-06
1.0552e-06
1.97605e-06
2.0067e-06
1.59207e-06
7.69927e-07
1.75714e-06
2.01181e-06
1.75792e-06
7.74016e-07
1.37103e-06
1.84626e-06
1.76302e-06
1.212e-06
7.5231e-07
1.55728e-06
1.60799e-06
1.33721e-06
5.86154e-07
1.18837e-06
1.35131e-06
1.2406e-06
7.16445e-07
6.7438e-07
1.04588e-06
1.03527e-06
8.14809e-07
3.61201e-07
7.66063e-07
8.08577e-07
7.25973e-07
3.77917e-07
4.73653e-07
6.54168e-07
6.37394e-07
5.05728e-07
2.13969e-07
5.25893e-07
5.52509e-07
4.94514e-07
2.4602e-07
3.45747e-07
4.54209e-07
4.39197e-07
3.52842e-07
1.46161e-07
3.68362e-07
3.88442e-07
3.50888e-07
1.86096e-07
2.46244e-07
3.22685e-07
3.12654e-07
2.58144e-07
1.06868e-07
2.57862e-07
2.71101e-07
2.47178e-07
1.50511e-07
1.66341e-07
1.55399e-06
2.89722e-06
2.9887e-06
2.11732e-06
1.0284e-06
2.12561e-06
2.3872e-06
2.05181e-06
7.94589e-07
1.56413e-06
2.11228e-06
1.98368e-06
1.18533e-06
1.03818e-06
1.92803e-06
1.98179e-06
1.55616e-06
7.75758e-07
1.69794e-06
1.96921e-06
1.72179e-06
7.31322e-07
1.30431e-06
1.79063e-06
1.71848e-06
1.16445e-06
7.32379e-07
1.51387e-06
1.59216e-06
1.29496e-06
5.08576e-07
1.10569e-06
1.28245e-06
1.17786e-06
6.6291e-07
6.1768e-07
9.84197e-07
9.84121e-07
7.67798e-07
3.35275e-07
7.20376e-07
7.91554e-07
7.13627e-07
3.54104e-07
4.43787e-07
6.31501e-07
6.20785e-07
4.89068e-07
2.16856e-07
5.06005e-07
5.40048e-07
4.83429e-07
2.35365e-07
3.28495e-07
4.42974e-07
4.31371e-07
3.43766e-07
1.49897e-07
3.55479e-07
3.78665e-07
3.42386e-07
1.77191e-07
2.34207e-07
3.18256e-07
3.10196e-07
2.52146e-07
1.06185e-07
2.49557e-07
2.68089e-07
2.45686e-07
1.45736e-07
1.5822e-07
1.72984e-11
1.77031e-09
1.86909e-09
5.14027e-10
4.20962e-09
2.32737e-09
1.77866e-09
1.34008e-09
1.33904e-09
1.98962e-09
1.73642e-09
1.36215e-09
7.71755e-10
4.69097e-10
1.61174e-09
1.25437e-09
7.06671e-10
2.28125e-09
1.51829e-09
1.14674e-09
8.19226e-10
9.30023e-10
1.20552e-09
1.00692e-09
8.00325e-10
3.29836e-10
4.66716e-12
9.34359e-10
7.50998e-10
3.87554e-10
5.81302e-12
8.28555e-10
5.44694e-10
4.5121e-10
1.51544e-10
2.55662e-10
4.72353e-10
4.23754e-10
1.8704e-10
1.68449e-09
5.16628e-10
3.56022e-10
3.1194e-10
1.52246e-10
3.58004e-10
3.30947e-10
2.91997e-10
1.48971e-10
7.14061e-10
3.48574e-10
2.35246e-10
1.95734e-10
1.29505e-10
2.88132e-10
2.23399e-10
1.91334e-10
1.06359e-10
4.79695e-10
2.30591e-10
1.7413e-10
1.42952e-10
7.62875e-11
2.03008e-10
1.66347e-10
1.43148e-10
8.88667e-11
4.83894e-10
1.68965e-10
1.3938e-10
1.17577e-10
5.06016e-11
1.47468e-10
1.55139e-06
3.08015e-06
3.10953e-06
2.13781e-06
8.58328e-07
2.11206e-06
2.34648e-06
1.94877e-06
8.19925e-07
1.50935e-06
2.07774e-06
1.90477e-06
1.0982e-06
9.39612e-07
1.88154e-06
1.91272e-06
1.45526e-06
6.09816e-07
1.66032e-06
1.95304e-06
1.65698e-06
7.35466e-07
1.27661e-06
1.80135e-06
1.7048e-06
1.11421e-06
6.75316e-07
1.5156e-06
1.57619e-06
1.27207e-06
5.15194e-07
1.14301e-06
1.34057e-06
1.21181e-06
6.65218e-07
6.27072e-07
1.03063e-06
1.02098e-06
7.7523e-07
2.87891e-07
7.42897e-07
7.98108e-07
7.00688e-07
3.51836e-07
4.44945e-07
6.45416e-07
6.27481e-07
4.78744e-07
1.78993e-07
5.13672e-07
5.50916e-07
4.83052e-07
2.30815e-07
3.27962e-07
4.50116e-07
4.34009e-07
3.35265e-07
1.22695e-07
3.60068e-07
3.86255e-07
3.42506e-07
1.72633e-07
2.32212e-07
3.17933e-07
3.07493e-07
2.45453e-07
8.66405e-08
2.49147e-07
2.67386e-07
2.4039e-07