/*--------------------------------*- C++ -*----------------------------------*\
| =========                 |                                                 |
| \\      /  F ield         | OpenFOAM: The Open Source CFD Toolbox           |
|  \\    /   O peration     | Version:  v2012                                 |
|   \\  /    A nd           | Website:  www.openfoam.com                      |
|    \\/     M anipulation  |                                                 |
\*---------------------------------------------------------------------------*/
FoamFile
{
    version     2.0;
    format      ascii;
    class       volScalarField;
    location    "1e-06";
    object      nut;
}
// * * * * * * * * * * * * * * * * * * * * * * * * * * * * * * * * * * * * * //

dimensions      [0 2 -1 0 0 0 0];


internalField   nonuniform List<scalar> 
10203
(
3.69481e-06
3.29092e-06
3.11964e-06
3.43256e-06
3.58173e-06
3.39684e-06
3.07665e-06
3.34592e-06
3.63495e-06
3.54069e-06
3.20181e-06
3.27212e-06
3.62225e-06
3.70779e-06
3.33508e-06
3.17453e-06
3.50826e-06
3.69972e-06
3.45196e-06
3.09861e-06
3.36971e-06
3.69241e-06
3.56628e-06
3.17981e-06
3.18605e-06
3.50835e-06
3.64103e-06
3.21276e-06
2.9469e-06
3.22926e-06
3.27122e-06
3.22472e-06
2.84474e-06
2.95913e-06
3.2261e-06
3.1942e-06
2.80564e-06
2.65686e-06
2.89572e-06
2.8194e-06
2.75329e-06
2.38844e-06
2.54696e-06
2.77452e-06
2.68161e-06
2.33894e-06
2.24855e-06
2.48603e-06
2.6832e-06
2.35295e-06
2.0504e-06
2.23285e-06
2.48165e-06
2.41466e-06
2.1616e-06
2.10714e-06
2.35081e-06
2.57587e-06
2.33876e-06
2.1154e-06
2.27908e-06
2.52177e-06
2.48037e-06
2.24009e-06
2.17379e-06
2.40072e-06
2.55644e-06
2.37656e-06
2.15164e-06
2.29348e-06
2.56534e-06
2.62844e-06
6.19921e-06
6.22721e-06
6.26686e-06
6.04398e-06
5.86359e-06
6.13849e-06
6.31082e-06
6.1095e-06
5.76854e-06
6.19887e-06
6.38657e-06
6.3094e-06
6.14534e-06
6.30402e-06
6.4753e-06
6.52352e-06
6.32143e-06
6.20213e-06
6.45295e-06
6.6285e-06
6.4233e-06
6.0788e-06
6.36098e-06
6.47363e-06
6.41786e-06
6.17374e-06
6.18749e-06
6.26616e-06
6.3592e-06
6.07437e-06
5.31308e-06
5.97506e-06
6.05241e-06
5.91874e-06
5.60275e-06
5.60991e-06
5.65645e-06
5.68553e-06
5.4072e-06
5.06399e-06
5.30777e-06
5.3581e-06
5.19152e-06
4.87979e-06
4.95617e-06
5.04004e-06
5.04556e-06
4.80103e-06
4.70814e-06
4.74271e-06
4.75261e-06
4.61939e-06
4.34944e-06
4.42833e-06
4.50914e-06
4.5096e-06
4.31826e-06
4.30088e-06
4.38686e-06
4.49472e-06
4.36376e-06
4.19407e-06
4.31088e-06
4.43446e-06
4.45514e-06
4.32898e-06
4.25186e-06
4.42427e-06
4.56523e-06
4.45445e-06
4.33257e-06
4.5049e-06
1.4367e-05
1.43368e-05
1.43533e-05
1.40037e-05
1.32158e-05
1.41498e-05
1.43995e-05
1.41387e-05
1.35512e-05
1.44396e-05
1.476e-05
1.46628e-05
1.44978e-05
1.48422e-05
1.51282e-05
1.5176e-05
1.49749e-05
1.4313e-05
1.52359e-05
1.54476e-05
1.51863e-05
1.46148e-05
1.51546e-05
1.52841e-05
1.51989e-05
1.48774e-05
1.49224e-05
1.50763e-05
1.51672e-05
1.48043e-05
1.30695e-05
1.46195e-05
1.46699e-05
1.44775e-05
1.39463e-05
1.3952e-05
1.39486e-05
1.39564e-05
1.35397e-05
1.22344e-05
1.33533e-05
1.33608e-05
1.31254e-05
1.26287e-05
1.28005e-05
1.28737e-05
1.28551e-05
1.24825e-05
1.20312e-05
1.22665e-05
4.80761e-06
1.19184e-05
1.13715e-05
1.14346e-05
1.14298e-05
1.14021e-05
1.10459e-05
1.07621e-05
1.10594e-05
1.11886e-05
1.09935e-05
1.06985e-05
1.09628e-05
1.11633e-05
1.11847e-05
1.10205e-05
1.05466e-05
1.12157e-05
1.14023e-05
1.12383e-05
1.10061e-05
1.12515e-05
1.49266e-05
1.4708e-05
1.47097e-05
1.43714e-05
1.52367e-05
1.45113e-05
1.47484e-05
1.44864e-05
1.43349e-05
1.48283e-05
1.51204e-05
1.50168e-05
1.49216e-05
1.53343e-05
1.55024e-05
1.55388e-05
1.53571e-05
1.64299e-05
1.5617e-05
1.58146e-05
1.55503e-05
1.52397e-05
1.55521e-05
1.56409e-05
1.55473e-05
1.52601e-05
1.54825e-05
1.54252e-05
1.55029e-05
1.51442e-05
1.5145e-05
1.49592e-05
1.49857e-05
1.47864e-05
1.43107e-05
1.43234e-05
1.42365e-05
1.42343e-05
1.38219e-05
1.48481e-05
1.3624e-05
1.3615e-05
1.33741e-05
1.29606e-05
1.30835e-05
1.31102e-05
1.30835e-05
1.27179e-05
1.31568e-05
1.24848e-05
1.2284e-05
1.21158e-05
1.16521e-05
1.16472e-05
1.16062e-05
1.15716e-05
1.12204e-05
1.16188e-05
1.12244e-05
1.13465e-05
1.11473e-05
1.09236e-05
1.11459e-05
1.13173e-05
1.13331e-05
1.11769e-05
1.193e-05
1.13704e-05
1.15497e-05
1.1382e-05
1.1194e-05
1.14293e-05
2.63979e-05
2.60886e-05
2.60407e-05
2.56034e-05
2.57876e-05
2.58244e-05
2.61086e-05
2.58142e-05
2.53962e-05
2.64057e-05
2.67883e-05
2.66687e-05
2.65924e-05
2.72224e-05
2.74748e-05
2.74907e-05
2.73547e-05
2.77853e-05
2.77757e-05
2.80036e-05
2.77116e-05
2.71889e-05
2.78259e-05
2.79323e-05
2.78104e-05
2.74952e-05
2.78174e-05
2.78034e-05
2.78458e-05
2.74505e-05
2.6382e-05
2.71862e-05
2.71211e-05
2.68699e-05
2.61823e-05
2.61981e-05
2.598e-05
2.59247e-05
2.53749e-05
2.52995e-05
2.50174e-05
2.48765e-05
2.45815e-05
2.39794e-05
2.41731e-05
2.41133e-05
2.40434e-05
2.35676e-05
2.36254e-05
2.31532e-05
2.28664e-05
2.25431e-05
2.18394e-05
2.18832e-05
2.1769e-05
2.17003e-05
2.12654e-05
2.14852e-05
2.13237e-05
2.1473e-05
2.12343e-05
2.09245e-05
2.13357e-05
2.15348e-05
2.15312e-05
2.13465e-05
2.16619e-05
2.15786e-05
2.17259e-05
2.15156e-05
2.11929e-05
2.14816e-05
4.05175e-05
4.02511e-05
4.01495e-05
3.95924e-05
3.83243e-05
3.99119e-05
4.02442e-05
3.9909e-05
3.89308e-05
4.07353e-05
4.12223e-05
4.10812e-05
4.09658e-05
4.18018e-05
4.2243e-05
4.22385e-05
4.21414e-05
4.11537e-05
4.28146e-05
4.31136e-05
4.27905e-05
4.18911e-05
4.30835e-05
4.32686e-05
4.31183e-05
4.27608e-05
4.30881e-05
4.32774e-05
4.32805e-05
4.28336e-05
3.98174e-05
4.24666e-05
4.22956e-05
4.19828e-05
4.09985e-05
4.10035e-05
4.06731e-05
4.05543e-05
3.98243e-05
3.76672e-05
3.92653e-05
3.89572e-05
3.85962e-05
3.76989e-05
3.79987e-05
3.78661e-05
3.77479e-05
3.71488e-05
3.62442e-05
3.6603e-05
3.61703e-05
3.57822e-05
3.47978e-05
3.50392e-05
3.49354e-05
3.48381e-05
3.43744e-05
3.39362e-05
3.46115e-05
3.48081e-05
3.45358e-05
3.4075e-05
3.47376e-05
3.49493e-05
3.49136e-05
3.46674e-05
3.37094e-05
3.48771e-05
3.49527e-05
3.46953e-05
3.41671e-05
3.45351e-05
4.20881e-05
4.13754e-05
4.12372e-05
4.07112e-05
4.23158e-05
4.10087e-05
4.13013e-05
4.09721e-05
4.09695e-05
4.18913e-05
4.23016e-05
4.21493e-05
4.22006e-05
4.31936e-05
4.33532e-05
4.33222e-05
4.3277e-05
4.52921e-05
4.39508e-05
4.42148e-05
4.38929e-05
4.36053e-05
4.4278e-05
4.43639e-05
4.41975e-05
4.39312e-05
4.4681e-05
4.43621e-05
4.43314e-05
4.38993e-05
4.40682e-05
4.35247e-05
4.32843e-05
4.29591e-05
4.21105e-05
4.21268e-05
4.158e-05
4.14357e-05
4.07154e-05
4.21805e-05
4.0114e-05
3.97542e-05
3.93844e-05
3.8689e-05
3.88628e-05
3.86079e-05
3.84715e-05
3.78918e-05
3.88253e-05
3.73017e-05
3.68287e-05
3.6433e-05
3.56679e-05
3.57429e-05
3.5547e-05
3.54338e-05
3.49934e-05
3.61518e-05
3.52115e-05
3.53858e-05
3.5109e-05
3.48442e-05
3.53886e-05
3.5512e-05
3.54613e-05
3.52348e-05
3.68052e-05
3.54257e-05
3.54728e-05
3.52086e-05
3.47963e-05
3.51325e-05
5.89226e-05
5.82943e-05
5.80953e-05
5.74205e-05
5.72267e-05
5.7821e-05
5.81557e-05
5.77714e-05
5.69861e-05
5.89234e-05
5.94473e-05
5.92674e-05
5.92439e-05
6.04896e-05
6.08962e-05
6.08465e-05
6.08491e-05
6.11264e-05
6.1896e-05
6.22741e-05
6.19159e-05
6.11458e-05
6.25747e-05
6.27819e-05
6.25844e-05
6.22634e-05
6.30104e-05
6.29548e-05
6.28798e-05
6.23759e-05
6.02432e-05
6.18817e-05
6.15222e-05
6.11232e-05
5.99038e-05
5.9919e-05
5.92494e-05
5.90318e-05
5.80908e-05
5.71676e-05
5.72566e-05
5.66977e-05
5.62459e-05
5.51683e-05
5.54991e-05
5.51819e-05
5.49941e-05
5.42874e-05
5.40029e-05
5.36517e-05
5.30706e-05
5.2609e-05
5.15428e-05
5.19646e-05
5.18456e-05
5.17083e-05
5.12795e-05
5.15799e-05
5.17746e-05
5.20034e-05
5.16885e-05
5.12031e-05
5.20508e-05
5.21584e-05
5.20626e-05
5.17331e-05
5.15941e-05
5.18591e-05
5.18136e-05
5.14937e-05
5.08273e-05
5.13063e-05
6.11954e-05
5.99325e-05
5.96802e-05
5.90583e-05
6.25144e-05
5.9415e-05
5.96869e-05
5.93174e-05
5.99978e-05
6.05974e-05
6.10043e-05
6.08111e-05
6.10487e-05
6.24956e-05
6.24985e-05
6.2411e-05
6.2498e-05
6.66111e-05
6.35466e-05
6.38734e-05
6.35231e-05
6.3711e-05
6.4324e-05
6.43849e-05
6.41662e-05
6.39937e-05
6.53278e-05
6.4546e-05
6.44203e-05
6.39432e-05
6.57789e-05
6.34348e-05
6.29703e-05
6.25563e-05
6.1556e-05
6.15669e-05
6.05784e-05
6.03236e-05
5.94019e-05
6.29849e-05
5.85006e-05
5.78627e-05
5.74014e-05
5.66464e-05
5.67668e-05
5.62687e-05
5.60549e-05
5.53845e-05
5.7551e-05
5.46874e-05
5.40495e-05
5.35811e-05
5.28769e-05
5.3028e-05
5.27736e-05
5.26142e-05
5.22295e-05
5.47198e-05
5.26961e-05
5.28888e-05
5.25704e-05
5.24045e-05
5.30468e-05
5.30169e-05
5.28985e-05
5.26005e-05
5.58082e-05
5.26905e-05
5.25991e-05
5.22718e-05
5.17946e-05
5.2212e-05
8.24194e-05
8.13684e-05
8.10268e-05
8.01492e-05
8.06008e-05
8.06113e-05
8.09304e-05
8.04531e-05
7.97814e-05
8.199e-05
8.25697e-05
8.23214e-05
8.2382e-05
8.4168e-05
8.45913e-05
8.44765e-05
8.46084e-05
8.58471e-05
8.62207e-05
8.67285e-05
8.63039e-05
8.56477e-05
8.74759e-05
8.77288e-05
8.74539e-05
8.71455e-05
8.83774e-05
8.8059e-05
8.78709e-05
8.72579e-05
8.56437e-05
8.65753e-05
8.59665e-05
8.54354e-05
8.38651e-05
8.38888e-05
8.27868e-05
8.243e-05
8.11875e-05
8.08024e-05
7.99826e-05
7.90922e-05
7.85035e-05
7.71554e-05
7.75568e-05
7.70273e-05
7.67441e-05
7.591e-05
7.62001e-05
7.52599e-05
7.45393e-05
7.39749e-05
7.28254e-05
7.35504e-05
7.34428e-05
7.32468e-05
7.287e-05
7.39497e-05
7.36975e-05
7.3942e-05
7.35538e-05
7.29894e-05
7.40538e-05
7.39916e-05
7.38022e-05
7.33288e-05
7.38539e-05
7.33213e-05
7.31235e-05
7.27113e-05
7.18725e-05
7.25464e-05
0.000106605
0.000106271
0.000105846
0.000104596
0.000100849
0.000105174
0.000105592
0.000104955
0.000102187
0.000106701
0.000107602
0.000107284
0.000106989
0.000108996
0.000110284
0.00011016
0.000110307
0.00010744
0.000112662
0.000113456
0.00011292
0.000110862
0.000114454
0.000115066
0.000114725
0.000114138
0.000114761
0.000115563
0.000115325
0.000114504
0.000107411
0.000113597
0.000112892
0.000112213
0.000109801
0.000109775
0.000108796
0.000108332
0.00010667
0.000100864
0.000105134
0.000103999
0.000103246
0.000100994
0.000101837
0.000101453
0.000101101
0.00010006
9.71599e-05
9.96004e-05
9.8865e-05
9.81797e-05
9.62993e-05
9.78806e-05
9.80918e-05
9.78593e-05
9.74499e-05
9.57261e-05
9.87165e-05
9.90307e-05
9.85399e-05
9.72552e-05
9.89065e-05
9.89112e-05
9.86406e-05
9.79065e-05
9.42701e-05
9.78165e-05
9.75464e-05
9.70265e-05
9.56373e-05
9.66845e-05
0.000110936
0.000109412
0.00010888
0.000107714
0.000108349
0.000108217
0.000108501
0.00010789
0.000107224
0.000109887
0.00011055
0.000110206
0.000110351
0.00011282
0.000113333
0.000113135
0.000113443
0.000115307
0.000115843
0.00011654
0.00011602
0.000115452
0.000117868
0.000118188
0.000117805
0.000117481
0.000119244
0.000118666
0.000118326
0.000117552
0.000115964
0.000116632
0.000115713
0.000115005
0.000112966
0.000113008
0.000111388
0.00011085
0.000109222
0.000108798
0.000107566
0.000106271
0.000105501
0.000103797
0.000104338
0.000103587
0.000103184
0.000102221
0.00010295
0.00010168
0.000100839
0.000100145
9.89061e-05
0.000100081
0.000100011
9.97346e-05
9.9419e-05
0.000101179
0.000100642
0.000100873
0.000100378
9.96553e-05
0.000100983
0.000100684
0.000100365
9.96881e-05
0.000100575
9.95259e-05
9.91574e-05
9.86243e-05
9.75872e-05
9.85766e-05
0.00013795
0.000137517
0.000136905
0.000135254
0.000131103
0.0001359
0.000136327
0.000135507
0.000132074
0.000137697
0.000138815
0.00013839
0.000138015
0.000140673
0.000142421
0.000142231
0.000142536
0.000139686
0.000145873
0.000146955
0.00014629
0.000143791
0.000148516
0.00014934
0.000148878
0.000148138
0.000148944
0.000149996
0.000149618
0.000148575
0.000140588
0.00014742
0.000146455
0.00014557
0.000142438
0.000142428
0.000141139
0.00014049
0.000138355
0.00013194
0.00013638
0.000134859
0.000133892
0.000130985
0.000132178
0.000131742
0.000131273
0.000130076
0.000126761
0.000129904
0.000129115
0.000128276
0.000126013
0.000128356
0.00012875
0.000128434
0.000128036
0.000126042
0.000129769
0.00013008
0.000129449
0.00012768
0.000129796
0.000129658
0.00012925
0.00012824
0.000123993
0.000128058
0.000127667
0.000127008
0.000125243
0.000126775
0.000143501
0.00014147
0.000140713
0.000139193
0.000139862
0.00013973
0.000139965
0.000139191
0.000138497
0.000141726
0.000142505
0.000142049
0.000142297
0.000145571
0.000146254
0.000145964
0.000146504
0.000148947
0.000149907
0.000150848
0.000150218
0.000149747
0.00015289
0.000153297
0.000152782
0.000152422
0.000154747
0.000153937
0.000153417
0.000152451
0.000150755
0.000151294
0.000150029
0.000149113
0.000146523
0.000146613
0.000144433
0.000143683
0.000141613
0.000140972
0.000139485
0.000137743
0.000136762
0.000134642
0.00013542
0.000134468
0.000133932
0.000132861
0.000133915
0.000132592
0.000131659
0.000130818
0.000129481
0.000131255
0.000131244
0.00013087
0.000130615
0.000132893
0.000132282
0.000132472
0.000131839
0.000130876
0.000132529
0.000131955
0.000131482
0.00013056
0.000131543
0.000130283
0.000129754
0.000129083
0.000127837
0.000129293
0.000174593
0.000174293
0.000173456
0.000171246
0.000165888
0.000171971
0.000172442
0.000171361
0.000166826
0.000174053
0.00017553
0.000174962
0.00017439
0.000177766
0.000180322
0.00018006
0.000180529
0.000176986
0.000185133
0.000186612
0.000185759
0.000182463
0.000188764
0.000189924
0.000189302
0.00018827
0.000189042
0.000190723
0.000190182
0.000188827
0.000178965
0.000187381
0.000186151
0.000184998
0.000180872
0.000180871
0.000179385
0.000178512
0.000175774
0.000167641
0.000173319
0.000171388
0.000170145
0.000166319
0.000168049
0.000167694
0.000167086
0.000165696
0.000161399
0.000165997
0.000165149
0.000164148
0.000161265
0.000164636
0.000165317
0.000164889
0.000164437
0.000161578
0.000166705
0.000167001
0.000166171
0.000163643
0.000166396
0.000166169
0.000165589
0.000164221
0.000158599
0.000164018
0.000163543
0.000162703
0.000160416
0.000162627
0.000181589
0.000179215
0.000178181
0.000176158
0.000176147
0.000176741
0.000176941
0.000175931
0.000174786
0.000179098
0.000180102
0.000179496
0.000179764
0.000183961
0.000185095
0.000184695
0.000185495
0.000187904
0.000190194
0.000191474
0.000190676
0.000189993
0.000194305
0.000194881
0.000194189
0.000193682
0.000196415
0.000195667
0.000194928
0.000193692
0.000191129
0.000192265
0.000190623
0.000189434
0.000186059
0.000186218
0.000183516
0.000182508
0.000179875
0.000178312
0.000177236
0.000175004
0.000173749
0.000170996
0.000172204
0.00017113
0.000170433
0.000169234
0.000170047
0.000169423
0.000166817
0.000167382
0.000165765
0.000168396
0.000168501
0.000167993
0.000167747
0.000169939
0.000169922
0.000170042
0.000169218
0.000167788
0.000169935
0.000169089
0.000168423
0.000167187
0.000167574
0.000166865
0.000166198
0.000165349
0.000163794
0.000165926
0.000216915
0.000217177
0.000216087
0.0002131
0.00020532
0.000213938
0.000214534
0.000213085
0.000206774
0.000216309
0.000218385
0.000217628
0.000216652
0.00022075
0.000224666
0.000224335
0.000224936
0.00021954
0.000231133
0.000233167
0.000232035
0.000227374
0.000235843
0.000237564
0.000236732
0.000235185
0.000235532
0.000238477
0.000237762
0.00023597
0.000222686
0.000234174
0.000232727
0.000231225
0.000225715
0.000225678
0.000224265
0.000223133
0.000219616
0.000208129
0.000216668
0.000214341
0.000212739
0.000207595
0.000210107
0.000210082
0.000209311
0.000207653
0.000201447
0.000208646
0.000168404
0.000206554
0.000202655
0.000207386
0.000208541
0.000207965
0.00020734
0.000202668
0.00021023
0.000210524
0.000209417
0.000205718
0.000209353
0.000209193
0.000208406
0.000206571
0.000198353
0.000206471
0.000205985
0.000204908
0.000201853
0.000204962
0.000223201
0.00022045
0.000219116
0.000216565
0.000216338
0.000217229
0.000217408
0.000216146
0.000214697
0.000220062
0.000221342
0.000220582
0.000220919
0.000226139
0.000227826
0.000227315
0.000228436
0.000231338
0.000234629
0.000236297
0.000235323
0.000234513
0.000240034
0.000240799
0.000239914
0.000239248
0.000242393
0.000241777
0.000240802
0.00023928
0.000236273
0.000237629
0.000235602
0.000234119
0.000229904
0.000230166
0.000226973
0.000225686
0.000222461
0.000220458
0.000219365
0.000216654
0.000215104
0.00021166
0.00021344
0.000212329
0.000211463
0.000210163
0.000210731
0.000211007
0.000208177
0.000208707
0.000206725
0.000210377
0.000210639
0.00020998
0.000209708
0.000211628
0.000212443
0.000212481
0.000211437
0.000209406
0.000212183
0.000211102
0.000210227
0.000208658
0.000208404
0.00020844
0.000207692
0.000206651
0.000204742
0.000207753
0.00022954
0.000223618
0.000222054
0.000220045
0.000227422
0.000220401
0.000220154
0.000219138
0.000223082
0.000223685
0.000224165
0.000223429
0.000225409
0.000231457
0.000230845
0.000230165
0.000231911
0.00024328
0.000237978
0.000239274
0.000238507
0.000242328
0.000244081
0.000243883
0.000242967
0.000243395
0.000249315
0.000244941
0.000243713
0.000242524
0.000247665
0.000240971
0.000238364
0.000236926
0.00023435
0.000234575
0.000229584
0.000228151
0.000225287
0.000231687
0.000221975
0.000218874
0.000217402
0.000216105
0.000216679
0.000214484
0.000213531
0.000212661
0.000220713
0.000213271
0.00021191
0.000210784
0.000211231
0.000213255
0.000212631
0.000211898
0.000212052
0.000221314
0.000214556
0.000214339
0.00021338
0.000213463
0.000214913
0.000212928
0.000211971
0.000210726
0.000218921
0.000210332
0.000209323
0.000208335
0.000207858
0.000210452
0.000270645
0.000268009
0.000266341
0.000263021
0.000262026
0.000263834
0.00026408
0.000262444
0.000260017
0.000267157
0.000268972
0.000268004
0.000268165
0.000274414
0.000277263
0.000276638
0.000278028
0.000280966
0.000286063
0.000288276
0.00028702
0.000285453
0.000292842
0.000294035
0.000292902
0.000291829
0.000294963
0.000295208
0.000293985
0.000292048
0.000287615
0.000290156
0.000287805
0.000285939
0.000280449
0.000280804
0.000277446
0.000275842
0.000271838
0.000268693
0.00026832
0.000265159
0.000263221
0.000258624
0.000261285
0.000260417
0.00025935
0.000257851
0.000257492
0.000259586
0.000258554
0.000256979
0.000254138
0.0002592
0.000259814
0.00025896
0.000258518
0.000259366
0.000261934
0.000261917
0.000260565
0.000257459
0.000261207
0.000260094
0.000258973
0.000256964
0.000255378
0.00025704
0.000256303
0.000255004
0.000252437
0.000256597
0.000281074
0.000274819
0.000272803
0.000270026
0.000274565
0.000270477
0.000270181
0.000268787
0.000271694
0.000274362
0.000275215
0.00027423
0.000276273
0.000283667
0.000283871
0.000282999
0.000285152
0.000294579
0.000293211
0.000294985
0.000293931
0.000297255
0.000300921
0.000300925
0.000299701
0.000299876
0.000306171
0.000302135
0.000300542
0.000298954
0.000301222
0.000297148
0.000294001
0.000292132
0.000288458
0.000288874
0.000283224
0.000281382
0.000277748
0.000280529
0.000273906
0.000270185
0.000268299
0.000266156
0.00026755
0.000265265
0.000264049
0.000263067
0.000269605
0.00026455
0.000263129
0.00026163
0.000261621
0.00026492
0.00026436
0.000263374
0.000263443
0.000271355
0.000266589
0.000266205
0.000264924
0.000264306
0.000266585
0.00026424
0.000262973
0.000261341
0.00026705
0.000261187
0.000260072
0.000258809
0.000257999
0.000261781
0.000327007
0.000325789
0.000323759
0.000319113
0.000314601
0.000320184
0.000320758
0.000318456
0.000313058
0.000323873
0.000326861
0.000325561
0.000324842
0.000331962
0.000337407
0.000336688
0.000338108
0.000338362
0.000348567
0.000351697
0.000349899
0.000345812
0.000356638
0.000358914
0.000357414
0.000355284
0.000357316
0.000360148
0.000358696
0.000356005
0.000346468
0.000353689
0.000351223
0.000348774
0.000340979
0.000341289
0.000338613
0.000336631
0.000331423
0.000323631
0.000327462
0.000323965
0.000321435
0.000314608
0.000318673
0.000318701
0.000317379
0.000315397
0.000312066
0.000318345
0.000317437
0.000315343
0.000310523
0.000317698
0.000319173
0.000318048
0.00031711
0.00031489
0.000321406
0.000321432
0.000319584
0.000314389
0.000319679
0.000319032
0.000317601
0.000314891
0.000309638
0.000315493
0.000314933
0.000313228
0.000309305
0.000314951
0.000339401
0.000333896
0.000331394
0.000327438
0.000328336
0.000328124
0.000327962
0.000325971
0.000326652
0.00033257
0.000334261
0.00033293
0.000334505
0.000343137
0.000345287
0.000344223
0.000346617
0.000353334
0.000357162
0.000359678
0.000358142
0.000359721
0.000366468
0.00036714
0.00036551
0.000364943
0.000370698
0.000368455
0.000366496
0.00036427
0.000362805
0.000362157
0.00035862
0.000356169
0.00035062
0.0003512
0.000345549
0.000343244
0.000338539
0.000337103
0.000334241
0.000329991
0.000327536
0.000323716
0.000326447
0.000324555
0.000323027
0.000321733
0.000325436
0.000324406
0.000322957
0.000320973
0.000319605
0.000324829
0.000324676
0.000323367
0.000323101
0.000328141
0.000327079
0.000326596
0.000324847
0.000322716
0.000326394
0.000324051
0.000322419
0.000320226
0.000322386
0.000320584
0.0003195
0.000317848
0.000316165
0.000321524
0.000390241
0.000391667
0.00038936
0.000382855
0.000371827
0.000384273
0.00038557
0.000382313
0.000372115
0.000388171
0.000393121
0.000391398
0.000389098
0.000396804
0.000406271
0.000405555
0.000406697
0.000401118
0.000420015
0.000424538
0.000421937
0.00041373
0.000429181
0.000433391
0.00043145
0.000427592
0.000427514
0.0004346
0.000433049
0.000429259
0.000410739
0.000426325
0.000424171
0.000420966
0.000409878
0.000409893
0.000409015
0.000406671
0.000399832
0.000383408
0.000395487
0.00039195
0.00038863
0.000378493
0.000384322
0.000386157
0.000384571
0.00038175
0.000372908
0.000386228
0.000385668
0.00038284
0.00037486
0.000384661
0.000387745
0.000386309
0.000384481
0.000376784
0.00038988
0.000390177
0.00038764
0.000379294
0.000386589
0.00038721
0.000385447
0.000381749
0.000369527
0.000383177
0.000383092
0.00038083
0.000374738
0.000382056
0.000401473
0.000397116
0.000394161
0.000388893
0.000388076
0.000389942
0.000390091
0.000387405
0.00038606
0.000395015
0.000397879
0.000396177
0.000397083
0.000406821
0.000411532
0.000410316
0.000412866
0.000418885
0.000426127
0.00042957
0.000427461
0.00042715
0.00043701
0.000438698
0.000436641
0.000435103
0.000440002
0.000440193
0.000437918
0.000434955
0.00043125
0.000432568
0.000428845
0.00042575
0.000417974
0.000418629
0.000413568
0.000410813
0.000404903
0.000401668
0.00040033
0.000395741
0.000392638
0.000386687
0.000390983
0.000389987
0.000388143
0.000386397
0.000387874
0.000390519
0.000389149
0.000386576
0.000383257
0.000390695
0.000391331
0.00038968
0.000388875
0.000391287
0.00039387
0.000393408
0.000391103
0.000386899
0.000392337
0.000390474
0.000388477
0.000385611
0.000385267
0.000386823
0.000385969
0.000383864
0.000380841
0.000388015
0.000413191
0.000402417
0.000398877
0.000395153
0.000402369
0.000395433
0.00039442
0.000392494
0.000399236
0.00040169
0.000402415
0.000400839
0.00040567
0.000417029
0.00041655
0.000414889
0.000419157
0.000434545
0.000431989
0.000434342
0.000432899
0.000440851
0.000444655
0.00044376
0.000441673
0.000443027
0.000453038
0.00044557
0.000442609
0.000440676
0.000446266
0.000438647
0.000433347
0.000430463
0.000426772
0.000427439
0.000417979
0.000414851
0.00041009
0.00041581
0.000405038
0.00039939
0.000396594
0.000395694
0.000397562
0.000393661
0.000391603
0.000391165
0.000402616
0.000394646
0.000392463
0.000390239
0.000392504
0.000396574
0.000394746
0.000392915
0.000393372
0.000405984
0.000397697
0.000396492
0.000394504
0.000395347
0.000397954
0.000393606
0.00039141
0.000389569
0.000399647
0.000390341
0.000388724
0.000386837
0.000387628
0.000393869
0.000470597
0.000468641
0.000465351
0.000458117
0.000454107
0.00045966
0.000460596
0.000456851
0.000451886
0.000465104
0.000470062
0.00046788
0.000467236
0.000477808
0.000486627
0.000485385
0.000487654
0.000491523
0.000504091
0.000509026
0.000506023
0.000502231
0.00051628
0.000520023
0.000517465
0.000514136
0.000517354
0.000521658
0.000519243
0.000515132
0.000505967
0.000512302
0.00050896
0.000505024
0.000493836
0.000494335
0.00049123
0.000488069
0.000480434
0.000472553
0.000475706
0.000471167
0.000467172
0.000457779
0.000464029
0.00046504
0.00046288
0.000460194
0.000458264
0.00046611
0.000465101
0.000461677
0.000454967
0.000465194
0.000467572
0.000465543
0.000463698
0.000462326
0.000470038
0.000469923
0.00046683
0.000459261
0.000467019
0.000466682
0.000464309
0.000460406
0.00045596
0.000462846
0.000462601
0.000459846
0.000454422
0.000463597
0.000487143
0.000479131
0.000475014
0.000469246
0.000470065
0.000470109
0.000469652
0.00046662
0.000469156
0.000476898
0.00047946
0.000477298
0.00048066
0.000493099
0.000496804
0.000494932
0.000499073
0.000509054
0.000515471
0.000519156
0.000516771
0.000520907
0.000529773
0.000530587
0.000527856
0.000527497
0.000535416
0.000532515
0.000529168
0.000526096
0.000524964
0.000523774
0.000518454
0.000514623
0.000507547
0.000508359
0.000500308
0.000496578
0.000490114
0.000488298
0.000484899
0.000478969
0.000475231
0.000471053
0.000475233
0.000472769
0.000470246
0.000469015
0.00047463
0.000474376
0.000472304
0.000469189
0.000468321
0.000475493
0.000474823
0.000472476
0.000472032
0.000478631
0.000477733
0.000476612
0.00047381
0.000471608
0.000476793
0.000473314
0.000470602
0.000467844
0.000471207
0.000469882
0.000468608
0.000466045
0.000464842
0.000473478
0.000550069
0.000553049
0.000549731
0.000539345
0.000525322
0.00054143
0.000544102
0.000538656
0.00052558
0.000546741
0.000555469
0.000552638
0.000548781
0.000559637
0.000575302
0.000574347
0.000575511
0.000569957
0.000595748
0.000603307
0.00059881
0.000587671
0.000608684
0.000616383
0.000613222
0.000606596
0.000606109
0.000617865
0.000615748
0.000609663
0.00058659
0.000605822
0.000603945
0.000598803
0.00058207
0.000581973
0.000583088
0.000579658
0.000569328
0.000548284
0.000564407
0.000560682
0.000555363
0.000540165
0.000548988
0.000553889
0.000551449
0.000546946
0.000535791
0.000555044
0.000555012
0.000550264
0.000537661
0.000551607
0.000557386
0.000554966
0.000551219
0.000540717
0.000559267
0.000560126
0.000555817
0.000542687
0.000553542
0.000556462
0.000553729
0.000548085
0.000532406
0.000552102
0.000553158
0.00054941
0.000539837
0.000551126
0.000565224
0.000560345
0.000555826
0.000547696
0.000546379
0.00054926
0.000549837
0.000545461
0.00054456
0.000556445
0.000561624
0.000558834
0.000560245
0.000573508
0.00058231
0.000580389
0.000584062
0.000593158
0.000604201
0.000609706
0.00060616
0.000606558
0.000619875
0.000623298
0.000619926
0.00061733
0.000623136
0.000625429
0.000621919
0.000617443
0.000613118
0.000614716
0.000609994
0.000605102
0.000593967
0.000594619
0.000589227
0.000584994
0.000576486
0.000572376
0.000571336
0.000565636
0.000560776
0.000552493
0.00055898
0.000559076
0.000556128
0.000553668
0.000555948
0.000561194
0.00055957
0.000555351
0.000550355
0.000560726
0.000562208
0.000559367
0.000557557
0.000560167
0.000564958
0.000564326
0.00056051
0.000554287
0.000562326
0.000560888
0.000557704
0.000553702
0.000553738
0.00055744
0.000556969
0.000553568
0.000549374
0.000560424
0.00058103
0.000567476
0.000561899
0.000556582
0.000561877
0.000556911
0.000555312
0.000552427
0.000560545
0.000566104
0.000567485
0.000564977
0.000572533
0.000587879
0.000588993
0.000586236
0.000593013
0.000610169
0.000612357
0.000615756
0.000613536
0.000624235
0.000631026
0.000629889
0.000626499
0.000628875
0.000640796
0.000632716
0.000627908
0.000625446
0.00062992
0.00062348
0.000615834
0.000611412
0.000606884
0.000607703
0.000595183
0.000590259
0.000584022
0.000587706
0.00057812
0.000570395
0.000566218
0.000565704
0.000569105
0.000564057
0.000560707
0.000560773
0.00057294
0.000567133
0.000563902
0.000560444
0.000563849
0.000569824
0.000566812
0.000563645
0.000564271
0.000577291
0.000570446
0.000568338
0.00056521
0.000566886
0.000571122
0.00056514
0.000561589
0.000559641
0.00056977
0.000562611
0.000560614
0.000557716
0.000560013
0.000569824
0.000650909
0.000650407
0.00064592
0.000634433
0.000627157
0.000636686
0.000639227
0.000632948
0.000625793
0.000643788
0.000653044
0.000649543
0.000647652
0.00066156
0.000677138
0.000675572
0.000677961
0.000682105
0.000702152
0.00071057
0.000705366
0.00069955
0.000718762
0.000726538
0.000722535
0.000716465
0.000719554
0.000728795
0.000725698
0.000719099
0.00070512
0.00071554
0.000712656
0.000706437
0.000689526
0.000689755
0.00068899
0.000684528
0.000673091
0.000660227
0.000668048
0.000663505
0.000657133
0.000642764
0.000651859
0.000656356
0.000653113
0.000648491
0.00064467
0.000658463
0.000658043
0.00065228
0.00064099
0.000655087
0.000660484
0.000657221
0.00065316
0.000649415
0.000662656
0.000663309
0.000658082
0.000645877
0.000657279
0.0006598
0.000656253
0.000650286
0.000642792
0.000656086
0.00065727
0.000652697
0.000643765
0.000657165
0.000667863
0.000658665
0.000652617
0.000644488
0.000644969
0.000645742
0.000645442
0.000640868
0.000644923
0.000655236
0.000659814
0.000656508
0.000661633
0.000677527
0.000685005
0.000682176
0.000688225
0.000701806
0.000711895
0.000717486
0.000713807
0.000720159
0.000732003
0.000734161
0.000729978
0.000729656
0.000738584
0.000737378
0.000732404
0.000728264
0.000727719
0.00072603
0.000719295
0.000713564
0.000704271
0.00070484
0.000695929
0.000690412
0.000681774
0.000679565
0.000676228
0.000668953
0.000663377
0.000658006
0.000664039
0.000662211
0.00065832
0.000656778
0.000663172
0.000665694
0.000663046
0.000658178
0.000656624
0.000666219
0.000665907
0.000662107
0.000660988
0.000667668
0.000669334
0.000667904
0.000663503
0.000660444
0.000668087
0.000664806
0.000660674
0.000657232
0.000661069
0.000662451
0.000661483
0.000657512
0.000656142
0.000668721
0.000686581
0.000666672
0.000659358
0.000655092
0.000666025
0.000654505
0.000651357
0.00064902
0.000663484
0.000666489
0.00066623
0.000663473
0.000676157
0.000694475
0.000692451
0.000688623
0.000698901
0.000724786
0.000721201
0.000724001
0.000722343
0.000740416
0.000745026
0.000741394
0.000737339
0.000743525
0.000759677
0.000745588
0.000738956
0.000737732
0.000749914
0.000736235
0.000725693
0.000720769
0.000719782
0.000720467
0.00070264
0.000696267
0.000690903
0.000702096
0.000684141
0.000674177
0.000669714
0.000673835
0.000676221
0.00066782
0.00066346
0.000665522
0.000685686
0.000672605
0.000667794
0.000664144
0.000672731
0.000677154
0.000671063
0.000666904
0.000669273
0.00069011
0.000675713
0.00067229
0.000668993
0.00067567
0.000678728
0.000669594
0.000665031
0.000664594
0.000683577
0.000668544
0.000665506
0.000662364
0.000669389
0.000680216
0.000763258
0.000759048