/*--------------------------------*- C++ -*----------------------------------*\
| =========                 |                                                 |
| \\      /  F ield         | OpenFOAM: The Open Source CFD Toolbox           |
|  \\    /   O peration     | Version:  v2012                                 |
|   \\  /    A nd           | Website:  www.openfoam.com                      |
|    \\/     M anipulation  |                                                 |
\*---------------------------------------------------------------------------*/
FoamFile
{
    version     2.0;
    format      ascii;
    class       volScalarField;
    location    "1e-06";
    object      omega;
}
// * * * * * * * * * * * * * * * * * * * * * * * * * * * * * * * * * * * * * //

dimensions      [0 0 -1 0 0 0 0];


internalField   nonuniform List<scalar> 
10203
(
40017.6
42483.3
43676.5
41353.1
40164.4
40956.5
42685.7
40649.9
38169.8
37997.9
39296.6
38604.8
35810.6
34633.7
36016.4
36778.1
34488.2
32891.8
33746.8
35332.6
33831.2
31969.8
32185.9
33833
33727
31770.7
30776.5
32267.9
33528.9
31568.1
30829.4
30553.6
31974
31215.1
29336.1
28990
30466.1
31169.7
29282.8
28960.7
28693.9
30004.4
28898.9
27103.8
26887.7
28176.1
28567.2
26903.5
25590.6
27081.2
28765.5
27705.7
26450.6
27121.8
29061.1
29589
28374.3
27320
28986.7
30642.2
29458.5
27672.5
27626.6
28832.9
29174.5
27169.2
25748.7
26457.6
27627.4
26620
24879.4
24654.5
30540.5
30049.4
29754
30431.1
30786.5
29522.9
28421.5
29138.5
29899.9
28027.5
26803.2
26967.3
27116.4
26263.5
25240.5
24962.5
25366.2
25262.7
24363.1
23578.2
24158.6
24895.9
23897.1
23256.9
23340.8
23777.9
23504
22736.1
22307.3
22744.3
24203.9
22155.1
21369.9
21655.6
22135.3
21722.7
21016.5
20777.6
21209.2
21466.6
20510.9
19713.1
20116.9
20610.7
19937.4
19219.6
19097.5
19580.1
19634.8
19256
18902.1
19367.3
20220.2
20080.5
19831.8
19806.2
20647.3
20900.7
20522.9
19973
20465.4
20975.6
20338.5
19519.3
19353
19578.9
19547.1
18744.6
18050.6
18409.5
18790.4
18403.3
17886.6
17663.8
17573.2
17728.5
18181.3
17187.3
16714.6
16926.6
17183.1
16236.4
15710.4
15745.8
15677.7
15241.4
14810.8
14718.9
14731.8
14949.4
14249.1
13944.6
14111.6
14348.5
13855.2
13588.3
13606.3
13656.5
13451.3
13077.8
12939.2
12962.2
13723.5
12561.5
12248.3
12324.3
12413.9
12175.6
11895.1
11822.7
11877.7
12350.4
11511.5
11208.8
11313.2
11404.4
11082.5
10832.4
10799
10902.8
11033
10772.7
18805.8
10839.4
11146.6
11083.7
11036.5
11035.8
11295.6
11476.7
11176.8
10950.7
11096.1
11212.9
10880.7
10552.9
10495.6
10504.4
10674.9
10137.3
9912.37
10024.6
10171.8
10069.3
17503.6
17418.9
17342.4
17476.4
16667.2
16948.4
16497.1
16702.2
16620.4
15998.5
15505.8
15544.2
15429.7
14966.6
14618.8
14536.9
14534.3
13782.6
14062.9
13773.3
13935.9
14013.2
13662
13422
13443.8
13468.7
13172.1
12917.4
12789.9
12804.6
12556.3
12405
12109.3
12185.9
12238.3
11999.1
11765.2
11699.8
11746.5
11004.6
11388.1
11098.1
11201.8
11243.1
10952.4
10729.6
10701.1
10796
10479.4
10672.8
10641.4
10746.4
10996.5
10971.3
10944.1
10947.7
11196.5
10946.6
11081.3
10863.1
11007.4
11073.6
10774.6
10469.6
10417.3
10419.3
9876.55
10057.7
9840.52
9953.29
10071.7
9977.26
12212.3
12121.7
12089.4
12098.3
11883.5
11722.4
11469
11546.6
11526.8
11083.9
10814.5
10823.9
10724.9
10444.9
10240.8
10203.5
10149.5
9933.01
9840.92
9671.56
9732.71
9760.52
9494
9339.55
9342.45
9295.3
9090.96
8910.66
8852.86
8798.57
8837.84
8512.27
8352.76
8379.63
8372.46
8211.55
8080.95
8053.36
8038.2
7880.23
7807.66
7654.96
7691.24
7683.9
7503.69
7392.73
7381.73
7400.73
7311.41
7312.64
7274.4
7336.38
7440.01
7382.96
7352.29
7352.97
7423.39
7327.85
7278.51
7147.76
7198.16
7191.64
7000.28
6846.45
6824.03
6797.97
6659.41
6614.94
6532.28
6579.39
6648.22
6620.19
9308.62
9203.1
9184.64
9160.28
9221.85
8873.05
8705.71
8742.44
8777.29
8417.66
8242.8
8244.74
8173.26
7983.63
7831.94
7810.17
7753.99
7778.74
7515.62
7392.49
7419.99
7442.66
7212.06
7090.9
7087.8
7029.01
6886.07
6733.57
6700.11
6638.67
6813.58
6422.6
6317.73
6329.21
6313.88
6196.25
6104.45
6089.52
6064.37
6151.93
5898.12
5800.61
5816.61
5806.96
5677.31
5605.25
5599.45
5597.23
5619.66
5518.37
5484.96
5514.97
5563.79
5489.61
5447.72
5445.35
5453.63
5446.06
5308.94
5216.19
5236.6
5219.81
5083.36
4990.6
4979.29
4956.04
4994.64
4851.5
4815.4
4840.68
4891.97
4881.56
9115.92
9071.43
9058.07
9026.28
8685.17
8747.04
8588.87
8623.05
8522.41
8294.26
8133.84
8136.72
8046
7844.97
7729.1
7710.78
7649.1
7351.86
7415.53
7298.4
7324.25
7278.82
7109.44
7000.12
6998.26
6929.53
6748.58
6647.46
6617.91
6554.37
6407.57
6340.7
6243.29
6255.01
6224.79
6107.7
6036.02
6023.46
5995.9
5749.49
5834.1
5741.97
5757.8
5727.9
5611.96
5551.33
5547.08
5541.77
5400.6
5466.13
5435.63
5465.2
5490.05
5432.22
5398.71
5397.71
5402.03
5239.98
5259.86
5170.29
5190.39
5153.85
5031.38
4947.99
4938.22
4912.87
4731.24
4811.35
4778.27
4803.59
4843.37
4836.31
7369.09
7300.19
7290.53
7254.13
7167.05
7030.44
6914.4
6933.65
6915.31
6688.49
6570.74
6570.96
6506.84
6357.33
6255.71
6242.62
6187.55
6100.3
5989.73
5893.83
5906.56
5886.99
5718.38
5623.84
5619.5
5556.96
5426.78
5326.52
5306.24
5248.7
5260.83
5079.2
5006.21
5011.92
4988.7
4896.92
4837.9
4829.74
4803.54
4757.52
4677.76
4611.46
4619.79
4601.49
4507.63
4460.28
4457.2
4445.38
4409.88
4371.43
4339.29
4354.95
4364.12
4293.83
4252.27
4249.05
4231.71
4167.79
4100.76
4031.98
4041.02
4015.14
3919.51
3862.86
3857.36
3839.02
3810.8
3775.04
3759.32
3775.41
3809.98
3805.32
7219.39
7197.25
7191.36
7149.09
6799.89
6932.45
6823.51
6840.61
6714.76
6592.44
6485.74
6486.51
6405.97
6248.95
6174.92
6164.32
6104.58
5802.07
5910.67
5819.44
5830.77
5754.56
5637.38
5552.26
5548.78
5478.05
5320.14
5258.95
5241.56
5182.43
4991.76
5015.05
4947.81
4953.64
4917.92
4827.67
4784.3
4777.87
4749.71
4495.12
4627.62
4565.48
4573.61
4538.22
4456.32
4417.88
4415.9
4401.49
4251.62
4330.17
4300.31
4315.54
4304.59
4248.72
4213.85
4211.6
4191.24
4022.05
4062.81
3996.56
4005.31
3963.47
3879.69
3830.17
3825.72
3805.76
3634.31
3744.16
3730.64
3746.67
3771.72
3770.21
5999.26
5949.56
5944.87
5908.59
5799.18
5731.54
5646.9
5658.75
5624.6
5467.57
5382.36
5382.49
5327.16
5204.37
5129.07
5120.59
5069.27
4962.26
4898.16
4819.1
4825.16
4789.4
4656.58
4579.47
4575.33
4517.01
4403.82
4332.1
4319.17
4269.27
4233.63
4133.85
4079.97
4083.49
4060.59
3987.22
3946.75
3942.35
3919.08
3854.08
3821.28
3773.91
3779.21
3760.21
3687.66
3653.28
3651.57
3635.97
3584.17
3565.22
3533.58
3542.19
3532.68
3466.77
3427.06
3423.77
3397.31
3321.94
3283.16
3230.65
3235.17
3210.07
3139.76
3103.35
3101.03
3087.83
3047.52
3046.52
3039.98
3051.5
3076.47
3072.43
5111.9
5037.82
5033.37
5004.5
5044.88
4856.42
4786.89
4796.79
4824.38
4645.86
4572.12
4572.12
4535.57
4439.5
4357.77
4350.13
4306.04
4323.29
4151.92
4080.8
4084.59
4079.25
3938.06
3865.99
3861.81
3815.25
3739.64
3655.41
3644.83
3603.43
3678.81
3491.62
3445.74
3448.29
3436.41
3376.64
3335.25
3331.84
3313.37
3367.04
3232.76
3194.38
3198.47
3192.47
3126.27
3092.14
3090.36
3075.04
3092.21
3005.19
2972.5
2977.63
2972.61
2902.44
2860.13
2856.42
2829.69
2822.37
2729.56
2686.75
2689.6
2678.09
2617.34
2587.73
2586.52
2578.37
2618.88
2548.54
2544.58
2553.49
2578.6
2572.11
5003.47
4964.3
4962.55
4930.08
4836.51
4786.8
4722.32
4730.83
4696.22
4576.88
4511.26
4511.64
4464.02
4359.99
4299.23
4293.34
4245.93
4149.01
4094.18
4026.57
4029.42
3989.36
3878.8
3814.11
3810.57
3758.66
3662.03
3606.69
3598.15
3555.81
3514.45
3445.25
3403.63
3406.27
3386.15
3326.02
3296.57
3294.36
3274.58
3219.49
3196.43
3161.07
3165.03
3147.7
3088.42
3061.15
3060.15
3042.94
2991.56
2974.78
2943.87
2948.71
2930.67
2869.31
2832.36
2829.34
2800.77
2731.18
2702.66
2661.77
2664.44
2643.03
2589.12
2564.75
2564.23
2554.99
2520.24
2526.58
2524.12
2532.98
2551.65
2546.41
4372.11
4308.42
4305.86
4280.81
4300.17
4157.22
4101.28
4109.28
4130.35
3983.69
3922.69
3922.87
3891.34
3807.9
3736.61
3730.52
3689.61
3688.62
3550.43
3487.79
3489.86
3480.57
3358.53
3296.13
3292.6
3251.83
3187.46
3116.57
3108.81
3073.57
3120.99
2979.76
2942.25
2944.38
2934.72
2884.44
2850.63
2848.57
2832.98
2864.58
2766.16
2735.66
2739.03
2734.08
2677.02
2647.28
2645.84
2629.74
2637.11
2562.35
2530.78
2533.76
2524.16
2459.26
2420.33
2417.01
2390.97
2380.09
2304.78
2270.47
2272.51
2264.02
2214.86
2192.88
2192.7
2187.13
2216.31
2164.55
2162.2
2169.34
2189.49
2181.45
4280.92
4248.11
4247.92
4219.42
4142.1
4099.96
4048.45
4055.08
4022.78
3926.27
3872.6
3873.03
3831.05
3740.42
3688.11
3683.57
3639.42
3554.38
3502.36
3442.94
3444.07
3403.89
3308.88
3253.3
3250.3
3204.5
3121.74
3076.32
3070.37
3034.14
2994.86
2941.21
2907.52
2909.67
2892.26
2841.57
2818.62
2817.61
2800.67
2755.92
2735.91
2708.07
2711.25
2695.68
2644.84
2621.42
2620.64
2602.7
2556.13
2536.82
2506.93
2509.59
2488.04
2431.23
2397.32
2394.6
2366.89
2307.42
2282.59
2249.99
2251.84
2234.31
2191.25
2174
2174.38
2167.74
2141.07
2146.29
2145.26
2152.29
2166.41
2159.48
3797.4
3738.89
3737.44
3716.59
3733.93
3611.32
3564.54
3571.65
3592.09
3464.82
3411.71
3412.08
3385.34
3312.34
3246.42
3241.24
3203.57
3200.34
3076.73
3020.56
3021.91
3013.32
2904.67
2849.4
2846.51
2811.69
2758.47
2695.11
2689.16
2659.32
2697.53
2579.55
2547.85
2549.87
2543.12
2500.38
2470.84
2469.63
2456.74
2484.43
2400.14
2374.89
2377.93
2374.83
2323.99
2296.47
2295.19
2279.1
2284.63
2214.36
2184.37
2186.02
2175.45
2115.35
2079.45
2076.58
2052.73
2044.83
1978.5
1950.51
1952.3
1947.25
1906.06
1888.62
1889.03
1885.32
1911.94
1866.76
1864.71
1870.62
1887.43
1877.85
3719.32
3688.32
3689.03
3664.86
3607.96
3563.1
3520.35
3526.12
3501.09
3415.86
3369.58
3370.12
3333.61
3253.85
3205.38
3201.64
3160.83
3092.27
3035.86
2982.75
2983.17
2947.48
2862.18
2813.35
2810.93
2771.37
2701.91
2661.21
2656.92
2626.03
2595.64
2546.82
2518.66
2520.66
2506.64
2463.28
2443.84
2443.57
2429.31
2397.12
2374.4
2351.6
2354.4
2341.45
2296.02
2274.5
2273.82
2255.91
2218.33
2192.55
2173.25
2165.49
2144.05
2091.17
2060.09
2057.76
2032.35
1986.04
1959.84
1933.43
1935
1921.72
1885.84
1872.81
1873.71
1868.91
1852.13
1851.26
1850.43
1856.2
1867.34
1858.66
3341.66
3284.68
3283.74
3266.99
3292.18
3175.5
3134.75
3141.58
3164.97
3049.21
3000.71
3001.24
2979.22
2915.34
2851.4
2846.71
2812.38
2815.84
2696.08
2644.98
2646.21
2641.1
2542.06
2491.9
2489.59
2460.58
2418.08
2358.41
2353.58
2328.43
2367.86
2259.9
2232.21
2234.28
2230.72
2194.24
2166.63
2165.89
2155.47
2188.37
2106.53
2084.72
2087.63
2086.91
2040.52
2013.72
2012.51
1996.99
2005.36
1935.13
2164.07
1907.75
1898.43
1842.68
1809.26
1806.82
1785.8
1784.11
1721.61
1698.32
1700.11
1698.56
1662.95
1647.95
1648.67
1646.27
1675.17
1629.8
1627.34
1632.38
1647.03
1636.2
3289.71
3259.85
3260.93
3239.92
3193.63
3150.8
3113.96
3118.99
3098.43
3021.94
2980.52
2980.99
2948.46
2877.28
2831.25
2827.93
2789.98
2730.74
2675.19
2627.13
2627.14
2595.29
2518.25
2474.69
2472.67
2438.22
2379.39
2341.82
2338.53
2311.79
2286.2
2242.78
2218.47
2220.31
2208.87
2171.09
2153.61
2153.69
2141.4
2115.39
2093.39
2073.78
2076.25
2065.34
2023.76
2003.13
2002.42
1984.81
1954.07
1924.07
1905.18
1897.78
1877.67
1828.56
1800.02
1798.01
1775.2
1739.47
1712.29
1690.39
1691.81
1682.03
1651.08
1640.44
1641.53
1637.82
1627.47
1621.94
1620.65
1625.45
1634.4
1624.26
3241.83
3238.88
3241.8
3215.56
3107.27
3129.77
3096.69
3099.44
3033.87
2998.32
2963.73
2963.89
2918.55
2842.81
2814.36
2812.24
2769.96
2655.2
2657.44
2612.35
2610.81
2548.7
2497.55
2460.35
2458.45
2417.37
2343.43
2327.82
2325.97
2297.26
2227.09
2228.05
2206.98
2208.42
2187.38
2150.29
2142.62
2143.45
2128.88
2059.24
2082.12
2064.64
2066.52
2043.23
2008.92
1994.24
1993.96
1973.87
1904.27
1914.68
1889.27
1889.3
1856.03
1816.22
1792.37
1790.7
1765.74
1695.76
1704.44
1683.88
1684.81
1664.93
1640.67
1634.16
1635.58
1630.28
1583.38
1615.23
1615.06
1619.55
1621.59
1613.6
2942.1
2910.52
2911.61
2893.81
2857.7
2814.14
2781.11
2785.91
2771.8
2699.52
2660.71
2661.17
2633.02
2569.62
2523.49
2520.34
2485.51
2435.76
2379.56
2335.52
2335.58
2309.6
2238
2198.08
2196.43
2167.07
2118.47
2081.23
2078.5
2055.46
2037.11
1994.82
1973.11
1974.92
1966.53
1933.48
1916.17
1916.42
1906.01
1886.96
1863.19
1845.61
1847.94
1839.77
1800.84
1780.08
1779.32
1762.53
1738.86
1704.61
1679.01
1679.54
1662.34
1616.41
1589.75
1588.04
1568.08
1542.2
1513.09
1494.51
1495.96
1489.76
1462.05
1452.33
1453.48
1450.57
1445.89
1435.37
1433.26
1437.37
1445.2
1433.91
2885.68
2876.66
2879.6
2857.67
2787.89
2781.29
2751.87
2754.85
2707.41
2664.89
2632.44
2632.77
2593.93
2526.31
2495.56
2493.65
2455.17
2374.22
2351.37
2310.24
2309.06
2259.69
2207.9
2173.99
2172.59
2137.83
2077.05
2058.36
2057.1
2032.58
1986.5
1972.14
1953.66
1955.24
1938.9
1906.18
1897.95
1898.99
1886.74
1844.68
1845.33
1829.95
1831.83
1813.18
1780.15
1765.07
1764.79
1745.84
1696.03
1689.44
1665.43
1665.47
1637.23
1598.94
1576.83
1575.52
1553.79
1504.28
1500.48
1483.31
1484.39
1469.64
1447.47
1441.78
1443.3
1439.03
1411.3
1424.62
1423.66
1427.51
1429.18
1419.46
2645.22
2607.98
2608.71
2594.88
2577.53
2522.71
2491.69
2496.99
2494.48
2420.31
2381.88
2382.51
2360.23
2304.75
2255.29
2252.07
2221.13
2188.51
2123.17
2082.12
2082.81
2066.42
1996.82
1958.74
1957.53
1934
1896.51
1856.36
1853.82
1834.57
1831.17
1781.57
1761.42
1763.44
1759.3
1730.71
1711.66
1711.93
1703.7
1699.15
1665.18
1648.76
1651.22
1647.15
1610.02
1587.97
1587.15
1571.87
1558.17
1516.99
1492.78
1493.43
1480.93
1437.45
1411.78
1410.36
1393.56
1378.82
1345.26
1329.12
1330.81
1328.78
1303.13
1293.1
1294.22
1292.16
1295.71
1277.09
1273.95
1277.63
1285.5
1273.37
2596.38
2579.07
2581.67
2563.9
2520.19
2494.34
2466.86
2470.43
2439.13
2389.84
2357.69
2358.25
2326.24
2266.37
2231.25
2229.32
2194.91
2137.91
2098.74
2060.62
2060.13
2023.57
1970.38
1938.22
1937.29
1908.75
1860.55
1836.76
1835.69
1814.97
1785.54
1761.84
1744.87
1746.67
1735.26
1706.38
1696.01
1697.09
1687.03
1662.4
1649.59
1635.35
1637.36
1623.82
1591.39
1575.01
1574.68
1557.33
1523.47
1503.78
1481.19
1481.35
1459.06
1421.88
1400.75
1399.74
1381.24
1348.39
1334.4
1319.61
1320.94
1311.25
1290.08
1284.05
1285.54
1282.13
1267.75
1267.69
1265.7
1269.13
1271.32
1260.21
2401.34
2358.13
2358.05
2347.75
2351.26
2281.33
2250.93
2256.87
2265.91
2188.67
2149.29
2150.03
2133.35
2085.19
2031.84
2028.3
2001.25
1988.1
1910.59
1871.69
1873.13
1866.11
1798.04
1760.62
1759.73
1741.58
1713.89
1670.38
1667.68
1651.79
1664.84
1605.34
1585.81
1588.05
1587.89
1563.38
1541.72
1541.81
1535.56
1547.52
1500.38
1484.36
1486.99
1486.92
1451.52
1427.59
1426.63
1413.14
1410.38
1361.39
1338.33
1339.25
1331.58
1290.58
1265.19
1263.98
1250.16
1246.32
1207.35
1192.79
1194.74
1196.48
1172.43
1161.23
1162.21
1160.85
1174.14
1145.6
1141.26
1144.65
1153.04
1140.63
2366.77
2342.93
2344.87
2330.11
2296.82
2265.37
2238.82
2242.77
2221.47
2169.66
2137.13
2137.73
2111.24
2058.14
2019.27
2017.14
1986.33
1940.2
1896.98
1861.22
1861.32
1834.07
1781.53
1750.4
1749.72
1726.27
1687.84
1660.15
1659.01
1641.3
1619.95
1593.94
1577.74
1579.65
1572.14
1546.59
1533.73
1534.63
1526.28
1507.63
1491.64
1477.85
1479.92
1470.57
1438.98
1421
1420.56
1404.81
1380.1
1354.1
1332.73
1333.08
1316.03
1280.34
1259.67
1258.83
1243.17
1220.62
1201.41
1188.23
1189.74
1184.15
1163.71
1156.69
1158.02
1155.2
1147.11
1140.35
1137.27
1140.34
1143.29
1131.36
2333.58
2329.95
2333.65
2313.4
2256.15
2251.51
2228.71
2230.06
2183.4
2152.73
2126.99
2127.11
2088.97
2032.55
2008.68
2007.75
1972.38
1903.97
1885.29
1852.6
1850.91
1803.9
1766.8
1741.87
1741.19
1711.25
1662.67
1651.43
1651.71
1631.75
1592.14
1583.94
1570.96
1572.33
1556.08
1530.88
1526.91
1528.53
1517.59
1482.26
1484
1472.36
1473.68
1453.62
1427.5
1415.44
1415.4
1396.94
1353.62
1347.84
1328.1
1327.69
1299.9
1271.13
1255.06
1254.53
1236.6
1197.34
1196.34
1184.46
1185.37
1171.19
1155.81
1152.83
1154.46
1149.87
1125.71
1135.77
1133.9
1136.56
1132.97
1122.83
2175.81
2145.71
2146.61
2134.72
2112.15
2073.6
2046.87
2051.39
2039.68
1985.23
1951.22
1951.84
1930.81
1883.9
1841
1838.39
1811.33
1776.3
1728.2
1694
1694.83
1676.37
1624.53
1593.34
1592.81
1574.2
1543.99
1512.58
1511.01
1496.1
1485.43
1453.83
1437.59
1439.63
1435.93
1413.49
1397.45
1397.99
1391.29
1381.76
1358.88
1344.92
1347.15
1342.01
1311.42
1291.32
1290.67
1276.82
1259.84
1228.98
1208.54
1209.19
1197.37
1163.25
1142.33
1141.57
1128.62
1114.16
1090.96
1078.7
1080.41
1078.61
1058.76
1050.02
1051.12
1048.9
1046.62
1033.54
1029.24
1032.09
1036.21
1024.01
2140.89
2125.83
2128.54
2112.32
2076.84
2053.4
2030.18
2032.69
2001.69
1962.54
1934.69
1935.08
1904.79
1855.15
1824.28
1822.96
1792.18
1744.91
1710.83
1679.6
1679.03
1645.6
1605.01
1579.48
1579.12
1555.4
1518.06
1499.04
1498.92
1482.25
1457.67
1439.54
1426.44
1428.12
1417.45
1394.91
1386.61
1387.93
1379.11
1359.23
1347.55
1335.76
1337.41
1323.57
1296.89
1282.27
1282.11
1265.96
1237.62
1219.49
1200.7
1200.76
1180.31
1151.35
1134.82
1134.44
1119.59
1094.78
1083.25
1072.34
1073.58
1064.75
1048.61
1043.78
1045.22
1041.46
1029.2
1026.66
1023.58
1026.1
1024.66
1013.45
2010.86
1973.37
1972.71
1963.91
1960.55
1905.9
1877.83
1883.23
1884.62
1824
1787.34
1787.93
1772.91
1732.11
1684.32
1680.88
1657.89
1641.62
1580.77
1547.27
1549.04
1541.09
1488.33
1456.05
1455.57
1441.95
1419.98
1383.93
1381.56
1369.5
1375.01
1332.15
1315.14
1317.36
1317.78
1298.37
1278.46
1278.46
1273.59
1279.36
1243.23
1228.58
1231.07
1230.56
1201
1178.24
1177.31
1165.68
1160.09
1120.85
1100.95
1102.05
1095.74
1063.11
1041.3
1040.52
1030.23
1026.08
996.082
984.172
986.18
988.185
968.823
957.827
958.604
957.098
964.65
941.364
935.671
938.432
944.12
932.083
1985.19
1962.21
1963.63
1950.36
1921.2
1893.61
1869.38
1872.74
1850.8
1808.83
1778.61
1779.07
1755.03
1711.12
1675.02
1673.09
1646.35
1606.83
1570.34
1540.04
1540.41
1516.22
1475.32
1448.82
1448.57
1429.89
1400.46
1376.4
1375.66
1361.66
1343.3
1323.22
1309.5
1311.35
1305
1284.97
1272.58
1273.46
1266.36
1250.4
1236.32
1223.96
1225.85
1216.95
1190.61
1173.38
1173.01
1159.06
1137.78
1115.17
1097.05
1097.53
1082.99
1054.72
1037.34
1036.95
1024.77
1007.34
991.505
981.016
982.529
977.919
961.54
954.504
955.663
952.607
944.63
937.164
932.834
935.244
935.79
924.205
1960.74
1952.61
1955.83
1937.08
1897.55
1882.75
1862.38
1862.95
1825.35
1794.92
1771.36
1771.25
1737.07
1690.92
1667.16
1666.5
1635.15
1585.67
1561.27
1534.14
1532.59
1494.98
1463.37
1442.81
1442.52
1417.75
1381.84
1369.92
1370.66
1354.27
1326.71
1315.21
1304.76
1306
1291.97
1272.07
1267.55
1269.15
1259.32
1235.77
1230.2
1220.09
1221.1
1203.25
1180.79
1169.28
1169.33
1152.55
1121.53
1110.24
1093.86
1093.47
1070.27
1046.93
1034.02
1033.93
1019.38
992.984
987.526
978.415
979.248
967.397
954.707
951.667
953.124
948.164
931.971
933.448
930.446
932.359
926.936
916.691
1855.25
1826.14
1825.87
1815.09
1796.39
1760.1
1734.21
1738.33
1725.84
1680.26
1647.38
1647.72
1629.25
1590.09
1549.97
1547.12
1524.2
1495.9
1453.31
1423.35
1424.56
1408.89
1367.7
1339.88
1339.54
1325.28
1301.93
1274.2
1272.5
1260.92
1253.02
1226.35
1211.51
1213.46
1210.85
1193.01
1176.85
1177.06
1171.55
1164.93
1142.9
1129.57
1131.68
1127.23
1101.63
1081.79
1081.07
1069.34
1055.41
1028.13
1010.31
1011.2
1001.92
974.656
956.051
955.524
945.739
935.093
915.051
904.511
906.274
905.288
888.952
879.472
880.248
877.907
875.893
862.021
856.319
858.67
861.133
849.664
1834.29
1816.71
1818.44
1802.8
1772.4
1749.4
1727.35
1729.09
1700.78
1666.77
1640.14
1640.18
1612.82
1572.1
1542.1
1540.72
1513.71
1474.55
1444.28
1417.53
1417.1
1388.97
1356.21
1333.93
1333.73
1314.17
1285.98
1267.81
1267.74
1253.99
1233.4
1218.48
1206.9
1208.37
1199.04
1181.17
1171.88
1172.95
1164.94
1148.1
1136.79
1125.79
1127.17
1114.73
1092.2
1077.7
1077.5
1063.22
1040.72
1023.16
1007.14
1007.29
990.356
967.071
952.74
952.591
940.688
922.513
911.045
901.955
903.121
895.745
882.291
876.674
877.818
873.73
863.566
858.277
853.992
855.91
853.097
842.411
1813.13
1808.7
1812.01
1790.87
1748.72
1740.06
1721.7
1720.37
1679.31
1654.58
1634.18
1633.45
1596.95
1554.37
1535.51
1535.25
1503.58
1453.42
1436.5
1412.82
1410.25
1371.29
1345.81
1329.04
1328.66
1303.29
1269.68
1262.36
1263.69
1247.39
1217.76
1211.52
1203.06
1203.78
1187.46
1169.77
1167.64
1169.38
1158.49
1132.19
1131.42
1122.63
1122.98
1102.66
1083.42
1074.26
1074.42
1057.18
1025.09
1018.87
1004.57
1003.72
979.305
960.144
949.995
950.081
935.694
908.886
907.591
899.857
900.235
886.421
876.146
874.29
875.694
869.566
850.622
854.989
852.038
853.368
844.959
835.61
1728.46
1704.65
1704.45
1691.38
1665.6
1638.77
1614.48
1617.22
1596.26
1560.27
1530.47
1530.42
1508.91
1472.2
1437.99
1435.52
1412.55
1379.67
1347.49
1320.54
1321.11
1300.58
1267.85
1243.68
1243.35
1228.31
1205.14
1183.26
1182.02
1170.66
1156.33
1138.47
1125.31
1126.92
1121.5
1105.34
1091.95
1092.24
1085.94
1073.38
1058.76
1046.49
1048.19
1040.41
1018.4
1001.04
1000.45
988.602
971.001
950.858
934.853
935.491
923.837
901.191
885.202
884.838
875.307
861.787
847.554
838.07
839.535
835.881
822.187
813.875
814.595
811.391
804.434
795.477
789.774
791.716
791.28
780.643
1709.7
1693.61
1695.09
1677.67
1649.08
1626.69
1605.75
1606.18
1576.8
1546.02
1521.48
1521.04
1492.45
1455.23
1428.55
1427.35
1400.67
1364.9
1337.21
1313.15
1312.09
1283.99
1255.85
1236.32
1236.05
1216.49
1190.93
1175.63
1175.84
1162.43
1143.52
1129.69
1119.43
1120.52
1109.64
1093.69
1085.79
1086.86
1078.18
1062.55
1051.65
1041.54
1042.46
1028.44
1008.69
995.9
995.777
981.489
960.245
945.025
930.741
930.608
913.073
893.308
881.054
881.03
869.456
852.424
842.832
834.727
835.571
826.732
815.226
810.318
811.38
806.431
796.027
791.051
786.696
788.175
783.092
773.227
1640.53
1610.2
1607.71
1596.59
1583.34
1544.83
1517.95
1521.44
1511.31
1469.38
1436.58
1436.17
1420.27
1387.3
1349.18
1345.32
1326.04
1306.4
1265.36
1237.88
1239.25
1227.79
1193.02
1167.08
1166.39
1155.4
1137.59
1111.67
1109.03
1099.76
1096.7
1070.74
1055.87
1057.45
1055.67
1040.86
1023.8
1023.12
1018.31
1016.19
992.276
978.557
980.471
977.322
955.541
935.692
934.528
924.961
916.195
889.678
873.432
874.477
867.981
845.599
828.046
827.304
819.854
813.857
793.931
783.791
785.484
785.343
771.326
760.558
760.73
758.339
758.809
742.326
735.139
737.071
738.821
728.347
1625.34
1603.35
1602.73
1587.66
1560.36
1536.77
1513.19
1514.73
1490.38
1459.25
1431.32
1430.82
1407.76
1374
1343.31
1340.94
1318.28
1285.91
1258.55
1233.89
1233.92
1211.98
1184.54
1162.85
1162.4
1147.17
1125.62
1106.94
1105.87
1094.72
1078.79
1064.73
1052.61
1053.85
1046.62
1032.03
1020.06
1020.26
1013.29
999.13
987.424
975.852
977.139
967.437
948.273
932.583
932.013
920.25
902.388
885.74
871.206
871.616
858.907
839.739
825.571
825.264
815.989
802.256
790.731
781.98
783.157
777.787
766.079
758.42
759.02
755.081
746.39
739.252
733.454
735.015
732.421
722.628
1612.85
1597.41
1598.41
1578.82
1550.44
1529.4
1509.29
1508.15
1478.05
1449.75
1427.02
1425.89
1396.39
1362.21
1338.31
1337.18
1310.58
1276.96
1252.45
1230.72
1228.84
1201.19
1176.57
1159.37
1158.85
1139.13
1115.84
1102.79
1103.17
1089.71
1071.39
1059.15
1049.92
1050.48
1038.23
1023.72
1016.81
1017.77
1008.19
992.595
982.963
973.595
973.916
958.804
941.266
929.948
929.81
915.407
895.198
882.208
869.427
868.891
851.188
834.099
823.504
823.487
811.978
795.869
787.859
780.514
780.931
771.04
760.967
756.577
757.492
751.652
740.84
736.44
732.048
733.033
726.163
717.021
1558.91
1532.76
1529.95
1515.82
1495.75
1465.06
1439.38
1441.11
1423.66
1389.22
1359.3
1358.18
1339.28
1308
1275.36
1271.61
1251.85
1228.01
1195.92
1170.95
1171.35
1155.65
1127.42
1104.7
1103.7
1091.48
1073.28
1052.48
1050.01
1040.42
1031.74
1012.79
999.27
1000.25
995.582
981.72
967.234
966.393
960.492
953.01
935.481
922.654
923.94
917.755
898.879
881.534
880.292
870.408
858.261
838.113
823.346
823.944
815.204
796.357
781.087
780.263
772.621
763.695
748.881
739.473
740.699
738.008
726.074
716.551
716.508
713.218
709.293
697.436
690.342
691.768
690.93
681.222
1547.69
1527.31
1526.06
1508.23
1479.88
1458.46
1435.68
1435.41
1408.41
1380.88
1355.1
1353.74
1328.79
1297.56
1270.59
1268.1
1245.14
1213.78
1190.33
1167.86
1166.88
1143.77
1120.5
1101.35
1100.48
1084.45
1064.24
1048.64
1047.57
1036.12
1019.21
1007.8
996.694
997.257
987.922
974.544
964.146
964.107
956.055
940.993
931.358
920.495
921.094
909.455
892.766
878.969
878.245
866.196
848.501
834.778
821.586
821.501
807.688
791.419
779.062
778.611
769.155
755.462
746.165
738.035
738.709
731.597
721.611
714.784
715.119
710.275
700.579
694.794
688.989
690.007
685.267
676.347
1538.39
1522.79
1522.77
1501.15
1472.37
1452.63
1432.78
1429.98
1399.37
1373.28
1351.8
1349.75
1319.87
1288.27
1266.67
1265.18
1238.81
1206.85
1185.49
1165.53
1162.72
1135.83
1114.2
1098.72
1097.68
1078.03
1056.64
1045.37
1045.53
1031.96
1013.84
1003.31
994.654
994.514
981.274
967.869
961.555
962.141
951.701
935.82
927.683
918.759
918.366
902.629
887.009
876.867
876.482
862.036
842.651
831.877
820.242
819.191
801.667
786.791
777.427
777.191
765.693
750.262
743.799
736.921
736.816
726.24
717.377
713.306
713.893
707.272
695.999
692.442
687.902
688.318
680.118
671.677
1499.78
1476.31
1473.13
1455.38
1430.85
1405.21
1380.81
1380.19
1357.39
1328.21
1301.12
1298.96
1277.02
1247.63
1219.64
1215.96
1195.15
1169.2
1143.56
1121.1
1120.05
1101.19
1077.97
1058.27
1056.76
1042.92
1024.95
1008.19
1005.97
995.466
983.099
968.878
956.736
956.811
949.182
936.266
924.079
923.082
915.624
904.614
891.593
879.855
880.161
871.051
854.806
839.956
838.58
827.915
813.795
798.442
785.22
785.006
774.137
758.337
745.274
744.281
735.967
725.249
714.279
705.73
706.185
700.998
690.983
682.845
682.555
678.084
671.203
662.769
656.043
656.714
653.236
644.429
1492.55
1472.44
1470.4
1449.6
1422.37
1400.28
1378.26
1375.73
1347.97
1321.87
1298.08
1295.55
1269.19
1240.14
1216.1
1213.4
1189.84
1161.44
1139.34
1118.96
1116.57
1093.49
1072.78
1055.89
1054.37
1037.52
1018.86
1005.35
1004.24
992.08
976.176
965.066
954.892
954.51
943.388
930.865
921.749
921.383
911.981
898.175
888.352
878.288
877.878
864.857
849.998
838.014
837.028
824.409
808.091
795.832
783.956
783.042
768.613
754.447
743.76
743.036
733.076
720.372
712.156
704.697
704.585
696.167
687.442
681.511
681.509
675.603
666.337
660.678
655.057
655.298
648.729
640.537
1485.39
1469.43
1468.14
1444.49
1414.02
1396.16
1376.27
1371.64
1339.93
1316.25
1295.78
1292.55
1262.43
1232.59
1213.34
1211.27
1185.07
1153.53
1135.89
1117.38
1113.44
1086.99
1068.16
1054.07
1052.31
1032.78
1012.48
1003.07
1002.79
988.946
970.23
961.803
953.464
952.422
938.308
925.577
919.866
919.906
908.575
891.449
885.611
877.036
875.713
859.411
845.498
836.474
835.676
821.121
801.611
793.678
782.999
781.204
763.82
750.903
742.573
741.948
730.337
714.762
710.401
703.901
703.076
691.937
684.187
680.423
680.564
673.197
660.84
658.911
654.266
653.94
644.671
636.862
1462.05
1439.42
1435.79
1414.57
1387.03
1364.11
1340.64
1337.75
1311.45
1285.4
1260.51
1257.35
1232.95
1205.28
1180.66
1177.02
1155.11
1128.36
1107.05
1086.73
1084.26
1063.58
1043.72
1026.41
1024.38
1009.11
991.812
977.703
975.676
964.144
949.464
938.157
927.067
926.252
916.113
903.881
893.32
892.187
883.132
869.859
859.781
849.012
848.332
836.923
822.651
809.87
808.373
796.837
781.878
769.708
757.829
756.786
744.321
730.803
719.571
718.414
709.325
697.804
689.331
681.564
681.249
674.085
665.527
658.58
658.084
652.463
643.83
637.603
631.281
631.214
625.492
617.436
1457.9
1436.69
1433.61
1410.46
1383.29
1360.44
1338.41
1334.18
1306.37
1280.71
1257.98
1254.42
1227.58
1199.98
1177.81
1174.73
1151
1124.59
1103.82
1084.85
1081.38
1059.15
1039.95
1024.45
1022.32
1005.28
987.778
975.448
974.095
961.412
946.408
935.255
925.445
924.222
912.089
899.89
891.327
890.562
880.116
866.711
857.14
847.516
846.226
832.644
818.92
808.15
806.866
793.926
778.508
767.557
756.629
754.994
740.607
727.803
718.237
717.215
706.937
694.889
687.593
680.587
679.791
670.787
662.799
657.393
657.055
650.365
641.212
635.883
630.333
629.886
622.213
614.422
1444.45
1419.55
1414.72
1392.17
1365.68
1340.17
1315.57
1312.07
1287.16
1260.22
1234.79
1231
1207.7
1181.09
1156.27
1152.01
1131
1107.13
1084.99
1064.97
1062.25
1043.57
1024.03
1006.81
1004.33
989.891
973.775
959.277
956.663
945.28
932.46
919.803
908.125
906.848
897.011
884.82
873.328
871.614
862.445
850.938
839.182
827.97
826.963
816.55
802.618
789.537
787.66
776.728
763.69
750.846
739.095
737.856
726.752
713.69
702.344
700.863
692.238
682.269
673.068
665.177
664.616
658.196
649.741
642.295
641.424
635.815
628.552
621.05
614.277
613.899
608.519
600.517
1442.31
1418.17
1413.64
1389.83
1362.28
1337.91
1314.27
1309.87
1282.98
1257.16
1233.18
1229.17
1203.91
1177.57
1154.42
1150.59
1128.3
1103.67
1082.9
1063.84
1060.45
1040.16
1021.64
1005.6
1003.1
987.39
971.138
957.861
955.733
943.572
929.444
917.913
907.096
905.564
894.142
882.118
871.959
870.549
860.363
847.792
837.284
826.931
825.51
813.22
799.945
788.303
786.629
774.655
760.796
749.283
738.267
736.626
723.845
711.556
701.403
700.058
690.569
679.847
671.822
664.509
663.626
655.664
647.808
641.453
640.731
634.35
626.136
619.796
613.614
612.982
606.031
598.337
1438.08
1411.45
1405.77
1380.95
1354.16
1327.03
1301.63
1297.23
1272.5
1245.07
1219.57
1215.19
1192
1166.25
1141.71
1137.08
1116.28
1094.18
1072
1052.53
1049.36
1031.63
1012.66
995.911
993.061
978.73
963.466
949.01
946.092
934.427
922.286
909.015
897.036
895.257
884.975
872.729
860.705
858.566
848.853
838.187
825.445
813.997
812.598
802.489
788.894
775.891
773.745
763.003
751.34
738.187
726.691
725.185
714.757
702.187
691.064
689.35
680.847
671.968
662.408
654.55
653.695
647.471
639.204
631.635
630.487
624.662
618.235
609.986
602.977
602.273
596.775
588.855
1437.46
1411.16
1405.55
1380.1
1351.16
1326.08
1301.24
1296.26
1269.3
1243.44
1218.85
1214.35
1189.7
1164.01
1140.83
1136.46
1114.87
1090.86
1070.96
1052.1
1048.54
1029.27
1011.47
995.422
992.566
977.455
961.803
948.414
945.765
933.665
919.561
908.088
896.602
894.686
883.216
871.065
860
858.083
847.677
834.762
824.322
813.499
811.835
800.047
787.145
775.207
773.23
761.749
748.455
737.259
726.291
724.526
712.613
700.839
690.563
688.963
679.874
669.629
661.692
654.232
653.179
645.674
638
631.192
630.165
623.819
615.683
609.242
602.654
601.795
595.046
587.407
1438.42
1411.31
1405.74
1379.76
1351.52
1325.53
1301.02
1295.55
1268.32
1242.36
1218.48
1213.79
1188.27
1162.65
1140.29
1136.15
1113.83
1090.33
1070.3
1051.92
1047.95