/*--------------------------------*- C++ -*----------------------------------*\
| =========                 |                                                 |
| \\      /  F ield         | OpenFOAM: The Open Source CFD Toolbox           |
|  \\    /   O peration     | Version:  v2012                                 |
|   \\  /    A nd           | Website:  www.openfoam.com                      |
|    \\/     M anipulation  |                                                 |
\*---------------------------------------------------------------------------*/
FoamFile
{
    version     2.0;
    format      ascii;
    class       volScalarField;
    location    "1e-06";
    object      p;
}
// * * * * * * * * * * * * * * * * * * * * * * * * * * * * * * * * * * * * * //

dimensions      [1 -1 -2 0 0 0 0];


internalField   nonuniform List<scalar> 
10203
(
306844
310379
312749
310848
313413
315729
315547
318150
320278
322131
319754
321633
326698
327845
323435
324901
331735
331305
333212
328884
330412
337261
337002
335743
336084
341966
341520
343117
344412
346707
347779
348433
354744
356339
353964
356628
363687
366207
363092
366725
369943
371591
376014
376372
380069
378725
380845
387850
388980
392278
386084
388550
399072
399420
394409
395740
406736
406550
408467
408816
409848
416246
417425
421610
423785
426504
429881
433646
437610
441085
442625
447221
306833
310368
312749
310848
313405
315728
315546
318151
320278
322130
319753
321623
326698
327845
323435
324901
331737
331306
333213
328885
330412
337262
337004
335743
336083
341967
341520
343117
344408
346705
347778
348433
354744
356339
353964
356618
363678
366207
363091
366718
369938
371585
376014
376371
380069
378725
380839
387851
388980
392279
386085
388540
399073
399420
394410
395737
406736
406551
408467
408816
409845
416245
417426
421610
423782
426499
429876
433646
437607
441081
442623
447220
306822
310358
312748
310846
313398
315729
315546
318145
320278
322132
319754
321623
326700
327848
323436
324901
331739
331307
333215
328886
330412
337264
337006
335745
336083
341968
341520
343115
344405
346705
347775
348429
354737
356338
353962
356607
363667
366206
363090
366711
369933
371579
376014
376371
380070
378725
380840
387851
388981
392280
386085
388541
399073
399421
394411
395737
406738
406551
408467
408816
409845
416245
417422
421604
423779
426498
429870
433640
437602
441081
442623
447220
306811
310358
312749
310845
313390
315729
315546
318143
320274
322134
319753
321614
326700
327849
323436
324894
331740
331307
333216
328886
330412
337265
337006
335745
336081
341969
341520
343116
344401
346705
347774
348425
354738
356338
353961
356596
363657
366206
363089
366704
369930
371574
376014
376370
380070
378725
380835
387852
388977
392281
386083
388530
399074
399422
394411
395734
406738
406551
408467
408816
409845
416245
417422
421602
423775
426495
429864
433633
437597
441080
442619
447220
306811
310358
312750
310845
313390
315730
315544
318134
320266
322134
319751
321601
326692
327848
323433
324882
331739
331305
333215
328883
330402
337264
337006
335744
336077
341969
341518
343116
344396
346705
347774
348426
354738
356340
353961
356597
363659
366208
363090
366704
369931
371573
376014
376368
380070
378723
380825
387847
388971
392280
386083
388517
399071
399420
394408
395726
406738
406549
408465
408813
409841
416243
417419
421602
423775
426496
429860
433634
437597
441081
442619
447219
306796
310345
312749
310842
313381
315730
315544
318135
320266
322139
319752
321602
326695
327853
323435
324883
331745
331307
333220
328885
330403
337268
337011
335745
336078
341972
341518
343116
344391
346705
347771
348420
354730
356339
353956
356583
363645
366206
363087
366696
369924
371565
376014
376368
380072
378724
380827
387848
388971
392284
386085
388518
399074
399423
394411
395727
406741
406550
408466
408813
409841
416244
417418
421596
423770
426489
429852
433626
437590
441079
442614
447219
306784
310345
312750
310841
313372
315731
315542
318126
320260
322141
319750
321590
326695
327855
323434
324874
331748
331307
333221
328884
330404
337270
337014
335744
336076
341973
341517
343116
344386
346705
347769
348416
354731
356341
353953
356571
363640
366206
363086
366689
369925
371560
376014
376367
380073
378723
380822
387848
388965
392285
386083
388508
399075
399424
394410
395721
406743
406549
408466
408813
409839
416244
417416
421596
423768
426486
429845
433620
437586
441079
442609
447217
306771
310345
312750
310839
313364
315731
315541
318127
320260
322144
319748
321580
326695
327857
323432
324865
331751
331307
333223
328883
330404
337272
337017
335743
336074
341974
341516
343117
344380
346705
347766
348411
354732
356343
353949
356558
363630
366206
363084
366681
369924
371554
376014
376366
380074
378722
380822
387848
388960
392288
386081
388504
399075
399424
394410
395715
406745
406549
408466
408812
409836
416244
417413
421592
423765
426480
429837
433616
437581
441079
442604
447216
306757
310346
312751
310837
313354
315732
315542
318128
320260
322148
319746
321573
326697
327860
323431
324856
331755
331307
333226
328883
330405
337274
337022
335741
336072
341975
341515
343118
344374
346706
347763
348406
354733
356345
353944
356544
363619
366206
363082
366673
369924
371548
376014
376364
380076
378721
380823
387850
388954
392293
386079
388504
399076
399426
394410
395709
406748
406548
408466
408811
409835
416244
417410
421585
423758
426474
429829
433608
437575
441079
442598
447215
306757
310346
312754
310837
313354
315733
315539
318117
320251
322149
319740
321556
326688
327859
323425
324841
331754
331304
333224
328877
330393
337273
337022
335736
336068
341974
341512
343119
344367
346707
347762
348406
354735
356350
353940
356545
363619
366209
363083
366673
369924
371548
376015
376362
380076
378718
380811
387844
388946
392294
386070
388488
399072
399423
394407
395699
406747
406545
408463
408808
409829
416241
417406
421586
423759
426475
429821
433609
437575
441080
442592
447211
306738
310329
312752
310833
313343
315735
315540
318118
320253
322157
319742
321558
326692
327868
323428
324844
331764
331307
333232
328881
330395
337280
337032
335735
336069
341978
341512
343119
344360
346706
347758
348399
354726
356350
353930
356527
363602
366206
363078
366663
369916
371541
376015
376362
380079
378719
380813
387847
388947
392305
386070
388493
399076
399428
394411
395700
406754
406546
408465
408808
409829
416242
417403
421578
423750
426466
429811
433599
437566
441079
442585
447211
306722
310330
312753
310831
313333
315736
315538
318116
320253
322162
319739
321550
326695
327871
323426
324834
331769
331307
333235
328880
330395
337282
337039
335730
336067
341978
341510
343119
344353
346707
347754
348394
354728
356354
353923
356511
363602
366206
363075
366654
369917
371536
376015
376359
380081
378717
380814
387847
388940
392312
386064
388494
399076
399429
394410
395691
406758
406544
408465
408806
409826
416242
417399
421578
423751
426460
429801
433594
437561
441080
442577
447207
306705
310331
312753
310829
313327
315737
315537
318117
320253
322166
319736
321550
326697
327875
323424
324824
331773
331307
333238
328878
330397
337285
337048
335724
336066
341979
341507
343119
344346
346707
347750
348388
354731
356356
353916
356495
363600
366206
363073
366645
369918
371536
376015
376357
380084
378714
380814
387849
388933
392319
386058
388495
399077
399430
394409
395683
406762
406542
408465
408805
409823
416242
417395
421578
423745
426453
429791
433587
437556
441080
442569
447204
306687
310331
312754
310826
313317
315739
315536
318117
320253
322172
319733
321551
326699
327879
323422
324816
331778
331307
333242
328876
330398
337288
337057
335718
336064
341979
341505
343121
344338
346708
347745
348382
354734
356358
353909
356477
363600
366206
363069
366635
369918
371536
376016
376355
380086
378712
380816
387850
388925
392328
386051
388496
399077
399432
394409
395674
406766
406540
408466
408803
409819
416243
417390
421578
423739
426445
429779
433581
437551
441080
442560
447201
306668
310332
312755
310824
313310
315740
315535
318117
320254
322178
319730
321552
326703
327883
323420
324808
331784
331307
333245
328875
330401
337291
337065
335712
336063
341979
341503
343123
344329
346710
347740
348375
354737
356359
353903
356459
363600
366207
363066
366625
369918
371536
376016
376352
380089
378709
380818
387852
388917
392336
386043
388496
399078
399433
394409
395665
406772
406537
408466
408801
409816
416243
417385
421578
423732
426437
429768
433573
437546
441080
442551
447197
306648
310333
312756
310822
313303
315742
315535
318109
320254
322184
319727
321553
326705
327888
323418
324799
331789
331308
333249
328873
330402
337295
337074
335707
336061
341978
341500
343124
344320
346710
347735
348368
354738
356360
353897
356439
363601
366207
363063
366614
369919
371536
376017
376350
380091
378705
380819
387854
388909
392345
386043
388498
399078
399435
394408
395656
406777
406534
408466
408798
409812
416243
417380
421576
423724
426429
429755
433567
437542
441080
442541
447193
306627
310334
312756
310820
313290
315743
315534
318109
320255
322190
319724
321554
326709
327892
323417
324800
331795
331309
333252
328872
330406
337298
337082
335702
336059
341977
341498
343124
344311
346711
347729
348357
354740
356360
353890
356419
363601
366207
363059
366602
369919
371534
376017
376347
380094
378702
380821
387856
388900
392355
386025
388500
399077
399436
394408
395646
406783
406531
408466
408795
409808
416243
417374
421576
423725
426422
429742
433561
437540
441080
442529
447188
306601
310312
312752
310815
313274
315747
315537
318112
320257
322203
319728
321560
326714
327904
323425
324803
331809
331315
333264
328879
330409
337306
337097
335702
336061
341981
341497
343125
344301
346711
347721
348342
354743
356354
353879
356392
363577
366201
363050
366587
369908
371535
376018
376347
380100
378703
380827
387861
388902
392371
386018
388512
399082
399446
394415
395649
406796
406530
408470
408795
409809
416244
417369
421565
423712
426410
429727
433547
437528
441079
442518
447187
306602
310316
312759
310817
313275
315749
315531
318095
320241
322203
319715
321532
326695
327898
323411
324776
331802
331310
333256
328867
330388
337302
337095
335690
336048
341978
341493
343125
344291
346714
347715
348335
354753
356360
353880
356394
363579
366209
363051
366588
369909
371535
376018
376342
380098
378692
380810
387849
388888
392370
386009
388489
399069
399437
394405
395629
406795
406522
408465
408787
409798
416236
417361
421565
423715
426410
429713
433547
437528
441079
442505
447178
306579
310317
312760
310816
313269
315750
315532
318096
320243
322210
319712
321533
326697
327903
323409
324777
331808
331312
333258
328866
330393
337305
337102
335685
336040
341982
341491
343127
344279
346716
347708
348318
354762
356358
353874
356370
363580
366208
363046
366573
369909
371535
376019
376339
380101
378688
380815
387850
388880
392378
386001
388493
399065
399440
394405
395620
406803
406517
408465
408784
409795
416236
417355
421563
423703
426399
429698
433536
437527
441079
442491
447173
306554
310318
312761
310814
313269
315752
315533
318097
320244
322218
319709
321535
326700
327907
323408
324779
331814
331313
333261
328866
330398
337308
337109
335680
336028
341989
341489
343128
344268
346717
347699
348303
354766
356356
353868
356346
363581
366208
363041
366561
369910
371537
376019
376336
380104
378682
380817
387853
388871
392386
385993
388499
399059
399442
394405
395608
406811
406512
408466
408779
409790
416234
417347
421563
423699
426388
429681
433529
437525
441078
442475
447168
306528
310320
312761
310813
313266
315754
315533
318098
320246
322225
319706
321536
326704
327911
323407
324780
331821
331315
333263
328865
330402
337310
337115
335674
336016
341999
341486
343130
344256
346719
347690
348287
354776
356353
353863
356320
363582
366208
363037
366546
369905
371539
376020
376332
380107
378677
380819
387854
388863
392393
385985
388504
399052
399444
394405
395596
406820
406507
408466
408775
409785
416233
417340
421563
423691
426378
429664
433515
437523
441078
442459
447163
306502
310322
312761
310810
313266
315756
315534
318083
320247
322232
319703
321538
326708
327915
323406
324782
331825
331316
333265
328865
330405
337311
337121
335668
336004
342007
341483
343131
344243
346721
347679
348273
354780
356349
353858
356294
363585
366208
363031
366531
369906
371540
376020
376328
380110
378671
380825
387857
388854
392401
385976
388511
399044
399447
394405
395584
406828
406500
408467
408770
409778
416230
417332
421560
423681
426365
429645
433507
437523
441077
442441
447158
306473
310325
312759
310810
313248
315755
315536
318084
320250
322240
319701
321543
326715
327920
323407
324786
331833
331318
333268
328866
330413
337313
337127
335663
335994
342015
341480
343132
344229
346725
347666
348259
354784
356344
353853
356266
363587
366207
363025
366515
369893
371542
376021
376324
380112
378665
380832
387858
388844
392407
385968
388518
399035
399449
394404
395571
406838
406493
408467
408764
409772
416225
417324
421559
423682
426358
429625
433491
437516
441076
442422
447153
306436
310295
312748
310802
313227
315763
315544
318088
320254
322260
319715
321555
326726
327938
323427
324798
331855
331331
333289
328886
330425
337325
337146
335668
335996
342028
341482
343132
344218
346725
347649
348239
354785
356328
353838
356228
363552
366195
363007
366493
369876
371545
376021
376325
380121
378670
380842
387865
388847
392431
385979
388531
399041
399469
394421
395579
406861
406492
408478
408765
409775
416226
417318
421545
423668
426340
429603
433471
437500
441075
442404
447151
306441
310305
312761
310807
313228
315764
315536
318063
320232
322253
319693
321514
326693
327922
323403
324757
331833
331320
333267
328864
330391
337311
337136
335647
335975
342023
341477
343122
344205
346728
347640
348243
354798
356335
353846
356233
363562
366209
363011
366495
369878
371547
376022
376315
380115
378649
380828
387842
388825
392417
385947
388495
399016
399453
394402
395546
406855
406475
408468
408751
409757
416212
417306
421545
423669
426340
429583
433472
437500
441074
442381
447138
306409
310309
312761
310808
313227
315762
315540
318066
320233
322259
319693
321523
326696
327924
323404
324760
331839
331324
333268
328867
330398
337311
337141
335641
335969
342025
341477
343112
344192
346730
347625
348231
354804
356327
353841
356202
363564
366207
363005
366475
369863
371551
376022
376310
380117
378643
380836
387846
388819
392423
385941
388502
399017
399458
394405
395535
406868
406467
408470
408745
409755
416205
417296
421540
423657
426326
429559
433453
437499
441073
442359
447132
306378
310312
312759
310806
313228
315765
315543
318058
320236
322267
319691
321526
326698
327926
323406
324763
331841
331326
333269
328868
330405
337309
337147
335633
335963
342023
341477
343102
344178
346731
347609
348221
354814
356318
353837
356171
363567
366206
362996
366456
369864
371557
376022
376304
380120
378636
380847
387846
388807
392428
385932
388504
399019
399463
394405
395521
406878
406456
408472
408738
409745
416194
417286
421537
423645
426309
429534
433438
437497
441072
442335
447126
306342
310315
312757
310808
313227
315763
315548
318060
320239
322273
319690
321534
326703
327929
323408
324769
331848
331328
333271
328873
330406
337308
337153
335626
335964
342022
341478
343089
344165
346734
347594
348210
354816
356308
353833
356138
363569
366205
362989
366436
369847
371560
376023
376299
380120
378628
380857
387847
388794
392431
385923
388495
399024
399467
394406
395506
406890
406444
408473
408730
409736
416184
417275
421537
423633
426309
429508
433415
437492
441071
442310
447118
306293
310275
312737
310795
313200
315775
315565
318066
320246
322303
319719
321552
326719
327954
323447
324791
331879
331350
333306
328908
330427
337321
337180
335638
335979
342029
341485
343091
344166
346720
347572
348190
354788
356278
353812
356089
363524
366183
362960
366405
369824
371564
376023
376300
380133
378640
380879
387857
388802
392466
385947
388509
399050
399500
394436
395519
406923
406444
408492
408733
409741
416186
417269
421517
423617
426286
429478
433387
437483
441069
442287
447116
306300
310290
312757
310806
313203
315773
315551
318031
320216
322286
319684
321495
326670
327925
323408
324732
331837
331328
333268
328872
330374
337295
337161
335605
335953
342008
341480
343075
344148
346723
347561
348199
354806
356288
353828
356096
363540
366206
362969
366412
369828
371571
376019
376285
380121
378610
380864
387818
388771
392436
385899
388441
399025
399476
394405
395471
406907
406417
408478
408711
409716
416166
417253
421516
423618
426286
429451
433389
437483
441067
442258
447095
306258
310295
312757
310807
313194
315768
315560
318038
320221
322291
319686
321503
326675
327925
323412
324741
331841
331333
333270
328878
330380
337293
337166
335597
335955
342002
341481
343060
344130
346727
347543
348189
354808
356275
353825
356059
363543
366202
362962
366386
369807
371579
376020
376279
380120
378602
380876
387819
388763
392439
385892
388446
399029
399483
394409
395459
406922
406405
408480
408703
409706
416155
417239
421515
423602
426285
429420
433361
437476
441068
442230
447083
306202
310246
312730
310791
313164
315783
315586
318044
320230
322329
319727
321530
326696
327957
323467
324778
331882
331363
333316
328928
330406
337311
337203
335615
335979
342006
341493
343061
344132
346713
347517
348166
354769
356233
353799
356003
363489
366173
362926
366349
369779
371588
376020
376278
380136
378622
380905
387833
388773
392481
385929
388470
399055
399527
394451
395482
406963
406405
408506
408708
409713
416157
417235
421500
423584
426259
429382
433328
437470
441065
442205
447080
306213
310270
312757
310803
313167
315783
315567
318002
320192
322304
319683
321461
326634
327916
323417
324705
331821
331331
333267
328879
330337
337275
337177
335572
335945
341974
341489
343041
344109
346717
347507
348183
354790
356245
353819
356018
363512
366203
362938
366353
369791
371598
376015
376259
380119
378585
380880
387780
388734
392440
385868
388393
399015
399497
394410
395421
406937
406371
408489
408679
409681
416132
417215
421500
423585
426258
429350
433327
437469
441064
442172
447050
306167
310276
312759
310807
313167
315776
315578
318011
320198
322308
319687
321475
326643
327914
323424
324722
331825
331343
333267
328889
330350
337273
337182
335562
335949
341967
341492
343021
344088
346722
347487
348174
354791
356225
353815
355977
363514
366198
362928
366320
369765
371608
376017
376252
380118
378580
380902
387783
388737
392442
385865
388406
399015
399509
394417
395423
406956
406358
408493
408670
409675
416123
417196
421476
423566
426251
429311
433294
437467
441064
442144
447030
306171
310286
312760
310803
313168
315780
315586
318012
320201
322317
319689
321485
326646
327909
323433
324729
331816
331344
333269
328892
330356
337264
337191
335550
335943
341950
341496
343003
344066
346722
347466
348178
354797
356203
353809
355968
363527
366198
362913
366291
369767
371619
376013
376240
380118
378574
380919
387760
388722
392443
385855
388416
399000
399525
394415
395404
406964
406339
408499
408658
409654
416105
417179
421473
423546
426224
429270
433274
437464
441060
442110
447007
306121
310289
312758
310809
313171
315769
315596
318018
320207
322316
319688
321503
326653
327902
323436
324736
331818
331339
333267
328898
330359
337254
337195
335536
335947
341941
341497
342979
344044
346728
347452
348179
354800
356184
353807
355929
363535
366196
362902
366292
369739
371628
376018
376232
380112
378564
380937
387743
388701
392436
385843
388427
398982
399544
394401
395386
406976
406315
408500
408644
409639
416090
417156
421464
423528
426224
429228
433235
437461
441065
442083
446971
306047
310222
312712
310778
313158
315796
315641
318036
320223
322376
319763
321550
326681
327954
323534
324810
331877
331393
333354
328982
330404
337282
337258
335572
335987
341950
341517
342983
344047
346705
347422
348153
354739
356114
353766
355859
363459
366142
362842
366239
369705
371641
376018
376228
380136
378604
380989
387764
388724
392505
385913
388478
399008
399628
394459
395434
407032
406324
408547
408656
409648
416093
417158
421453
423505
426188
429177
433193
437455
441042
442054
446964
306068
310261
312760
310800
313162
315793
315609
317974
320168
322332
319690
321448
326585
327886
323453
324693
331777
331335
333279
328892
330294
337217
337217
335501
335923
341897
341506
342955
344013
346705
347415
348182
354766
356131
353796
355885
363494
366195
362865
366252
369712
371654
376005
376198
380109
378552
380939
387680
388668
392435
385819
388375
398928
399596
394374
395342
406980
406273
408518
408610
409598
416058
417131
421452
423490
426187
429133
433196
437456
441038
442014
446913
306012
310265
312763
310805
313164
315777
315623
317987
320178
322332
319692
321468
326596
327880
323460
324706
331780
331332
333287
328897
330308
337206
337228
335483
335927
341889
341506
342928
343984
346710
347403
348185
354768
356104
353792
355842
363503
366189
362851
366218
369679
371668
376012
376190
380103
378545
380968
387659
388652
392432
385813
388392
398904
399622
394361
395343
406994
406251
408522
408597
409582
416046
417102
421426
423465
426188
429083
433150
437450
441044
441988
446865
305925
310184
312703
310763
313162
315813
315683
318011
320203
322410
319792
321537
326635
327953
323589
324810
331857
331407
333404
329005
330372
337249
337314
335533
335976
341905
341535
342937
343987
346682
347369
348157
354689
356015
353738
355764
363411
366114
362772
366152
369640
371688
376008
376186
380136
378602
381039
387685
388689
392520
385907
388466
398936
399726
394438
395413
407060
406270
408580
408616
409594
416050
417106
421425
423439
426147
429019
433100
437443
441001
441956
446849
305958
310233
312763
310788
313169
315813
315642
317936
320135
322357
319700
321411
326517
327869
323485
324665
331729
331328
333314
328885
330233
337165
337265
335440
335889
341841
341519
342905
343939
346663
347371
348197
354720
356033
353773
355792
363458
366178
362800
366166
369662
371707
375992
376148
380105
378540
380979
387578
388619
392436
385790
388343
398834
399679
394333
395300
406989
406207
408541
408559
409529
416008
417075
421424
423416
426132
428968
433103
437446
441000
441910
446785
305893
310235
312770
310795
313169
315797
315658
317955
320152
322356
319701
321439
326533
327865
323487
324684
331735
331341
333322
328887
330245
337161
337279
335414
335892
341839
341521
342871
343899
346672
347358
348201
354685
355997
353771
355744
363469
366168
362788
366120
369626
371721
376004
376139
380097
378533
381010
387553
388624
392432
385782
388369
398808
399701
394317
395297
407009
406192
408540
408546
409509
416000
417038
421387
423388
426133
428905
433046
437439
441005
441884
446719
305790
310135
312693
310741
313171
315846
315733
317985
320185
322457
319833
321533
326592
327965
323648
324824
331846
331435
333468
329029
330331
337226
337388
335483
335951
341872
341560
342882
343881
346648
347321
348164
354582
355883
353705
355652
363354
366069
362698
366039
369579
371742
375999
376136
380141
378610
381102
387590
388669
392548
385905
388469
398854
399823
394422
395385
407100
406221
408610
408578
409524
416005
417044
421387
423356
426084
428830
432983
437430
440958
441843
446692
305831
310197
312770
310763
313180
315858
315676
317888
320107
322397
319715
321375
326449
327871
323506
324642
331685
331340
333353
328875
330149
337130
337321
335364
335832
341800
341540
342841
343815
346633
347324
348214
354622
355904
353752
355690
363415
366146
362737
366052
369609
371762
375989
376093
380102
378536
381027
387455
388584
392450
385756
388317
398730
399752
394293
395232
407012
406152
408557
408510
409440
415955
417008
421387
423327
426048
428773
432988
437433
440961
441790
446610
305752
310137
312781
310784
313182
315831
315689
317920
320134
322395
319721
321416
326476
327876
323497
324668
331713
331373
333348
328882
330170
337151
337326
335335
335835
341820
341546
342790
343764
346652
347301
348188
354582
355862
353753
355630
363418
366133
362730
365988
369562
371783
376012
376085
380089
378535
381066
387463
388595
392447
385756
388354
398736
399770
394285
395239
407046
406151
408552
408502
409426
415956
416965
421343
423293
426047
428700
432909
437427
440963
441755
446530
305765
310157
312784
310773
313188
315856
315708
317930
320141
322418
319735
321426
326481
327883
323507
324680
331699
331372
333362
328878
330121
337141
337344
335308
335799
341809
341552
342754
343709
346657
347277
348199
354551
355802
353741
355637
363435
366118
362707
365961
369568
371805
376013
376063
380090
378545
381094
387420
388573
392459
385744
388369
398697
399792
394277
395206
407036
406141
408559
408487
409380
415920
416935
421345
423256
425999
428633
432852
437425
440953
441701
446461
305693
310161
312798
310796
313189
315835
315723
317957
320155
322411
319730
321451
326501
327875
323486
324697
331719
331382
333350
328869
330128
337151
337340
335262
335787
341826
341554
342690
343664
346682
347260
348189
354515
355764
353749
355580
363447
366109
362704
365912
369516
371822
376040
376053
380067
378536
381136
387425
388563
392446
385728
388410
398677
399793
394255
395197
407038
406143
408548
408470
409355
415902
416889
421300
423223
425997
428563
432768
437417
440954
441660
446373
305704
310181
312800
310784
313195
315861
315742
317963
320168
322436
319744
321469
326511
327887
323498
324707
331706
331393
333363
328861
330070
337151
337358
335229
335746
341813
341563
342645
343609
346687
347233
348197
354483
355702
353738
355589
363469
366094
362680
365863
369520
371848
376038
376030
380067
378548
381177
387385
388566
392457
385714
388425
398640
399811
394248
395168
407017
406145
408563
408445
409308
415861
416858
421300
423179
425944
428492
432702
437414
440934
441599
446299
305682
310185
312816
310821
313201
315825
315758
317996
320183
322412
319725
321488
326527
327869
323458
324713
331716
331377
333338
328836
330075
337152
337342
335167
335719
341826
341555
342572
343565
346718
347233
348198
354446
355674
353755
355537
363476
366088
362687
365867
369461
371877
376073
376021
380036
378528
381201
387387
388521
392432
385679
388443
398600
399797
394208
395137
407005
406131
408553
408404
409273
415834
416807
421254
423144
425946
428425
432608
437404
440941
441551
446201
305560
310068
312714
310752
313207
315898
315858
318035
320231
322559
319907
321606
326613
328024
323664
324894
331859
331514
333537
329026
330179
337255
337489
335261
335795
341885
341617
342582
343572
346719
347198
348155
354320
355536
353674
355427
363336
365959
362568
365767
369395
371906
376071
376013
380087
378633
381319
387448
388581
392589
385843
388572
398668
399941
394356
395268
407091
406199
408661
408435
409288
415846
416815
421256
423099
425876
428342
432513
437398
440910
441479
446154
305624
310153
312810
310794
313221
315909
315783
317918
320133
322478
319754
321388
326425
327908
323467
324642
331640
331391
333372
328807
329919
337136
337387
335087
335618
341789
341580
342504
343477
346694
347200
348204
354365
355557
353731
355473
363423
366066
362630
365796
369430
371934
376067
375961
380035
378542
381218
387292
388465
392459
385644
388365
398510
399830
394184
395077
406930
406125
408595
408318
409156
415789
416771
421255
423055
425827
428284
432506
437405
440907
441393
446056
305536
310062
312821
310834
313225
315874
315801
317961
320164
322479
319764
321436
326465
327926
323449
324672
331671
331434
333367
328815
329936
337178
337391
335041
335622
341830
341586
342429
343416
346730
347182
348165
354313
355509
353735
355405
363427
366049
362627
365729
369363
371955
376106
375960
380008
378543
381263
387311
388473
392457
385647
388411
398523
399838
394175
395094
406938
406138
408598
408286
409118
415800
416721
421200
423012
425809
428203
432386
437395
440919
441320
445958
305557
310089
312815
310824
313233
315916
315824
317969
320175
322515
319788
321446
326471
327946
323464
324680
331636
331439
333390
328798
329855
337179
337411
334997
335559
341816
341595
342379
343343
346733
347155
348178
354274
355431
353716
355415
363462
366026
362603
365730
369370
371981
376113
375936
380005
378566
381302
387265
388447
392476
385631
388421
398479
399854
394168
395065
406895
406132
408620
408239
409037
415768
416706
421202
422960
425741
428131
432301
437399
440910
441226
445883
305528
310051
312830
310868
313239
315894
315842
318012
320205
322507
319784
321474
326497
327938
323437
324699
331655
331449
333384
328780
329862
337202
337405
334932
335540
341846
341599
342290
343286
346775
347144
348140
354229
355385
353729
355352
363473
366005
362607
365677
369304
372005
376160
375933
379964
378559
381346
387272
388422
392461
385611
388456
398490
399843
394140
395072
406886
406130
408616
408189
408994
415771
416659
421139
422920
425703
428053
432177
437390
440925
441151
445774
305553
310083
312821
310856
313250
315945
315866
318017
320217
322548
319813
321482
326502
327957
323467
324702
331617
331446
333419
328759
329775
337185
337432
334892
335472
341816
341615
342239
343208
346758
347118
348152
354205
355293
353708
355363
363503
365974
362581
365679
369317
372038
376165
375908
379960
378592
381385
387224
388423
392484
385593
388474
398451
399860
394135
395036
406838
406125
408642
408136
408912
415725
416663
421143
422862
425627
427978
432087
437397
440912
441055
445694
305564
310079
312835
310906
313258
315922
315887
318062
320237
322537
319813
321516
326531
327939
323450
324721
331639
331432
333423
328744
329785
337189
337428
334831
335457
341837
341617
342151
343149
346802
347119
348117
354161
355239
353722
355304
363517
365956
362585
365681
369249
372066
376214
375905
379914
378591
381430
387236
388383
392474
385570
388510
398464
399846
394106
395042
406830
406114
408643
408078
408872
415725
416611
421076
422820
425586
427898
431955
437386
440923
440981
445575
305605
310115
312815
310882
313286
315993
315915
318007
320250
322597
319854
321498
326475
327966
323496
324700
331584
331422
333478
328727
329682
337152
337474
334799
335377
341785
341636
342114
343066
346760
347093
348140
354130
355130
353694
355324
363548
365929
362541
365683
369276
372101
376207
375874
379921
378638
381462
387177
388388
392509
385551
388520
398419
399870
394104
394997
406776
406105