/*--------------------------------*- C++ -*----------------------------------*\
| =========                 |                                                 |
| \\      /  F ield         | OpenFOAM: The Open Source CFD Toolbox           |
|  \\    /   O peration     | Version:  v2012                                 |
|   \\  /    A nd           | Website:  www.openfoam.com                      |
|    \\/     M anipulation  |                                                 |
\*---------------------------------------------------------------------------*/
FoamFile
{
    version     2.0;
    format      ascii;
    class       volScalarField;
    location    "1e-06";
    object      p_rgh;
}
// * * * * * * * * * * * * * * * * * * * * * * * * * * * * * * * * * * * * * //

dimensions      [1 -1 -2 0 0 0 0];


internalField   nonuniform List<scalar> 
10203
(
305780
309305
311666
309755
312309
314615
314423
317016
319133
320975
318587
320455
325509
326644
322223
323677
330500
330057
331952
327612
329126
335963
335690
334418
334745
340614
340153
341737
343017
345298
346355
346993
353289
354869
352478
355126
362169
364673
361541
365157
368358
369988
374394
374733
378412
377050
379151
386137
387248
390526
384312
386757
397259
397586
392554
393863
404837
404629
406524
406849
407859
414233
415389
419549
421700
424393
427745
431484
435422
438870
440384
444952
305769
309295
311666
309754
312302
314615
314422
317017
319133
320975
318587
320445
325509
326645
322223
323677
330501
330058
331953
327612
329126
335964
335692
334418
334744
340614
340154
341737
343014
345295
346353
346994
353290
354869
352478
355116
362160
364672
361540
365150
368353
369982
374394
374732
378412
377050
379145
386137
387248
390527
384312
386747
397259
397586
392554
393860
404837
404630
406524
406849
407856
414232
415389
419549
421696
424388
427740
431485
435419
438866
440381
444951
305757
309285
311665
309753
312294
314615
314422
317011
319133
320977
318588
320446
325511
326647
322224
323677
330503
330059
331955
327613
329126
335965
335694
334420
334744
340616
340154
341735
343010
345295
346351
346990
353283
354868
352477
355105
362149
364672
361539
365143
368348
369976
374394
374732
378413
377050
379145
386138
387248
390527
384312
386748
397260
397587
392555
393860
404839
404630
406524
406849
407856
414232
415385
419543
421693
424387
427734
431478
435413
438867
440381
444951
305747
309284
311665
309752
312286
314616
314422
317009
319129
320978
318587
320436
325511
326648
322224
323670
330504
330059
331956
327613
329127
335966
335694
334420
334742
340617
340153
341735
343006
345296
346350
346986
353283
354868
352475
355094
362140
364672
361538
365136
368344
369971
374394
374731
378413
377050
379141
386138
387244
390529
384311
386737
397261
397588
392555
393857
404840
404630
406524
406849
407856
414232
415385
419541
421689
424385
427728
431472
435409
438866
440377
444951
305747
309284
311667
309752
312286
314616
314420
317000
319121
320979
318584
320423
325503
326647
322221
323658
330504
330057
331955
327610
329116
335965
335694
334418
334739
340617
340152
341735
343001
345296
346350
346986
353284
354870
352475
355095
362141
364673
361539
365136
368345
369970
374394
374730
378413
377048
379131
386133
387238
390527
384310
386724
397258
397586
392553
393850
404839
404628
406522
406847
407851
414230
415382
419541
421689
424385
427724
431472
435409
438866
440377
444950
305732
309271
311666
309749
312277
314617
314420
317000
319121
320983
318585
320424
325506
326652
322223
323659
330510
330059
331960
327612
329118
335969
335699
334420
334739
340619
340152
341735
342996
345296
346347
346981
353275
354869
352471
355081
362128
364671
361536
365127
368339
369963
374394
374730
378415
377049
379133
386134
387238
390531
384312
386725
397261
397589
392556
393850
404843
404629
406523
406847
407852
414231
415381
419535
421684
424378
427716
431464
435402
438864
440372
444950
305720
309271
311666
309747
312269
314617
314419
316992
319115
320985
318583
320412
325506
326654
322221
323650
330512
330059
331961
327611
329118
335971
335702
334419
334737
340620
340151
341736
342991
345296
346345
346977
353277
354871
352468
355069
362122
364672
361535
365121
368339
369957
374394
374728
378416
377048
379128
386135
387232
390533
384311
386715
397261
397589
392555
393844
404844
404629
406523
406846
407849
414231
415379
419535
421682
424375
427709
431458
435397
438864
440367
444948
305707
309272
311667
309746
312260
314618
314418
316993
319115
320989
318581
320402
325506
326657
322220
323641
330515
330059
331963
327610
329118
335973
335705
334418
334735
340621
340150
341736
342985
345296
346342
346972
353278
354873
352463
355056
362112
364672
361533
365113
368338
369951
374394
374727
378417
377047
379128
386135
387227
390536
384309
386711
397262
397590
392555
393838
404846
404628
406523
406846
407847
414231
415376
419531
421680
424369
427701
431454
435393
438865
440363
444947
305693
309272
311667
309744
312251
314619
314418
316993
319115
320992
318579
320395
325508
326660
322219
323632
330519
330059
331966
327610
329120
335975
335710
334416
334734
340623
340149
341737
342979
345296
346339
346967
353279
354875
352458
355042
362101
364672
361531
365105
368339
369945
374394
374726
378419
377046
379128
386137
387222
390540
384306
386711
397262
397592
392555
393832
404849
404627
406523
406845
407846
414231
415373
419524
421673
424363
427693
431446
435387
438865
440356
444946
305693
309272
311670
309744
312251
314620
314415
316983
319106
320993
318574
320378
325499
326659
322213
323617
330518
330056
331964
327604
329107
335975
335710
334411
334729
340622
340146
341738
342972
345297
346338
346967
353281
354880
352454
355044
362101
364674
361532
365105
368339
369945
374394
374723
378419
377043
379116
386131
387213
390542
384298
386696
397258
397589
392551
393822
404849
404624
406520
406842
407839
414228
415369
419525
421673
424364
427685
431447
435387
438865
440350
444942
305674
309255
311668
309740
312240
314621
314416
316984
319108
321001
318575
320380
325503
326667
322216
323620
330528
330059
331972
327608
329109
335981
335720
334410
334730
340625
340145
341739
342965
345297
346333
346959
353271
354880
352444
355025
362084
364671
361526
365095
368331
369938
374394
374723
378423
377043
379119
386133
387214
390552
384298
386700
397262
397594
392555
393823
404856
404625
406522
406842
407840
414229
415366
419516
421665
424355
427675
431437
435378
438865
440343
444941
305657
309256
311669
309737
312230
314623
314414
316982
319108
321006
318572
320372
325506
326671
322214
323610
330533
330059
331975
327607
329109
335984
335727
334405
334728
340626
340143
341739
342958
345297
346329
346954
353274
354883
352437
355009
362084
364672
361524
365086
368332
369933
374394
374721
378424
377041
379120
386134
387207
390559
384292
386701
397263
397595
392554
393815
404859
404623
406522
406840
407836
414229
415362
419517
421665
424349
427665
431432
435373
438865
440335
444938
305640
309257
311670
309736
312224
314624
314413
316982
319108
321011
318569
320373
325508
326674
322212
323600
330537
330059
331978
327605
329111
335987
335736
334399
334727
340626
340141
341739
342951
345298
346325
346948
353276
354886
352430
354993
362082
364672
361521
365077
368332
369933
374395
374719
378427
377039
379120
386136
387200
390567
384286
386702
397264
397596
392554
393806
404863
404621
406522
406838
407833
414229
415358
419517
421659
424342
427654
431425
435368
438865
440327
444935
305622
309257
311671
309733
312214
314625
314412
316983
319109
321016
318567
320373
325510
326678
322210
323592
330542
330059
331981
327603
329113
335990
335745
334393
334726
340626
340139
341740
342943
345299
346321
346943
353279
354888
352424
354975
362082
364672
361518
365067
368332
369933
374395
374716
378429
377036
379122
386137
387192
390575
384278
386704
397264
397598
392554
393798
404868
404619
406522
406837
407830
414230
415353
419517
421653
424334
427643
431419
435362
438865
440318
444931
305603
309258
311671
309731
312207
314627
314412
316983
319109
321022
318564
320374
325514
326683
322208
323584
330548
330059
331985
327602
329116
335993
335754
334387
334724
340626
340136
341742
342934
345300
346316
346936
353282
354889
352417
354957
362082
364672
361515
365056
368333
369933
374395
374714
378432
377033
379124
386138
387184
390584
384271
386704
397265
397599
392553
393788
404873
404616
406522
406834
407826
414230
415348
419517
421646
424326
427631
431411
435358
438865
440309
444928
305584
309259
311672
309729
312199
314629
314411
316975
319109
321028
318560
320375
325516
326687
322206
323575
330553
330060
331988
327600
329116
335996
335762
334382
334722
340626
340134
341743
342925
345300
346310
346928
353283
354890
352411
354937
362083
364672
361511
365045
368334
369933
374396
374711
378434
377030
379125
386141
387176
390593
384270
386705
397265
397600
392553
393779
404878
404613
406522
406832
407823
414230
415343
419515
421638
424318
427619
431405
435354
438865
440299
444923
305562
309260
311673
309727
312186
314630
314410
316975
319110
321035
318557
320376
325519
326692
322205
323576
330559
330061
331992
327599
329120
335999
335771
334377
334720
340625
340131
341744
342916
345301
346304
346918
353285
354890
352404
354917
362083
364672
361508
365034
368334
369931
374396
374709
378437
377026
379127
386143
387168
390602
384253
386707
397264
397602
392552
393769
404884
404610
406522
406829
407819
414230
415337
419515
421639
424311
427606
431399
435352
438865
440287
444919
305537
309238
311669
309721
312171
314634
314413
316977
319112
321048
318561
320382
325525
326704
322212
323579
330573
330067
332004
327606
329124
336008
335785
334377
334722
340628
340131
341744
342906
345301
346296
346903
353289
354884
352393
354890
362059
364667
361499
365019
368323
369932
374397
374709
378443
377027
379132
386147
387169
390618
384245
386719
397269
397611
392560
393772
404897
404609
406527
406829
407820
414231
415332
419504
421626
424299
427591
431385
435339
438864
440276
444917
305538
309242
311676
309723
312171
314636
314407
316961
319096
321047
318548
320354
325506
326698
322198
323552
330566
330061
331995
327594
329103
336003
335783
334365
334709
340626
340126
341744
342896
345304
346291
346895
353298
354890
352394
354892
362061
364674
361500
365019
368323
369932
374397
374703
378442
377016
379115
386135
387155
390617
384237
386696
397255
397603
392549
393752
404896
404601
406522
406821
407808
414223
415324
419504
421629
424299
427577
431385
435339
438864
440263
444908
305514
309243
311677
309723
312165
314636
314408
316962
319098
321054
318545
320355
325508
326702
322197
323553
330572
330063
331997
327593
329107
336006
335790
334360
334701
340630
340124
341747
342884
345306
346283
346879
353307
354888
352388
354868
362062
364674
361495
365005
368324
369932
374398
374701
378444
377012
379121
386137
387147
390626
384228
386700
397251
397606
392550
393742
404904
404596
406522
406817
407806
414223
415317
419502
421617
424288
427561
431374
435339
438864
440249
444904
305490
309244
311677
309720
312165
314639
314409
316962
319099
321062
318542
320357
325511
326707
322196
323555
330578
330064
332000
327592
329112
336009
335797
334354
334690
340637
340122
341748
342873
345308
346275
346863
353312
354886
352382
354844
362062
364674
361490
364993
368324
369934
374398
374697
378447
377007
379123
386140
387138
390634
384220
386706
397246
397608
392549
393731
404912
404591
406522
406813
407800
414221
415310
419501
421613
424277
427545
431367
435337
438863
440233
444899
305464
309246
311677
309719
312162
314640
314409
316964
319101
321069
318539
320358
325515
326711
322195
323556
330584
330066
332002
327592
329116
336011
335803
334349
334677
340646
340120
341749
342861
345309
346266
346847
353321
354883
352377
354818
362063
364673
361485
364978
368319
369936
374399
374693
378450
377002
379125
386141
387130
390641
384212
386711
397239
397610
392549
393719
404921
404585
406523
406808
407795
414220
415303
419501
421605
424266
427527
431353
435335
438863
440217
444894
305438
309249
311678
309717
312162
314642
314410
316949
319102
321077
318536
320360
325519
326714
322194
323558
330589
330068
332004
327592
329119
336013
335809
334343
334665
340655
340116
341750
342848
345312
346254
346834
353326
354879
352372
354792
362066
364673
361479
364962
368320
369937
374399
374689
378453
376996
379131
386143
387121
390648
384204
386718
397231
397612
392549
393707
404929
404579
406523
406803
407788
414217
415295
419498
421595
424254
427508
431345
435334
438862
440199
444889
305408
309251
311676
309717
312144
314642
314412
316950
319105
321084
318534
320365
325526
326719
322194
323562
330596
330070
332007
327593
329127
336015
335815
334337
334656
340663
340114
341751
342834
345315
346242
346819
353329
354874
352367
354764
362068
364673
361474
364947
368308
369939
374400
374685
378455
376989
379137
386144
387111
390654
384195
386725
397222
397615
392549
393694
404939
404572
406523
406798
407782
414211
415287
419498
421596
424247
427489
431329
435328
438861
440180
444883
305371
309221
311665
309708
312123
314649
314420
316954
319108
321105
318548
320377
325537
326737
322215
323574
330619
330083
332028
327612
329139
336026
335834
334342
334657
340675
340115
341752
342823
345316
346225
346800
353330
354857
352352
354726
362034
364660
361455
364925
368291
369942
374400
374686
378464
376994
379147
386151
387114
390678
384206
386738
397228
397634
392566
393702
404962
404570
406534
406799
407785
414213
415280
419483
421582
424229
427466
431308
435311
438860
440162
444882
305377
309231
311677
309713
312124
314650
314412
316929
319086
321097
318526
320336
325504
326721
322190
323532
330597
330071
332006
327590
329105
336012
335824
334322
334636
340670
340110
341741
342810
345318
346215
346804
353343
354864
352360
354731
362044
364674
361460
364927
368293
369944
374401
374676
378458
376974
379133
386128
387092
390664
384175
386702
397203
397619
392547
393669
404956
404554
406525
406784
407767
414199
415269
419483
421583
424229
427446
431309
435312
438859
440139
444868
305344
309235
311677
309714
312124
314649
314416
316932
319088
321103
318526
320345
325506
326724
322192
323536
330603
330076
332007
327593
329112
336012
335829
334315
334630
340672
340110
341731
342797
345321
346200
346791
353349
354856
352355
354700
362046
364672
361454
364907
368277
369948
374401
374672
378460
376968
379141
386132
387086
390670
384168
386709
397204
397624
392549
393658
404969
404546
406526
406779
407765
414191
415259
419478
421570
424215
427422
431290
435310
438858
440117
444863
305314
309238
311676
309713
312124
314651
314419
316923
319091
321112
318524
320348
325509
326726
322193
323538
330605
330078
332009
327595
329119
336010
335835
334308
334624
340670
340111
341721
342783
345321
346185
346782
353359
354848
352351
354669
362049
364672
361445
364887
368278
369953
374401
374665
378462
376960
379152
386132
387074
390675
384159
386711
397206
397629
392550
393643
404979
404535
406528
406771
407755
414181
415249
419475
421558
424198
427397
431276
435309
438856
440092
444857
305277
309241
311673
309714
312123
314649
314424
316926
319094
321117
318523
320356
325514
326728
322196
323545
330611
330079
332010
327599
329120
336009
335841
334300
334625
340669
340111
341708
342770
345324
346169
346770
353362
354838
352347
354636
362051
364670
361437
364867
368261
369957
374402
374660
378463
376952
379163
386133
387061
390678
384150
386702
397210
397633
392550
393628
404991
404523
406529
406763
407746
414171
415237
419475
421547
424197
427372
431252
435303
438856
440068
444848
305229
309201
311654
309701
312096
314661
314441
316932
319101
321147
318552
320373
325529
326753
322234
323567
330643
330102
332045
327635
329141
336022
335868
334312
334640
340676
340118
341710
342771
345310
346147
346750
353333
354808
352326
354587
362005
364648
361409
364837
368238
369961
374402
374661
378476
376964
379184
386144
387069
390713
384174
386716
397236
397665
392581
393642
405024
404523
406548
406766
407751
414173
415232
419456
421531
424174
427341
431225
435294
438853
440045
444847
305235
309216
311673
309712
312099
314659
314427
316896
319071
321130
318517
320317
325480
326724
322195
323507
330601
330079
332007
327598
329088
335996
335849
334280
334614
340655
340113
341694
342753
345313
346136
346759
353351
354818
352342
354594
362021
364671
361418
364843
368242
369968
374398
374646
378463
376934
379169
386104
387038
390683
384126
386647
397212
397642
392550
393593
405008
404496
406534
406745
407726
414152
415215
419454
421532
424175
427314
431226
435294
438851
440015
444825
305194
309221
311673
309714
312090
314654
314436
316903
319076
321135
318518
320325
325486
326724
322199
323517
330605
330085
332009
327605
329094
335993
335854
334272
334616
340649
340115
341679
342735
345317
346119
346749
353353
354804
352338
354557
362025
364667
361410
364818
368221
369975
374399
374640
378463
376926
379182
386106
387030
390686
384119
386653
397215
397649
392553
393582
405023
404484
406536
406737
407716
414141
415201
419453
421516
424174
427283
431199
435287
438852
439988
444813
305137
309172
311647
309697
312060
314669
314461
316909
319084
321173
318560
320352
325506
326756
322254
323554
330645
330115
332056
327655
329119
336011
335891
334290
334640
340653
340127
341680
342737
345303
346092
346727
353314
354763
352312
354501
361970
364638
361374
364781
368193
369985
374399
374639
378479
376946
379210
386119
387039
390728
384156
386677
397242
397692
392595
393604
405063
404484
406562
406741
407723
414143
415197
419439
421498
424147
427245
431166
435282
438849
439962
444810
305148
309196
311673
309709
312063
314670
314443
316867
319046
321148
318515
320283
325444
326715
322204
323480
330585
330083
332006
327606
329051
335976
335865
334246
334606
340622
340122
341660
342714
345307
346082
346743
353335
354774
352332
354515
361993
364668
361386
364785
368205
369995
374394
374620
378462
376909
379186
386067
387001
390687
384095
386600
397201
397662
392555
393544
405038
404449
406545
406712
407691
414118
415178
419438
421498
424147
427213
431164
435280
438848
439930
444780
305102
309202
311675
309713
312063
314662
314453
316876
319052
321152
318520
320296
325454
326713
322212
323497
330589
330095
332006
327615
329064
335974
335870
334236
334610
340614
340125
341640
342692
345312
346062
346734
353336
354755
352328
354474
361995
364663
361376
364751
368179
370005
374396
374613
378460
376904
379207
386069
387004
390689
384092
386613
397201
397674
392561
393546
405057
404437
406549
406703
407685
414109
415158
419414
421479
424139
427174
431131
435278
438848
439901
444760
305107
309212
311676
309709
312064
314666
314461
316878
319056
321161
318522
320307
325456
326708
322220
323504
330580
330096
332008
327619
329069
335964
335878
334224
334604
340597
340129
341622
342670
345312
346041
346738
353342
354733
352322
354466
362008
364663
361361
364722
368181
370016
374392
374601
378461
376898
379224
386046
386989
390690
384082
386623
397186
397690
392559
393527
405065
404417
406555
406691
407664
414091
415142
419411
421460
424113
427133
431111
435275
438844
439868
444737
305056
309215
311674
309715
312067
314655
314472
316884
319061
321159
318521
320325
325463
326701
322224
323511
330582
330091
332006
327624
329072
335954
335883
334210
334607
340588
340130
341598
342649
345318
346027
346739
353345
354713
352321
354426
362017
364661
361350
364724
368153
370024
374397
374593
378455
376888
379242
386029
386968
390683
384070
386633
397168
397709
392545
393508
405077
404393
406556
406677
407648
414077
415118
419402
421442
424112
427091
431072
435272
438849
439841
444701
304982
309148
311628
309684
312054
314682
314516
316901
319077
321219
318595
320372
325491
326753
322321
323585
330641
330144
332092
327708
329118
335982
335946
334246
334647
340597
340150
341602
342652
345295
345997
346713
353284
354644
352279
354357
361940
364607
361290
364671
368119
370038
374397
374589
378478
376928
379294
386050
386991
390751
384140
386684
397194
397793
392602
393556
405133
404403
406603
406689
407658
414079
415121
419391
421419
424076
427040
431030
435266
438827
439811
444694
305003
309187
311676
309706
312058
314678
314485
316839
319023
321176
318522
320269
325395
326685
322241
323468
330541
330086
332018
327618
329007
335918
335905
334175
334584
340544
340139
341573
342617
345295
345990
346742
353311
354660
352309
354383
361975
364659
361313
364683
368126
370051
374383
374558
378452
376876
379244
385966
386934
390682
384045
386581
397114
397761
392518
393464
405081
404351
406574
406643
407608
414045
415094
419390
421403
424075
426996
431033
435267
438822
439771
444643
304948
309190
311679
309711
312060
314663
314499
316852
319032
321175
318524
320290
325406
326679
322247
323482
330543
330083
332026
327623
329021
335907
335915
334158
334588
340536
340139
341546
342588
345300
345978
346745
353312
354633
352306
354340
361984
364654
361299
364649
368093
370065
374391
374550
378446
376869
379273
385945
386918
390678
384039
386599
397090
397787
392505
393466
405094
404329
406577
406630
407592
414032
415065
419364
421378
424077
426945
430987
435260
438828
439745
444595
304860
309109
311619
309669
312058
314699
314559
316877
319058
321254
318625
320358
325445
326752
322376
323586
330620
330158
332143
327731
329085
335949
336002
334208
334636
340552
340168
341556
342591
345272
345944
346717
353233
354544
352251
354262
361892
364579
361220
364583
368054
370084
374387
374546
378478
376925
379343
385971
386956
390767
384134
386673
397122
397891
392581
393535
405160
404348
406636
406649
407603
414036
415068
419363
421352
424035
426882
430937
435254
438785
439713
444579
304894
309158
311679
309694
312065
314699
314518
316801
318990
321200
318532
320233
325327
326668
322272
323440
330492
330079
332052
327611
328946
335865
335952
334114
334549
340488
340152
341524
342543
345253
345946
346757
353265
354562
352287
354290
361940
364642
361248
364597
368076
370103
374370
374508
378447
376864
379284
385863
386885
390683
384016
386549
397020
397844
392477
393422
405089
404285
406596
406592
407539
413994
415037
419362
421330
424020
426831
430940
435257
438784
439667
444514
304828
309160
311685
309701
312065
314683
314534
316820
319006
321200
318533
320260
325343
326664
322274
323460
330498
330092
332061
327613
328958
335861
335966
334088
334553
340486
340154
341490
342503
345261
345933
346761
353230
354526
352285
354241
361950
364633
361236
364551
368040
370117
374382
374499
378439
376857
379315
385838
386890
390679
384009
386575
396994
397866
392460
393419
405109
404270
406596
406579
407519
413986
415000
419325
421301
424021
426768
430883
435250
438789
439641
444449
304725
309061
311609
309647
312066
314731
314608
316850
319040
321301
318666
320354
325403
326764
322435
323599
330609
330186
332207
327756
329044
335927
336075
334156
334612
340518
340193
341501
342485
345237
345895
346723
353126
354412
352218
354149
361835
364533
361146
364470
367992
370138
374378
374496
378483
376934
379407
385876
386936
390795
384132
386675
397039
397988
392566
393507
405200
404299
406665
406611
407533
413991
415005
419324
421269
423972
426692
430820
435241
438742
439600
444421
304766
309123
311685
309669
312076
314744
314552
316753
318961
321240
318547
320196
325259
326670
322293
323418
330448
330091
332092
327601
328862
335830
336008
334037
334492
340447
340173
341460
342419
345223
345899
346774
353167
354433
352265
354187
361896
364610
361185
364483
368023
370158
374367
374453
378444
376860
379332
385741
386850
390697
383982
386523
396916
397917
392436
393354
405112
404230
406612
406542
407450
413941
414969
419324
421239
423936
426636
430824
435243
438745
439547
444339
304687
309062
311697
309690
312077
314717
314565
316784
318988
321238
318554
320237
325286
326675
322284
323443
330476
330124
332086
327608
328884
335851
336013
334009
334495
340467
340178
341409
342368
345241
345876
346748
353126
354390
352266
354127
361899
364598
361178
364419
367975
370179
374390
374446
378431
376859
379371
385749
386861
390693
383982
386560
396921
397935
392428
393361
405146
404229
406607
406534
407435
413942
414926
419280
421206
423935
426562
430746
435238
438746
439512
444259
304700
309082
311700
309679
312083
314741
314583
316794
318995
321261
318567
320247
325291
326681
322294
323455
330462
330123
332101
327604
328834
335841
336031
333981
334459
340455
340185
341372
342313
345247
345851
346758
353095
354331
352254
354134
361916
364582
361155
364391
367982
370201
374391
374424
378432
376868
379398
385706
386839
390705
383970
386575
396883
397956
392420
393328
405136
404219
406614
406520
407390
413905
414897
419283
421168
423887
426495
430689
435235
438737
439458
444190
304628
309086
311713
309702
312085
314721
314598
316822
319009
321254
318562
320272
325311
326673
322273
323472
330482
330133
332088
327595
328841
335851
336027
333936
334447
340473
340186
341308
342268
345271
345834
346749
353059
354293
352262
354077
361928
364574
361151
364342
367929
370218
374418
374413
378408
376859
379441
385711
386829
390692
383954
386616
396862
397958
392398
393319
405138
404221
406603
406503
407364
413888
414851
419237
421135
423885
426425
430605
435227
438738
439416
444102
304639
309106
311715
309689
312091
314746
314618
316828
319022
321279
318577
320291
325320
326685
322284
323482
330469
330143
332101
327586
328783
335851
336045
333903
334406
340459
340195
341263
342213
345277
345808
346757
353027
354231
352251
354086
361950
364558
361127
364294
367934
370244
374416
374390
378409
376871
379482
385670
386831
390704
383940
386631
396825
397975
392391
393290
405117
404222
406618
406477
407317
413846
414820
419237
421092
423832
426354
430539
435224
438717
439356
444028
304617
309110
311732
309727
312096
314710
314633
316860
319037
321255
318557
320309
325336
326667
322245
323488
330479
330128
332076
327561
328788
335852
336029
333840
334379
340472
340188
341190
342169
345307
345807
346758
352990
354202
352268
354034
361956
364552
361134
364298
367874
370273
374451
374381
378378
376851
379505
385672
386786
390678
383905
386649
396786
397961
392351
393259
405105
404208
406608
406436
407282
413819
414768
419192
421056
423834
426287
430444
435214
438724
439307
443930
304495
308994
311629
309657
312103
314783
314733
316900
319085
321402
318739
320427
325423
326822
322450
323668
330621
330265
332275
327752
328892
335955
336176
333934
334455
340531
340249
341200
342176
345308
345772
346715
352864
354064
352187
353924
361816
364423
361015
364197
367808
370301
374449
374373
378429
376956
379623
385734
386847
390835
384069
386778
396853
398106
392499
393389
405191
404277
406716
406467
407297
413831
414776
419193
421012
423763
426204
430349
435207
438694
439235
443883
304559
309078
311725
309700
312116
314795
314658
316783
318987
321321
318586
320209
325234
326706
322253
323416
330402
330142
332111
327533
328632
335836
336074
333760
334278
340436
340212
341122
342080
345283
345774
346763
352909
354085
352244
353970
361904
364530
361078
364226
367844
370330
374445
374321
378377
376865
379523
385577
386730
390705
383870
386571
396695
397994
392327
393198
405030
404202
406650
406350
407164
413775
414732
419192
420968
423714
426146
430342
435215
438690
439149
443785
304471
308987
311736
309739
312120
314759
314676
316825
319018
321322
318596
320257
325275
326724
322235
323447
330433
330184
332105
327541
328649
335878
336078
333714
334282
340476
340218
341047
342020
345319
345756
346725
352857
354037
352247
353902
361907
364513
361074
364159
367776
370350
374484
374319
378349
376866
379567
385596
386738
390703
383873
386617
396708
398002
392318
393216
405038
404215
406653
406317
407126
413786
414682
419136
420925
423696
426065
430222
435205
438702
439076
443687
304491
309014
311731
309730
312128
314802
314698
316833
319029
321358
318620
320267
325280
326744
322250
323455
330398
330189
332128
327523
328568
335879
336098
333671
334219
340462
340227
340997
341947
345322
345729
346737
352817
353960
352229
353911
361942
364489
361050
364160
367783
370377
374491
374295
378347
376889
379606
385550
386712
390722
383857
386626
396664
398018
392311
393186
404994
404209
406675
406270
407045
413753
414667
419139
420872
423628
425992
430137
435209
438693
438982
443611
304463
308976
311746
309773
312134
314779
314716
316876
319058
321350
318615
320295
325307
326736
322223
323473
330418
330199
332122
327505
328575
335902
336091
333606
334200
340492
340231
340908
341889
345363
345718
346699
352773
353914
352241
353849
361953
364469
361054
364107
367717
370401
374538
374293
378306
376882
379650
385557
386688
390707
383837
386661
396675
398007
392282
393193
404985
404208
406671
406221
407003
413756
414620
419076
420832
423590
425915
430013
435199
438708
438907
443502
304487
309008
311736
309761
312145
314830
314741
316881
319070
321391
318645
320303
325312
326755
322253
323477
330380
330196
332157
327485
328488
335885
336119
333566
334132
340462
340247
340856
341812
345347
345692
346711
352749
353821
352221
353859
361984
364438
361029
364109
367730
370433
374542
374268
378301
376914
379689
385509
386689
390730
383819
386679
396636
398024
392278
393157
404937
404202
406697
406168
406920
413710
414624
419080
420774
423514
425839
429923
435206
438695
438811
443423
304498
309004
311750
309812
312153
314807
314762
316926
319090
321380
318645
320337
325341
326736
322236
323496
330402
330182
332161
327470
328497
335888
336115
333504
334116
340482
340249
340768
341752
345390
345693
346676
352705
353768
352234
353801
361997
364420
361032
364111
367662
370461
374592
374265
378256
376914
379734
385521
386649
390719
383796
386715
396648
398010
392248
393163
404929
404191
406697
406110
406880
413710
414572
419013
420731
423473
425760
429790
435195
438706
438737
443304
304539
309040
311730
309787
312181
314878
314790
316871
319103
321440
318685
320319
325285
326764
322282
323474
330347
330172
332216
327453
328395
335851
336161
333472
334036
340431
340267
340731
341669
345348
345667
346699
352673
353658
352206
353820
362028
364393
360988
364113
367689
370496
374584
374233
378262
376960
379766
385462
386653
390754
383776
386725
396603
398033
392246
393118
404875
404182