/*--------------------------------*- C++ -*----------------------------------*\
| =========                 |                                                 |
| \\      /  F ield         | OpenFOAM: The Open Source CFD Toolbox           |
|  \\    /   O peration     | Version:  v2012                                 |
|   \\  /    A nd           | Website:  www.openfoam.com                      |
|    \\/     M anipulation  |                                                 |
\*---------------------------------------------------------------------------*/
FoamFile
{
    version     2.0;
    format      ascii;
    class       surfaceScalarField;
    location    "1e-06";
    object      phi;
}
// * * * * * * * * * * * * * * * * * * * * * * * * * * * * * * * * * * * * * //

dimensions      [0 3 -1 0 0 0 0];
oriented        oriented;


internalField   nonuniform List<scalar> 
20179
(
1.32839e-07
-1.10539e-08
1.44244e-07
-1.14055e-08
1.59946e-07
-1.57003e-08
1.73016e-07
-1.30717e-08
1.81251e-07
-8.23371e-09
1.83774e-07
-2.52382e-09
1.84521e-07
-7.46821e-10
1.90483e-07
-5.96196e-09
1.92443e-07
-1.95855e-09
1.86434e-07
6.00849e-09
1.74835e-07
1.15999e-08
1.67599e-07
7.23652e-09
1.62229e-07
5.37111e-09
1.51008e-07
1.12207e-08
1.32419e-07
1.85892e-08
1.15987e-07
1.64313e-08
1.05025e-07
1.09621e-08
9.11362e-08
1.3888e-08
7.70937e-08
1.4042e-08
5.88946e-08
1.81988e-08
3.97406e-08
1.91541e-08
2.61474e-08
1.35935e-08
1.49788e-08
1.11692e-08
2.90761e-09
1.20719e-08
-1.10266e-08
1.39347e-08
-2.20836e-08
1.10573e-08
-2.7577e-08
5.49364e-09
-2.77523e-08
1.75408e-10
-3.03837e-08
2.6315e-09
-3.1267e-08
8.83447e-10
-2.80684e-08
-3.19804e-09
-2.05925e-08
-7.4756e-09
-7.34713e-09
-1.32443e-08
4.34285e-09
-1.16894e-08
1.49076e-08
-1.05641e-08
2.78566e-08
-1.29485e-08
4.39257e-08
-1.60691e-08
5.9736e-08
-1.58101e-08
7.10954e-08
-1.13591e-08
8.11995e-08
-1.01039e-08
8.91276e-08
-7.92736e-09
9.23266e-08
-3.19884e-09
9.70888e-08
-4.76183e-09
9.80755e-08
-9.86645e-10
9.5055e-08
3.02038e-09
8.47763e-08
1.02787e-08
7.38193e-08
1.09568e-08
6.38557e-08
9.96368e-09
5.17357e-08
1.21196e-08
3.82023e-08
1.35333e-08
1.50794e-08
2.31223e-08
-9.77725e-09
2.48563e-08
-3.01163e-08
2.03386e-08
-4.70685e-08
1.69518e-08
-6.75348e-08
2.0466e-08
-9.36669e-08
2.61319e-08
-1.15864e-07
2.21964e-08
-1.31137e-07
1.52731e-08
-1.38734e-07
7.59708e-09
-1.49835e-07
1.11012e-08
-1.6867e-07
1.8834e-08
-1.79628e-07
1.0958e-08
-1.80445e-07
8.16593e-10
-1.76145e-07
-4.30042e-09
-1.78904e-07
2.7593e-09
-1.83318e-07
4.41322e-09
-1.79749e-07
-3.56864e-09
-1.70325e-07
-9.42334e-09
-1.66465e-07
-3.86012e-09
-1.69501e-07
3.03887e-09
-1.72445e-07
2.94371e-09
-1.00782e-09
1.63474e-07
-2.69667e-08
1.80346e-07
-2.82793e-08
1.9596e-07
-3.13118e-08
2.06423e-07
-2.35366e-08
2.1619e-07
-1.79999e-08
2.23909e-07
-1.02433e-08
2.24641e-07
-1.47697e-09
2.24021e-07
-5.34158e-09
2.23141e-07
-1.07671e-09
2.1904e-07
1.01089e-08
2.07326e-07
2.33159e-08
1.95291e-07
1.92709e-08
1.84203e-07
1.64609e-08
1.70515e-07
2.49077e-08
1.51232e-07
3.78722e-08
1.31423e-07
3.62398e-08
1.14824e-07
2.75597e-08
9.66858e-08
3.20259e-08
7.82364e-08
3.24909e-08
5.75207e-08
3.89146e-08
3.71304e-08
3.95449e-08
2.02659e-08
3.04591e-08
3.80804e-09
2.7628e-08
-1.07616e-08
2.66425e-08
-2.49454e-08
2.81193e-08
-3.50624e-08
2.11747e-08
-4.2785e-08
1.32166e-08
-4.63235e-08
3.71408e-09
-4.84672e-08
4.77597e-09
-4.50751e-08
-2.50816e-09
-4.00969e-08
-8.17463e-09
-3.35338e-08
-1.40377e-08
-1.90962e-08
-2.76804e-08
-4.07505e-09
-2.67094e-08
1.1014e-08
-2.56525e-08
2.64102e-08
-2.8344e-08
4.35303e-08
-3.31887e-08
6.13833e-08
-3.36627e-08
7.57587e-08
-2.57334e-08
8.79312e-08
-2.22761e-08
9.75957e-08
-1.75909e-08
1.01261e-07
-6.86431e-09
1.05271e-07
-8.77065e-09
1.0528e-07
-9.95936e-10
1.00542e-07
7.75823e-09
8.82874e-08
2.25331e-08
7.55434e-08
2.37003e-08
6.27692e-08
2.27378e-08
4.6158e-08
2.87298e-08
2.5489e-08
3.42018e-08
-1.34653e-09
4.99567e-08
-2.73011e-08
5.08101e-08
-5.04485e-08
4.34852e-08
-7.59057e-08
4.24084e-08
-1.03509e-07
4.80683e-08
-1.30262e-07
5.28856e-08
-1.50628e-07
4.25612e-08
-1.70494e-07
3.51402e-08
-1.89077e-07
2.61787e-08
-2.02776e-07
2.48005e-08
-2.14352e-07
3.0409e-08
-2.22851e-07
1.94564e-08
-2.30046e-07
8.0108e-09
-2.31708e-07
-2.63816e-09
-2.30953e-07
2.00438e-09
-2.27042e-07
5.01153e-10
-2.23479e-07
-7.1307e-09
-2.2164e-07
-1.12601e-08
-2.19274e-07
-6.22543e-09
-2.14783e-07
-1.44388e-09
-2.13906e-07
2.06312e-09
4.01699e-09
2.04077e-07
-4.61716e-08
2.2302e-07
-4.72237e-08
2.40479e-07
-4.87688e-08
2.52432e-07
-3.54916e-08
2.62839e-07
-2.84054e-08
2.70471e-07
-1.78764e-08
2.70857e-07
-1.86125e-09
2.69876e-07
-4.36043e-09
2.66565e-07
2.23649e-09
2.58641e-07
1.80326e-08
2.44336e-07
3.7623e-08
2.29923e-07
3.36833e-08
2.14369e-07
3.20165e-08
1.95509e-07
4.3767e-08
1.72673e-07
6.07084e-08
1.49426e-07
5.94856e-08
1.27556e-07
4.94289e-08
1.0405e-07
5.55309e-08
8.07857e-08
5.57549e-08
5.68885e-08
6.28119e-08
3.31505e-08
6.32835e-08
1.1862e-08
5.17487e-08
-8.00834e-09
4.74994e-08
-2.42981e-08
4.29333e-08
-4.09359e-08
4.4758e-08
-5.30076e-08
3.32468e-08
-6.15022e-08
2.17117e-08
-6.48413e-08
7.05334e-09
-6.7042e-08
6.97751e-09
-6.36025e-08
-5.94723e-09
-5.65805e-08
-1.51949e-08
-4.64816e-08
-2.41355e-08
-2.96423e-08
-4.4518e-08
-1.22728e-08
-4.40777e-08
6.08563e-09
-4.40102e-08
2.56178e-08
-4.78754e-08
4.53663e-08
-5.29367e-08
6.54143e-08
-5.37104e-08
8.24669e-08
-4.27849e-08
9.69678e-08
-3.67766e-08
1.08221e-07
-2.88425e-08
1.12275e-07
-1.09188e-08
1.15872e-07
-1.23668e-08
1.14574e-07
3.0208e-10
1.07315e-07
1.50166e-08
9.26525e-08
3.71958e-08
7.7399e-08
3.89532e-08
5.99864e-08
4.01503e-08
3.78823e-08
5.08329e-08
1.99318e-08
5.21518e-08
-1.09894e-08
8.08766e-08
-5.11503e-08
9.09702e-08
-8.04874e-08
7.28215e-08
-1.11674e-07
7.35945e-08
-1.43188e-07
7.95817e-08
-1.74305e-07
8.40025e-08
-1.99841e-07
6.80967e-08
-2.23595e-07
5.88942e-08
-2.44799e-07
4.73812e-08
-2.60376e-07
4.03781e-08
-2.74619e-07
4.46504e-08
-2.8449e-07
2.93279e-08
-2.90885e-07
1.44049e-08
-2.91754e-07
-1.76944e-09
-2.91338e-07
1.58826e-09
-2.86889e-07
-3.94828e-09
-2.82151e-07
-1.18678e-08
-2.79337e-07
-1.40716e-08
-2.76814e-07
-8.74758e-09
-2.73587e-07
-4.66343e-09
-2.73672e-07
2.14529e-09
9.93938e-09
2.14815e-07
-6.61673e-08
2.34382e-07
-6.67921e-08
2.52695e-07
-6.708e-08
2.67955e-07
-5.07535e-08
2.7893e-07
-3.93792e-08
2.84203e-07
-2.31501e-08
2.84609e-07
-2.26521e-09
2.84209e-07
-3.96041e-09
2.80769e-07
5.67881e-09
2.71782e-07
2.70188e-08
2.56716e-07
5.26918e-08
2.41606e-07
4.87923e-08
2.25328e-07
4.82966e-08
2.05438e-07
6.36552e-08
1.81392e-07
8.4755e-08
1.56967e-07
8.39098e-08
1.34331e-07
7.20642e-08
1.09627e-07
8.02333e-08
8.4763e-08
8.06187e-08
5.96759e-08
8.78992e-08
3.46993e-08
8.82606e-08
1.23182e-08
7.4131e-08
-8.4763e-09
6.82949e-08
-2.56182e-08
6.00764e-08
-4.30947e-08
6.22354e-08
-5.58959e-08
4.60484e-08
-6.48143e-08
3.06305e-08
-6.82167e-08
1.04559e-08
-7.0543e-08
9.30461e-09
-6.76526e-08
-8.83706e-09
-6.02841e-08
-2.25617e-08
-4.90153e-08
-3.54033e-08
-3.13872e-08
-6.21443e-08
-1.31138e-08
-6.235e-08
6.24251e-09
-6.33657e-08
2.66984e-08
-6.83305e-08
4.7312e-08
-7.35499e-08
6.83569e-08
-7.47549e-08
8.71086e-08
-6.15354e-08
1.02331e-07
-5.19984e-08
1.13305e-07
-3.98155e-08
1.17552e-07
-1.51655e-08
1.21322e-07
-1.61366e-08
1.19978e-07
1.64557e-09
1.12306e-07
2.26885e-08
9.69318e-08
5.257e-08
8.09999e-08
5.48845e-08
6.24883e-08
5.86617e-08
3.92106e-08
7.41096e-08
1.1246e-08
8.01158e-08
-2.09002e-08
1.13022e-07
-5.3872e-08
1.23941e-07
-8.46125e-08
1.03561e-07
-1.17232e-07
1.06214e-07
-1.50223e-07
1.12572e-07
-1.82792e-07
1.16571e-07
-2.10819e-07
9.61233e-08
-2.35692e-07
8.37675e-08
-2.56606e-07
6.82936e-08
-2.72959e-07
5.67322e-08
-2.88049e-07
5.97384e-08
-2.98458e-07
3.97374e-08
-3.04964e-07
2.09103e-08
-3.05797e-07
-9.36947e-10
-3.05381e-07
1.17202e-09
-3.0313e-07
-6.19952e-09
-2.98234e-07
-1.67636e-08
-2.92823e-07
-1.948e-08
-2.90141e-07
-1.14286e-08
-2.86859e-07
-7.93746e-09
-2.87039e-07
2.3226e-09
1.6114e-08
2.50391e-07
-8.84408e-08
2.7156e-07
-8.79628e-08
2.91111e-07
-8.66286e-08
3.06311e-07
-6.59564e-08
3.1756e-07
-5.06256e-08
3.23465e-07
-2.90564e-08
3.2328e-07
-2.07875e-09
3.21974e-07
-2.65416e-09
3.16519e-07
1.11358e-08
3.04943e-07
3.85955e-08
2.87769e-07
6.98683e-08
2.70544e-07
6.6016e-08
2.50775e-07
6.80678e-08
2.27108e-07
8.73205e-08
2.00309e-07
1.11554e-07
1.73148e-07
1.1107e-07
1.46548e-07
9.86639e-08
1.1808e-07
1.087e-07
8.98692e-08
1.08829e-07
6.23376e-08
1.15431e-07
3.49259e-08
1.15673e-07
9.58314e-09
9.9475e-08
-1.33139e-08
9.1193e-08
-3.20378e-08
7.88015e-08
-5.09163e-08
8.11147e-08
-6.48203e-08
5.99528e-08
-7.40617e-08
3.98725e-08
-7.73276e-08
1.37221e-08
-7.94631e-08
1.1441e-08
-7.56236e-08
-1.2676e-08
-6.66334e-08
-3.15501e-08
-5.32556e-08
-4.878e-08
-3.37467e-08
-8.16513e-08
-1.37991e-08
-8.22963e-08
8.22362e-09
-8.53877e-08
3.13971e-08
-9.15032e-08
5.39744e-08
-9.61267e-08
7.66999e-08
-9.74799e-08
9.6989e-08
-8.18233e-08
1.13562e-07
-6.85714e-08
1.25527e-07
-5.1779e-08
1.29843e-07
-1.94806e-08
1.33183e-07
-1.9477e-08
1.30555e-07
4.27372e-09
1.20771e-07
3.24728e-08
1.03438e-07
6.9903e-08
8.53931e-08
7.29286e-08
6.34185e-08
8.06361e-08
3.61466e-08
1.0138e-07
3.08193e-09
1.1318e-07
-3.16514e-08
1.47754e-07
-6.82927e-08
1.60582e-07
-1.03576e-07
1.38844e-07
-1.40343e-07
1.4298e-07
-1.76278e-07
1.48506e-07
-2.11917e-07
1.5221e-07
-2.42908e-07
1.27114e-07
-2.70367e-07
1.11227e-07
-2.93559e-07
9.14841e-08
-3.11123e-07
7.42967e-08
-3.27605e-07
7.6219e-08
-3.387e-07
5.08323e-08
-3.44939e-07
2.71489e-08
-3.4546e-07
-4.16944e-10
-3.45121e-07
8.33194e-10
-3.41528e-07
-9.7929e-09
-3.3609e-07
-2.22009e-08
-3.31378e-07
-2.41895e-08
-3.28764e-07
-1.40416e-08
-3.26187e-07
-1.05058e-08
-3.27425e-07
3.55691e-09
2.39061e-08
2.82887e-07
-1.1253e-07
3.05501e-07
-1.10578e-07
3.26168e-07
-1.07294e-07
3.4124e-07
-8.10305e-08
3.52642e-07
-6.20254e-08
3.59019e-07
-3.54351e-08
3.58285e-07
-1.34279e-09
3.56083e-07
-4.51443e-10
3.48899e-07
1.83222e-08
3.35352e-07
5.21419e-08
3.16382e-07
8.88413e-08
2.97196e-07
8.52012e-08
2.74534e-07
9.0731e-08
2.47876e-07
1.13978e-07
2.18714e-07
1.40717e-07
1.89117e-07
1.40665e-07
1.59158e-07
1.28622e-07
1.27607e-07
1.40251e-07
9.68491e-08
1.39586e-07
6.72317e-08
1.45049e-07
3.76452e-08
1.4526e-07
9.96053e-09
1.27161e-07
-1.48067e-08
1.15961e-07
-3.4649e-08
9.86451e-08
-5.46722e-08
1.01139e-07
-6.94561e-08
7.47372e-08
-7.89294e-08
4.93464e-08
-8.20916e-08
1.68844e-08
-8.40074e-08
1.33576e-08
-7.95359e-08
-1.7147e-08
-6.9178e-08
-4.1906e-08
-5.38311e-08
-6.41257e-08
-3.27376e-08
-1.02743e-07
-1.14908e-08
-1.03542e-07
1.28725e-08
-1.0975e-07
3.82511e-08
-1.16881e-07
6.25271e-08
-1.20402e-07
8.66771e-08
-1.21629e-07
1.08014e-07
-1.03159e-07
1.25615e-07
-8.61719e-08
1.38463e-07
-6.46257e-08
1.42783e-07
-2.38002e-08
1.45738e-07
-2.24316e-08
1.4197e-07
8.04131e-09
1.30395e-07
4.40475e-08
1.1132e-07
8.89787e-08
9.13877e-08
9.286e-08
6.64829e-08
1.05541e-07
3.59498e-08
1.31912e-07
-8.97461e-10
1.50027e-07
-3.80942e-08
1.84949e-07
-7.78289e-08
2.00315e-07
-1.167e-07
1.77714e-07
-1.56791e-07
1.8307e-07
-1.9529e-07
1.87003e-07
-2.33418e-07
1.90338e-07
-2.66737e-07
1.60433e-07
-2.9622e-07
1.40711e-07
-3.21151e-07
1.16413e-07
-3.39732e-07
9.2878e-08
-3.57238e-07
9.3724e-08
-3.6886e-07
6.24539e-08
-3.75078e-07
3.3366e-08
-3.75493e-07
-2.30169e-12
-3.75194e-07
5.33825e-10
-3.70885e-07
-1.41021e-08
-3.65158e-07
-2.79267e-08
-3.60894e-07
-2.84503e-08
-3.58432e-07
-1.65036e-08
-3.56333e-07
-1.25954e-08
-3.58531e-07
5.75173e-09
3.3295e-08
2.9806e-07
-1.37604e-07
3.21452e-07
-1.33972e-07
3.43067e-07
-1.28907e-07
3.60743e-07
-9.87087e-08
3.7266e-07
-7.39399e-08
3.77291e-07
-4.00681e-08
3.76435e-07
-4.84697e-10
3.74646e-07
1.33746e-09
3.6714e-07
2.58315e-08
3.52427e-07
6.68542e-08
3.32425e-07
1.08846e-07
3.12231e-07
1.05395e-07
2.88564e-07
1.144e-07
2.60581e-07
1.41959e-07
2.29873e-07
1.71425e-07
1.98751e-07
1.71786e-07
1.67824e-07
1.59548e-07
1.34758e-07
1.73316e-07
1.01983e-07
1.7236e-07
7.09099e-08
1.76122e-07
3.98853e-08
1.76285e-07
1.08823e-08
1.56165e-07
-1.50723e-08
1.41917e-07
-3.5922e-08
1.19496e-07
-5.69241e-08
1.22142e-07
-7.24253e-08
9.02389e-08
-8.23705e-08
5.92922e-08
-8.56857e-08
2.01999e-08
-8.77019e-08
1.53747e-08
-8.2835e-08
-2.20134e-08
-7.19329e-08
-5.28061e-08
-5.60799e-08
-7.99776e-08
-3.40209e-08
-1.248e-07
-1.16848e-08
-1.25877e-07
1.39374e-08
-1.35372e-07
4.04568e-08
-1.43399e-07
6.57466e-08
-1.45691e-07
9.10717e-08
-1.46954e-07
1.14389e-07
-1.26475e-07
1.32815e-07
-1.04598e-07
1.45297e-07
-7.71058e-08
1.49782e-07
-2.82852e-08
1.52881e-07
-2.55305e-08
1.48946e-07
1.19764e-08
1.36716e-07
5.6277e-08
1.16684e-07
1.09011e-07
9.58422e-08
1.13701e-07
6.97844e-08
1.31598e-07
3.77832e-08
1.63912e-07
-8.78595e-10
1.88688e-07
-3.99053e-08
2.23974e-07
-8.14792e-08
2.41888e-07
-1.22157e-07
2.18391e-07
-1.64167e-07
2.2508e-07
-2.04472e-07
2.27308e-07
-2.44315e-07
2.30181e-07
-2.79713e-07
1.9583e-07
-3.10553e-07
1.71551e-07
-3.36108e-07
1.41967e-07
-3.55574e-07
1.12344e-07
-3.73958e-07
1.12107e-07
-3.86147e-07
7.46431e-08
-3.92559e-07
3.97772e-08
-3.92965e-07
4.03159e-10
-3.92657e-07
2.25466e-10
-3.89035e-07
-1.7724e-08
-3.83078e-07
-3.38833e-08
-3.7773e-07
-3.37951e-08
-3.7516e-07
-1.90732e-08
-3.73026e-07
-1.47197e-08
-3.75399e-07
8.12146e-09
4.31597e-08
3.30597e-07
-1.64433e-07
3.55398e-07
-1.58776e-07
3.78116e-07
-1.51623e-07
3.95505e-07
-1.161e-07
4.07619e-07
-8.60514e-08
4.12941e-07
-4.53912e-08
4.11579e-07
8.78631e-10
4.08852e-07
4.06498e-09
3.99893e-07
3.47927e-08
3.83633e-07
8.31146e-08
3.61838e-07
1.30643e-07
3.39798e-07
1.27434e-07
3.13649e-07
1.40551e-07
2.82958e-07
1.72648e-07
2.49893e-07
2.0449e-07
2.16468e-07
2.0521e-07
1.82472e-07
1.93543e-07
1.46642e-07
2.09146e-07
1.11565e-07
2.07436e-07
7.83015e-08
2.09386e-07
4.52066e-08
2.09381e-07
1.42164e-08
1.87157e-07
-1.36407e-08
1.69776e-07
-3.5611e-08
1.41468e-07
-5.77265e-08
1.44258e-07
-7.40278e-08
1.06541e-07
-8.42926e-08
6.95575e-08
-8.75838e-08
2.34912e-08
-8.94625e-08
1.72544e-08
-8.40609e-08
-2.74143e-08
-7.19712e-08
-6.48937e-08
-5.44343e-08
-9.75132e-08
-3.09002e-08
-1.48332e-07
-6.98113e-09
-1.49794e-07
2.06387e-08
-1.62991e-07
4.90316e-08
-1.71791e-07
7.58687e-08
-1.72528e-07
1.02702e-07
-1.73787e-07
1.26937e-07
-1.50709e-07
1.46325e-07
-1.23985e-07
1.59748e-07
-9.05277e-08
1.64224e-07
-3.27614e-08
1.67028e-07
-2.83338e-08
1.62082e-07
1.69227e-08
1.48167e-07
7.01917e-08
1.26433e-07
1.30745e-07
1.03876e-07
1.36257e-07
7.51942e-08
1.6028e-07
4.0251e-08
1.98854e-07
-1.55992e-09
2.30498e-07
-4.35295e-08
2.65943e-07
-8.79382e-08
2.86296e-07
-1.31852e-07
2.62304e-07
-1.76983e-07
2.7021e-07
-2.19782e-07
2.70105e-07
-2.61981e-07
2.7238e-07
-2.99416e-07
2.33264e-07
-3.32108e-07
2.04243e-07
-3.59377e-07
1.69235e-07
-3.79844e-07
1.32811e-07
-3.99172e-07
1.31433e-07
-4.11884e-07
8.73555e-08
-4.18449e-07
4.63412e-08
-4.18856e-07
8.09356e-10
-4.18595e-07
-3.53361e-11
-4.14349e-07
-2.19708e-08
-4.08244e-07
-3.99872e-08
-4.0345e-07
-3.85859e-08
-4.01052e-07
-2.14708e-08
-3.99279e-07
-1.64824e-08
-4.02528e-07
1.13667e-08
5.45591e-08
3.48495e-07
-1.92348e-07
3.74071e-07
-1.84354e-07
3.97824e-07
-1.75374e-07
4.17846e-07
-1.36125e-07
4.30464e-07
-9.86669e-08
4.34074e-07
-4.90023e-08
4.32605e-07
2.34999e-09
4.30316e-07
6.35366e-09
4.20925e-07
4.41866e-08
4.03223e-07
1.00816e-07
3.80178e-07
1.53691e-07
3.57051e-07
1.5056e-07
3.29791e-07
1.67813e-07
2.97482e-07
2.04957e-07
2.62609e-07
2.39364e-07
2.27551e-07
2.40267e-07
1.92628e-07
2.28464e-07
1.55163e-07
2.46611e-07
1.17592e-07
2.45006e-07
8.26317e-08
2.44347e-07
4.81018e-08
2.43911e-07
1.56863e-08
2.19574e-07
-1.36403e-08
1.99103e-07
-3.67056e-08
1.64534e-07
-5.98237e-08
1.67377e-07
-7.68297e-08
1.23547e-07
-8.75793e-08
8.03077e-08
-9.1055e-08
2.69672e-08
-9.30393e-08
1.92396e-08
-8.6924e-08
-3.3529e-08
-7.42526e-08
-7.7563e-08
-5.63947e-08
-1.1537e-07
-3.17176e-08
-1.73007e-07
-6.61961e-09
-1.74891e-07
2.23841e-08
-1.91993e-07
5.1976e-08
-2.01382e-07
7.99461e-08
-2.00498e-07
1.0807e-07
-2.01911e-07
1.34544e-07
-1.77181e-07
1.54847e-07
-1.44287e-07
1.67778e-07
-1.03457e-07
1.72424e-07
-3.7407e-08
1.75397e-07
-3.13067e-08
1.70217e-07
2.21026e-08
1.55485e-07
8.49237e-08
1.32677e-07
1.53553e-07
1.09076e-07
1.59858e-07
7.91752e-08
1.90181e-07
4.26136e-08
2.35414e-07
-1.41251e-09
2.74524e-07
-4.5395e-08
3.09924e-07
-9.19291e-08
3.32829e-07
-1.37958e-07
3.08331e-07
-1.85158e-07
3.1741e-07
-2.29867e-07
3.14813e-07
-2.73999e-07
3.16512e-07
-3.13514e-07
2.72777e-07
-3.47703e-07
2.38433e-07
-3.75881e-07
1.97412e-07
-3.97266e-07
1.54196e-07
-4.17521e-07
1.51686e-07
-4.30836e-07
1.0067e-07
-4.37633e-07
5.31377e-08
-4.38046e-07
1.22179e-09
-4.37779e-07
-3.02791e-10
-4.33837e-07
-2.5913e-08
-4.27488e-07
-4.63357e-08
-4.21985e-07
-4.40847e-08
-4.195e-07
-2.39559e-08
-4.17705e-07
-1.82667e-08
-4.2118e-07
1.48386e-08
6.65913e-08
3.85031e-07
-2.22115e-07
4.12092e-07
-2.11417e-07
4.369e-07
-2.00179e-07
4.56043e-07
-1.55271e-07
4.68841e-07
-1.11463e-07
4.73727e-07
-5.38902e-08
4.71683e-07
4.39723e-09
4.68064e-07
9.97179e-09
4.57008e-07
5.52461e-08
4.37601e-07
1.20223e-07
4.1244e-07
1.78855e-07
3.8739e-07
1.7561e-07
3.57527e-07
1.97678e-07
3.22316e-07
2.40166e-07
2.85e-07
2.7668e-07
2.47596e-07
2.77669e-07
2.09298e-07
2.66761e-07
1.69047e-07
2.86861e-07
1.29309e-07
2.84743e-07
9.22523e-08
2.81404e-07
5.55405e-08
2.80624e-07
2.10606e-08
2.54055e-07
-9.68179e-09
2.29847e-07
-3.40962e-08
1.8895e-07
-5.82349e-08
1.91517e-07
-7.6033e-08
1.41346e-07
-8.69657e-08
9.1241e-08
-9.02554e-08
3.02571e-08
-9.20115e-08
2.09968e-08
-8.55662e-08
-3.99736e-08
-7.17271e-08
-9.13999e-08
-5.1647e-08
-1.35449e-07
-2.52905e-08
-1.99361e-07
5.60863e-10
-2.00741e-07
3.19583e-08
-2.2339e-07
6.35821e-08
-2.33005e-07
9.336e-08
-2.30275e-07
1.22923e-07
-2.31473e-07
1.49702e-07
-2.03959e-07
1.7083e-07
-1.65414e-07
1.85108e-07
-1.17734e-07
1.89689e-07
-4.19876e-08
1.92232e-07
-3.38489e-08
1.85844e-07
2.84904e-08
1.694e-07
1.01367e-07
1.44906e-07
1.78046e-07
1.19286e-07
1.85477e-07
8.63538e-08
2.23113e-07
4.67744e-08
2.74992e-07
-5.22713e-10
3.2182e-07
-4.67974e-08
3.56197e-07
-9.63275e-08
3.82358e-07
-1.45741e-07
3.57744e-07
-1.95906e-07
3.67574e-07
-2.4301e-07
3.61916e-07
-2.89563e-07
3.63066e-07
-3.3122e-07
3.14433e-07
-3.67218e-07
2.74432e-07
-3.97028e-07
2.2722e-07
-4.19386e-07
1.76556e-07
-4.40577e-07
1.72875e-07
-4.54471e-07
1.14564e-07
-4.6151e-07
6.01758e-08
-4.61983e-07
1.69396e-09
-4.61776e-07
-5.09819e-10
-4.57341e-07
-3.03478e-08
-4.50899e-07
-5.27771e-08
-4.45903e-07
-4.90774e-08
-4.43618e-07
-2.62394e-08
-4.4216e-07
-1.97145e-08
-4.46553e-07
1.92281e-08
8.0324e-08
4.22473e-07
-2.53732e-07
4.51142e-07
-2.40088e-07
4.77066e-07
-2.261e-07
4.95435e-07
-1.73642e-07
5.08447e-07
-1.24473e-07
5.14559e-07
-6.00035e-08
5.11972e-07
6.98746e-09
5.0697e-07
1.49733e-08
4.9424e-07
6.79792e-08
4.73196e-07
1.41267e-07
4.46106e-07
2.05948e-07
4.19167e-07
2.02548e-07
3.86598e-07
2.3025e-07
3.48649e-07
2.78113e-07
3.09027e-07
3.16302e-07
2.69313e-07
3.17382e-07
2.27511e-07
3.08561e-07
1.84463e-07
3.29909e-07
1.42908e-07
3.26296e-07
1.03764e-07
3.20548e-07
6.4745e-08
3.19644e-07
2.82815e-08
2.9052e-07
-4.32572e-09
2.62456e-07
-2.95354e-08
2.14161e-07
-5.46682e-08
2.16651e-07
-7.34016e-08
1.6008e-07
-8.45328e-08
1.02373e-07
-8.75907e-08
3.33153e-08
-8.91105e-08
2.25177e-08
-8.26941e-08
-4.63893e-08
-6.77196e-08
-1.06372e-07
-4.51067e-08
-1.5806e-07
-1.72036e-08
-2.27262e-07
1.10179e-08
-2.28961e-07
4.30817e-08
-2.55453e-07
7.67858e-08
-2.66708e-07
1.08397e-07
-2.61886e-07
1.39347e-07
-2.62423e-07
1.66308e-07
-2.30918e-07
1.88274e-07
-1.8738e-07
2.03983e-07
-1.33442e-07
2.08533e-07
-4.65373e-08
2.10606e-07
-3.59215e-08
2.03047e-07
3.60499e-08
1.85066e-07
1.19347e-07
1.58888e-07
2.04224e-07
1.31197e-07
2.13167e-07
9.51447e-08
2.59166e-07
5.26148e-08
3.17521e-07
3.31975e-09
3.71114e-07
-4.61187e-08
4.05634e-07
-9.86768e-08
4.34915e-07
-1.51303e-07
4.10369e-07
-2.0427e-07
4.2054e-07
-2.53819e-07
4.11465e-07
-3.02832e-07
4.12079e-07
-3.46809e-07
3.58408e-07
-3.84609e-07
3.12232e-07
-4.15803e-07
2.58413e-07
-4.39192e-07
1.99945e-07
-4.61394e-07
1.95075e-07
-4.75926e-07
1.29096e-07
-4.83221e-07
6.74692e-08
-4.83769e-07
2.24193e-09
-4.83641e-07
-6.38542e-10
-4.7912e-07
-3.48691e-08
-4.72602e-07
-5.9294e-08
-4.67734e-07
-5.39413e-08
-4.6563e-07
-2.8343e-08
-4.64493e-07
-2.08403e-08
-4.69793e-07
2.45243e-08
9.5666e-08
4.45682e-07
-2.86599e-07
4.75168e-07
-2.69576e-07
5.0228e-07
-2.5321e-07
5.23073e-07
-1.94438e-07
5.36608e-07
-1.38006e-07
5.41258e-07
-6.46543e-08
5.38439e-07
9.80873e-09
5.33757e-07
1.96549e-08
5.2035e-07
8.13892e-08
4.97515e-07
1.64102e-07
4.69039e-07
2.34427e-07
4.40823e-07
2.30763e-07
4.06765e-07
2.6431e-07
3.66888e-07
3.17988e-07
3.25144e-07
3.58046e-07
2.83523e-07
3.59002e-07
2.4052e-07
3.51562e-07
1.95443e-07
3.74985e-07
1.51134e-07
3.70605e-07
1.10092e-07
3.6159e-07
6.94238e-08
3.60313e-07
3.13199e-08
3.28626e-07
-3.02546e-09
2.96803e-07
-2.94318e-08
2.40569e-07
-5.56937e-08
2.42914e-07
-7.5115e-08
1.79502e-07
-8.67794e-08
1.14038e-07
-9.01266e-08
3.66628e-08
-9.17051e-08
2.40973e-08
-8.42605e-08
-5.38332e-08
-6.85301e-08
-1.221e-07
-4.55943e-08
-1.80994e-07
-1.64163e-08
-2.56437e-07
1.32048e-08
-2.5858e-07
4.68187e-08
-2.89066e-07
8.19933e-08
-3.01882e-07
1.14905e-07
-2.94796e-07
1.47253e-07
-2.9477e-07
1.76484e-07
-2.60147e-07
1.99422e-07
-2.10318e-07
2.14707e-07
-1.48724e-07
2.1939e-07
-5.12206e-08
2.21593e-07
-3.81238e-08
2.13687e-07
4.39565e-08
1.94725e-07
1.38309e-07
1.67187e-07
2.31762e-07
1.38117e-07
2.42236e-07
1.00761e-07
2.96521e-07
5.62335e-08
3.62047e-07
4.40095e-09
4.22946e-07
-4.75162e-08
4.57549e-07
-1.02532e-07
4.8993e-07
-1.57518e-07
4.65353e-07
-2.12934e-07
4.75955e-07
-2.64805e-07
4.63335e-07
-3.16082e-07
4.63356e-07
-3.62017e-07
4.04343e-07
-4.01527e-07
3.51743e-07
-4.34188e-07
2.91071e-07
-4.58675e-07
2.24433e-07
-4.81896e-07
2.18294e-07
-4.97097e-07
1.44297e-07
-5.04723e-07
7.50943e-08
-5.05322e-07
2.83974e-09
-5.05195e-07
-7.65555e-10
-5.00499e-07
-3.95659e-08
-4.93722e-07
-6.60701e-08
-4.8866e-07
-5.89994e-08
-4.86496e-07
-3.05061e-08
-4.8537e-07
-2.19542e-08
-4.91062e-07
3.02119e-08
1.11923e-07
4.85671e-07
-3.2145e-07
5.16989e-07
-3.00897e-07
5.45363e-07
-2.81581e-07
5.65474e-07
-2.14552e-07
5.79354e-07
-1.51883e-07
5.8535e-07
-7.06512e-08
5.81998e-07
1.31625e-08
5.75829e-07
2.58247e-08
5.6089e-07
9.63311e-08
5.36931e-07
1.88061e-07
5.067e-07
2.64661e-07
4.76442e-07
2.61019e-07
4.39643e-07
3.01111e-07
3.97142e-07
3.60488e-07
3.53035e-07
4.02153e-07
3.08999e-07
4.03037e-07
2.62335e-07
3.98225e-07
2.14448e-07
4.22872e-07
1.68427e-07
4.16624e-07
1.25055e-07
4.04963e-07
8.1858e-08
4.03511e-07
4.16758e-08
3.6881e-07
6.24629e-09
3.32234e-07
-2.22185e-08
2.69036e-07
-4.94503e-08
2.70147e-07
-7.00489e-08
2.00101e-07
-8.20958e-08
1.26085e-07
-8.5265e-08
3.98322e-08
-8.67409e-08
2.55743e-08
-7.95668e-08
-6.10066e-08
-6.279e-08
-1.38874e-07
-3.72442e-08
-2.06539e-07
-6.67338e-09
-2.87006e-07
2.47712e-08
-2.90023e-07
5.9847e-08
-3.2414e-07
9.70962e-08
-3.3913e-07
1.31854e-07
-3.29553e-07
1.65761e-07
-3.28677e-07
1.95324e-07
-2.89709e-07
2.19281e-07
-2.34274e-07
2.3619e-07
-1.65632e-07
2.40885e-07
-5.59155e-08
2.4269e-07
-3.99285e-08
2.3373e-07
5.2916e-08
2.133e-07
1.58738e-07
1.83989e-07
2.61074e-07
1.52915e-07
2.73309e-07
1.12476e-07
3.36961e-07
6.50759e-08
4.09446e-07
1.13122e-08
4.76709e-07
-4.42151e-08
5.13075e-07
-1.02327e-07
5.4804e-07
-1.60489e-07
5.23515e-07
-2.18878e-07
5.34343e-07
-2.73465e-07
5.17921e-07
-3.27327e-07
5.17218e-07
-3.75818e-07
4.52832e-07
-4.1729e-07
3.93216e-07
-4.51332e-07
3.25111e-07
-4.76987e-07
2.50089e-07
-5.01375e-07
2.4268e-07
-5.17304e-07
1.60226e-07
-5.25237e-07
8.30262e-08
-5.25933e-07
3.53529e-09
-5.25911e-07
-7.87888e-10
-5.21383e-07
-4.40937e-08
-5.14554e-07
-7.28986e-08
-5.0938e-07
-6.4169e-08
-5.07372e-07
-3.25134e-08
-5.06563e-07
-2.2751e-08
-5.13114e-07
3.67582e-08
1.29707e-07
5.12466e-07
-3.5765e-07
5.44608e-07
-3.33041e-07
5.74284e-07
-3.11254e-07
5.96909e-07
-2.3718e-07
6.11325e-07
-1.66297e-07
6.15815e-07
-7.51426e-08
6.12186e-07
1.67942e-08
6.06427e-07
3.15839e-08
5.90743e-07
1.12018e-07
5.64752e-07
2.14052e-07
5.3297e-07
2.96447e-07
5.01319e-07
2.92669e-07
4.62908e-07
3.39525e-07
4.18179e-07
4.05216e-07
3.71696e-07
4.48637e-07
3.25628e-07
4.49104e-07
2.77637e-07
4.46215e-07
2.27456e-07
4.73051e-07
1.78338e-07
4.65742e-07
1.3286e-07
4.50441e-07
8.79275e-08
4.48444e-07
4.59628e-08
4.10776e-07
8.67784e-09
3.6952e-07
-2.12169e-08
2.98932e-07
-4.96899e-08
2.98621e-07
-7.09381e-08
2.2135e-07
-8.35672e-08
1.38715e-07
-8.71072e-08
4.33726e-08
-8.86303e-08
2.70986e-08
-8.02327e-08
-6.94035e-08
-6.26429e-08
-1.56461e-07
-3.68091e-08
-2.32371e-07
-4.89501e-09
-3.18917e-07
2.8076e-08
-3.22992e-07
6.49118e-08
-3.60975e-07
1.03752e-07
-3.77969e-07
1.39888e-07
-3.65688e-07
1.75322e-07
-3.64111e-07
2.07324e-07
-3.21709e-07
2.32337e-07
-2.59286e-07
2.48805e-07
-1.82098e-07
2.53616e-07
-6.0726e-08
2.55573e-07
-4.18854e-08
2.46207e-07
6.22826e-08
2.24631e-07
1.80314e-07
1.93751e-07
2.91953e-07
1.61123e-07
3.05936e-07
1.19371e-07
3.78712e-07
6.97653e-08
4.5905e-07
1.30788e-08
5.33395e-07
-4.51398e-08
5.71291e-07
-1.05957e-07
6.08855e-07
-1.66736e-07
5.84293e-07
-2.27851e-07
5.95457e-07
-2.84978e-07
5.75047e-07
-3.41325e-07
5.73565e-07
-3.91779e-07
5.03285e-07
-4.35108e-07
4.36546e-07
-4.70931e-07
3.60931e-07
-4.97767e-07
2.76926e-07
-5.23234e-07
2.68145e-07
-5.39871e-07
1.76863e-07
-5.48208e-07
9.13618e-08
-5.48984e-07
4.31011e-09
-5.48973e-07
-7.98285e-10
-5.44049e-07
-4.90185e-08
-5.36954e-07
-7.99926e-08
-5.31827e-07
-6.92917e-08
-5.29798e-07
-3.45414e-08
-5.29009e-07
-2.35271e-08
-5.35979e-07
4.37237e-08
1.48518e-07
5.57348e-07
-3.96063e-07
5.91645e-07
-3.6734e-07
6.22697e-07
-3.42304e-07
6.44413e-07
-2.58899e-07
6.59257e-07
-1.81138e-07
6.65475e-07
-8.1362e-08
6.61278e-07
2.09937e-08
6.53675e-07
3.91872e-08
6.36364e-07
1.29333e-07
6.09497e-07
2.40918e-07
5.75885e-07
3.30062e-07
5.41971e-07
3.26582e-07
5.0057e-07
3.80929e-07
4.53151e-07
4.52633e-07
4.04345e-07
4.97443e-07
3.55645e-07
4.97802e-07
3.03407e-07
4.98452e-07
2.50173e-07
5.26284e-07
1.99483e-07
5.16431e-07
1.51498e-07
4.98425e-07
1.03715e-07
4.96229e-07
5.94837e-08
4.55009e-07
2.11284e-08
4.07877e-07
-1.06084e-08
3.30671e-07
-4.0293e-08
3.28307e-07
-6.30997e-08
2.44157e-07
-7.61351e-08
1.51751e-07
-7.93696e-08
4.66073e-08
-8.08035e-08
2.85338e-08
-7.30407e-08
-7.71654e-08
-5.44463e-08
-1.75053e-07
-2.50432e-08
-2.61772e-07
7.82854e-09
-3.51786e-07
4.24565e-08
-3.57618e-07
8.09271e-08
-3.99445e-07
1.22032e-07
-4.19072e-07
1.60222e-07
-4.03878e-07
1.97328e-07
-4.01216e-07
2.29462e-07
-3.53842e-07
2.55615e-07
-2.85439e-07
2.74117e-07
-2.00598e-07
2.78959e-07
-6.55676e-08
2.80417e-07
-4.33422e-08
2.69911e-07
7.27882e-08
2.46909e-07
2.03316e-07
2.14155e-07
3.24707e-07
1.79348e-07
3.40742e-07
1.34135e-07
4.23925e-07
8.15279e-08
5.11656e-07
2.29296e-08
5.91992e-07
-3.89404e-08
6.3316e-07
-1.03135e-07
6.73048e-07
-1.67355e-07
6.48512e-07
-2.31511e-07
6.59612e-07
-2.91488e-07
6.35023e-07
-3.50658e-07
6.32735e-07
-4.04107e-07
5.56733e-07
-4.49533e-07
4.81972e-07
-4.86592e-07
3.97988e-07
-5.14682e-07
3.05017e-07
-5.41488e-07
2.94949e-07
-5.58972e-07
1.94347e-07
-5.67616e-07
1.00005e-07
-5.6849e-07
5.183e-09
-5.68611e-07
-6.77775e-10
-5.64158e-07
-5.34715e-08
-5.57016e-07
-8.71338e-08
-5.51488e-07
-7.48154e-08
-5.49611e-07
-3.64177e-08
-5.49151e-07
-2.39739e-08
-5.56967e-07
5.15354e-08
1.68746e-07
5.88296e-07
-4.35932e-07
6.23434e-07
-4.02481e-07
6.55924e-07
-3.74791e-07
6.8029e-07
-2.83268e-07
6.9571e-07
-1.96555e-07
7.00351e-07
-8.60051e-08
6.9582e-07
2.55278e-08
6.88692e-07
4.63155e-08
6.70549e-07
1.47479e-07
6.41386e-07
2.7008e-07
6.06032e-07
3.65421e-07
5.70593e-07
3.62019e-07
5.27469e-07
4.24055e-07
4.77641e-07
5.0246e-07
4.2623e-07
5.48854e-07
3.7521e-07
5.4882e-07
3.2147e-07
5.5219e-07
2.65615e-07
5.82138e-07
2.11441e-07
5.70605e-07
1.61091e-07
5.48775e-07
1.11503e-07
5.45817e-07
6.53315e-08
5.01183e-07
2.48173e-08
4.48393e-07
-8.50324e-09
3.63993e-07
-3.93961e-08
3.59201e-07
-6.28408e-08
2.67603e-07
-7.65169e-08
1.65428e-07
-8.02292e-08
5.032e-08
-8.16874e-08
2.99932e-08
-7.25112e-08
-8.63408e-08
-5.30418e-08
-1.9452e-07
-2.33869e-08
-2.91426e-07
1.09195e-08
-3.8609e-07
4.71921e-08
-3.93889e-07
8.76462e-08
-4.39897e-07
1.30462e-07
-4.61886e-07
1.70113e-07
-4.43528e-07
2.0889e-07
-4.39992e-07
2.43706e-07
-3.88656e-07
2.71012e-07
-3.12744e-07
2.89001e-07
-2.18586e-07
2.93942e-07
-7.05081e-08
2.95572e-07
-4.49715e-08
2.84592e-07
8.37684e-08
2.60255e-07
2.27652e-07
2.25679e-07
3.59283e-07
1.89144e-07
3.77276e-07
1.42603e-07
4.70466e-07
8.75483e-08
5.66709e-07
2.53312e-08
6.54208e-07
-3.94531e-08
6.97942e-07
-1.06333e-07
7.39927e-07
-1.73462e-07
7.1564e-07
-2.4062e-07
7.26769e-07
-3.03387e-07
6.97788e-07
-3.65308e-07
6.94656e-07
-4.20702e-07
6.12125e-07
-4.68131e-07
5.29402e-07
-5.07282e-07
4.37137e-07
-5.36653e-07
3.34389e-07
-5.64602e-07
3.22896e-07
-5.8285e-07
2.12595e-07
-5.91995e-07
1.09149e-07
-5.92995e-07
6.18168e-09
-5.93136e-07
-5.3634e-10
-5.88091e-07
-5.85176e-08
-5.80693e-07
-9.45306e-08
-5.75437e-07
-8.00664e-08
-5.73546e-07
-3.83074e-08
-5.73075e-07
-2.44312e-08
-5.81328e-07
5.97836e-08
1.9006e-07
6.38985e-07
-4.78313e-07
6.76708e-07
-4.40207e-07
7.10704e-07
-4.08783e-07
7.33801e-07
-3.06369e-07
7.49725e-07
-2.12476e-07
7.56609e-07
-9.28914e-08
7.51471e-07
3.06695e-08
7.42053e-07
5.57339e-08
7.22191e-07
1.67344e-07
6.9248e-07
2.99791e-07
6.55233e-07
4.02672e-07
6.17274e-07
3.99977e-07
5.70865e-07
4.70467e-07
5.18382e-07
5.54942e-07
4.6466e-07
6.02576e-07
4.10734e-07
6.02744e-07
3.52129e-07
6.10794e-07
2.93028e-07
6.41238e-07
2.37428e-07
6.26204e-07
1.84281e-07
6.01922e-07
1.31389e-07
5.98711e-07
8.26519e-08
5.49922e-07
4.09441e-08
4.90103e-07
5.90419e-09
3.99035e-07
-2.57735e-08
3.9088e-07
-5.17378e-08
2.93568e-07
-6.58626e-08
1.79554e-07
-6.90794e-08
5.35371e-08
-7.04499e-08
3.13651e-08
-6.24603e-08
-9.43294e-08
-4.2043e-08
-2.14934e-07
-8.70229e-09
-3.24765e-07
2.70882e-08
-4.21877e-07
6.49611e-08
-4.3176e-07
1.07166e-07
-4.82101e-07
1.52504e-07
-5.07223e-07
1.94487e-07
-4.85511e-07
2.35064e-07
-4.80568e-07
2.69665e-07
-4.23255e-07
2.98275e-07
-3.41354e-07