/*--------------------------------*- C++ -*----------------------------------*\
| =========                 |                                                 |
| \\      /  F ield         | OpenFOAM: The Open Source CFD Toolbox           |
|  \\    /   O peration     | Version:  v2012                                 |
|   \\  /    A nd           | Website:  www.openfoam.com                      |
|    \\/     M anipulation  |                                                 |
\*---------------------------------------------------------------------------*/
FoamFile
{
    version     2.0;
    format      ascii;
    class       volScalarField;
    location    "1e-06";
    object      pMean;
}
// * * * * * * * * * * * * * * * * * * * * * * * * * * * * * * * * * * * * * //

dimensions      [1 -1 -2 0 0 0 0];


internalField   nonuniform List<scalar> 
10203
(
2.5847e+07
2.58291e+07
2.58008e+07
2.57518e+07
2.57118e+07
2.56708e+07
2.56189e+07
2.55687e+07
2.55081e+07
2.54285e+07
2.53264e+07
2.52325e+07
2.51408e+07
2.50147e+07
2.48533e+07
2.47065e+07
2.45713e+07
2.43956e+07
2.4189e+07
2.39473e+07
2.37211e+07
2.35097e+07
2.32614e+07
2.29851e+07
2.27159e+07
2.24641e+07
2.21866e+07
2.18989e+07
2.1607e+07
2.13148e+07
2.10201e+07
2.07295e+07
2.04537e+07
2.01531e+07
1.9826e+07
1.95225e+07
1.92398e+07
1.89318e+07
1.85931e+07
1.8272e+07
1.79598e+07
1.76474e+07
1.73395e+07
1.70126e+07
1.66823e+07
1.63369e+07
1.60081e+07
1.57006e+07
1.53674e+07
1.50101e+07
1.46272e+07
1.42904e+07
1.40015e+07
1.36714e+07
1.3314e+07
1.3e+07
1.27391e+07
1.24483e+07
1.21422e+07
1.18278e+07
1.15259e+07
1.12525e+07
1.09711e+07
1.06954e+07
1.04129e+07
1.01302e+07
9.85092e+06
9.57221e+06
9.29147e+06
9.00211e+06
8.70249e+06
8.40547e+06
2.5847e+07
2.58291e+07
2.58008e+07
2.57518e+07
2.57117e+07
2.56707e+07
2.56189e+07
2.55688e+07
2.55082e+07
2.54286e+07
2.53264e+07
2.52325e+07
2.51409e+07
2.50149e+07
2.48534e+07
2.47066e+07
2.45716e+07
2.43958e+07
2.41892e+07
2.39474e+07
2.37211e+07
2.35098e+07
2.32616e+07
2.29852e+07
2.27159e+07
2.24642e+07
2.21867e+07
2.1899e+07
2.1607e+07
2.13148e+07
2.10201e+07
2.07295e+07
2.04537e+07
2.01531e+07
1.9826e+07
1.95224e+07
1.92398e+07
1.89318e+07
1.85931e+07
1.8272e+07
1.79598e+07
1.76474e+07
1.73395e+07
1.70126e+07
1.66823e+07
1.63369e+07
1.60081e+07
1.57007e+07
1.53675e+07
1.50103e+07
1.46272e+07
1.42904e+07
1.40015e+07
1.36715e+07
1.3314e+07
1.3e+07
1.27391e+07
1.24484e+07
1.21423e+07
1.18278e+07
1.15259e+07
1.12525e+07
1.09712e+07
1.06955e+07
1.04129e+07
1.01302e+07
9.8509e+06
9.57225e+06
9.29146e+06
9.00208e+06
8.70246e+06
8.40551e+06
2.5847e+07
2.5829e+07
2.58009e+07
2.57518e+07
2.57118e+07
2.56708e+07
2.5619e+07
2.5569e+07
2.55084e+07
2.54288e+07
2.53264e+07
2.52326e+07
2.51412e+07
2.50151e+07
2.48535e+07
2.47068e+07
2.45719e+07
2.43961e+07
2.41895e+07
2.39475e+07
2.37213e+07
2.351e+07
2.32618e+07
2.29853e+07
2.2716e+07
2.24642e+07
2.21868e+07
2.18991e+07
2.1607e+07
2.13148e+07
2.102e+07
2.07295e+07
2.04537e+07
2.01531e+07
1.9826e+07
1.95224e+07
1.92397e+07
1.89318e+07
1.8593e+07
1.8272e+07
1.79598e+07
1.76474e+07
1.73395e+07
1.70126e+07
1.66824e+07
1.63369e+07
1.60081e+07
1.57008e+07
1.53677e+07
1.50105e+07
1.46272e+07
1.42904e+07
1.40017e+07
1.36717e+07
1.33141e+07
1.3e+07
1.27392e+07
1.24485e+07
1.21424e+07
1.18279e+07
1.15258e+07
1.12525e+07
1.09712e+07
1.06955e+07
1.04128e+07
1.01302e+07
9.85089e+06
9.57224e+06
9.29144e+06
9.00206e+06
8.70244e+06
8.40552e+06
2.5847e+07
2.58292e+07
2.58011e+07
2.57519e+07
2.57119e+07
2.5671e+07
2.5619e+07
2.55691e+07
2.55087e+07
2.5429e+07
2.53264e+07
2.52326e+07
2.51413e+07
2.50153e+07
2.48535e+07
2.47068e+07
2.45721e+07
2.43963e+07
2.41896e+07
2.39475e+07
2.37213e+07
2.35102e+07
2.32619e+07
2.29854e+07
2.2716e+07
2.24643e+07
2.21868e+07
2.18991e+07
2.16071e+07
2.13148e+07
2.102e+07
2.07295e+07
2.04538e+07
2.01532e+07
1.9826e+07
1.95224e+07
1.92398e+07
1.89319e+07
1.8593e+07
1.8272e+07
1.79597e+07
1.76474e+07
1.73395e+07
1.70126e+07
1.66824e+07
1.63368e+07
1.60081e+07
1.57008e+07
1.53677e+07
1.50108e+07
1.46272e+07
1.42903e+07
1.40017e+07
1.36717e+07
1.33141e+07
1.3e+07
1.27392e+07
1.24485e+07
1.21424e+07
1.18278e+07
1.15258e+07
1.12525e+07
1.09711e+07
1.06955e+07
1.04128e+07
1.01302e+07
9.85088e+06
9.57225e+06
9.29144e+06
9.00204e+06
8.70241e+06
8.40552e+06
2.58472e+07
2.58294e+07
2.58014e+07
2.57522e+07
2.57122e+07
2.56712e+07
2.56191e+07
2.55693e+07
2.55089e+07
2.54292e+07
2.53264e+07
2.52325e+07
2.51414e+07
2.50154e+07
2.48535e+07
2.47067e+07
2.45723e+07
2.43965e+07
2.41897e+07
2.39475e+07
2.37212e+07
2.35102e+07
2.32619e+07
2.29854e+07
2.27159e+07
2.24642e+07
2.21868e+07
2.18992e+07
2.16071e+07
2.13149e+07
2.102e+07
2.07295e+07
2.0454e+07
2.01533e+07
1.9826e+07
1.95224e+07
1.92399e+07
1.8932e+07
1.8593e+07
1.8272e+07
1.79598e+07
1.76474e+07
1.73395e+07
1.70127e+07
1.66824e+07
1.63368e+07
1.60081e+07
1.57008e+07
1.53678e+07
1.5011e+07
1.46271e+07
1.42903e+07
1.40017e+07
1.36717e+07
1.33141e+07
1.29999e+07
1.27391e+07
1.24485e+07
1.21424e+07
1.18278e+07
1.15258e+07
1.12525e+07
1.09711e+07
1.06955e+07
1.04128e+07
1.01302e+07
9.85087e+06
9.57229e+06
9.29145e+06
9.00203e+06
8.70238e+06
8.40552e+06
2.58473e+07
2.58296e+07
2.58016e+07
2.57524e+07
2.57125e+07
2.56715e+07
2.56194e+07
2.55697e+07
2.55093e+07
2.54296e+07
2.53265e+07
2.52327e+07
2.51418e+07
2.50159e+07
2.48537e+07
2.47069e+07
2.45728e+07
2.43969e+07
2.41901e+07
2.39477e+07
2.37214e+07
2.35105e+07
2.32621e+07
2.29855e+07
2.2716e+07
2.24644e+07
2.21869e+07
2.18993e+07
2.16071e+07
2.13149e+07
2.102e+07
2.07294e+07
2.0454e+07
2.01533e+07
1.9826e+07
1.95224e+07
1.92398e+07
1.8932e+07
1.8593e+07
1.8272e+07
1.79597e+07
1.76473e+07
1.73395e+07
1.70127e+07
1.66825e+07
1.63368e+07
1.60081e+07
1.5701e+07
1.5368e+07
1.50113e+07
1.46271e+07
1.42903e+07
1.40018e+07
1.36719e+07
1.33141e+07
1.29999e+07
1.27392e+07
1.24486e+07
1.21425e+07
1.18278e+07
1.15258e+07
1.12525e+07
1.09711e+07
1.06954e+07
1.04128e+07
1.01302e+07
9.85086e+06
9.57229e+06
9.29144e+06
9.00201e+06
8.70235e+06
8.40553e+06
2.58475e+07
2.58298e+07
2.58019e+07
2.57527e+07
2.57127e+07
2.56718e+07
2.56196e+07
2.557e+07
2.55097e+07
2.543e+07
2.53266e+07
2.52327e+07
2.51422e+07
2.50162e+07
2.48537e+07
2.4707e+07
2.45732e+07
2.43973e+07
2.41904e+07
2.39477e+07
2.37214e+07
2.35107e+07
2.32623e+07
2.29856e+07
2.2716e+07
2.24645e+07
2.21869e+07
2.18994e+07
2.16072e+07
2.13149e+07
2.102e+07
2.07294e+07
2.04542e+07
2.01533e+07
1.98259e+07
1.95224e+07
1.92398e+07
1.8932e+07
1.8593e+07
1.8272e+07
1.79597e+07
1.76473e+07
1.73395e+07
1.70128e+07
1.66826e+07
1.63368e+07
1.6008e+07
1.57011e+07
1.53681e+07
1.50116e+07
1.46271e+07
1.42903e+07
1.40019e+07
1.36719e+07
1.3314e+07
1.29999e+07
1.27392e+07
1.24486e+07
1.21425e+07
1.18278e+07
1.15258e+07
1.12524e+07
1.09711e+07
1.06954e+07
1.04128e+07
1.01301e+07
9.85085e+06
9.5723e+06
9.29144e+06
9.00199e+06
8.70232e+06
8.40554e+06
2.58477e+07
2.58301e+07
2.58022e+07
2.5753e+07
2.57131e+07
2.56722e+07
2.562e+07
2.55703e+07
2.55101e+07
2.54304e+07
2.53266e+07
2.52327e+07
2.51425e+07
2.50165e+07
2.48537e+07
2.4707e+07
2.45736e+07
2.43977e+07
2.41907e+07
2.39478e+07
2.37214e+07
2.35108e+07
2.32624e+07
2.29856e+07
2.2716e+07
2.24645e+07
2.21869e+07
2.18995e+07
2.16072e+07
2.13149e+07
2.102e+07
2.07293e+07
2.04544e+07
2.01534e+07
1.98259e+07
1.95223e+07
1.92399e+07
1.89321e+07
1.8593e+07
1.82719e+07
1.79597e+07
1.76473e+07
1.73396e+07
1.70128e+07
1.66826e+07
1.63367e+07
1.6008e+07
1.57011e+07
1.53682e+07
1.50118e+07
1.46271e+07
1.42902e+07
1.40019e+07
1.36719e+07
1.3314e+07
1.29998e+07
1.27392e+07
1.24486e+07
1.21425e+07
1.18277e+07
1.15257e+07
1.12524e+07
1.0971e+07
1.06954e+07
1.04128e+07
1.01301e+07
9.85083e+06
9.57232e+06
9.29145e+06
9.00199e+06
8.70229e+06
8.40554e+06
2.5848e+07
2.58304e+07
2.58025e+07
2.57534e+07
2.57134e+07
2.56725e+07
2.56203e+07
2.55707e+07
2.55106e+07
2.54308e+07
2.53266e+07
2.52327e+07
2.51427e+07
2.50168e+07
2.48537e+07
2.4707e+07
2.45739e+07
2.4398e+07
2.41908e+07
2.39477e+07
2.37214e+07
2.35109e+07
2.32623e+07
2.29856e+07
2.2716e+07
2.24645e+07
2.21869e+07
2.18996e+07
2.16073e+07
2.1315e+07
2.102e+07
2.07293e+07
2.04547e+07
2.01536e+07
1.98259e+07
1.95223e+07
1.92401e+07
1.89323e+07
1.8593e+07
1.82719e+07
1.79597e+07
1.76472e+07
1.73396e+07
1.70128e+07
1.66826e+07
1.63367e+07
1.6008e+07
1.57011e+07
1.53682e+07
1.50119e+07
1.46271e+07
1.42902e+07
1.40019e+07
1.36718e+07
1.3314e+07
1.29998e+07
1.27391e+07
1.24485e+07
1.21424e+07
1.18277e+07
1.15257e+07
1.12524e+07
1.0971e+07
1.06954e+07
1.04127e+07
1.01301e+07
9.85081e+06
9.57233e+06
9.29145e+06
9.002e+06
8.70225e+06
8.40553e+06
2.58483e+07
2.58307e+07
2.58029e+07
2.57537e+07
2.57137e+07
2.56729e+07
2.56206e+07
2.55711e+07
2.5511e+07
2.54312e+07
2.53265e+07
2.52326e+07
2.5143e+07
2.50169e+07
2.48537e+07
2.47069e+07
2.45741e+07
2.43983e+07
2.41908e+07
2.39477e+07
2.37213e+07
2.35108e+07
2.32622e+07
2.29856e+07
2.27159e+07
2.24645e+07
2.21869e+07
2.18997e+07
2.16074e+07
2.13152e+07
2.102e+07
2.07293e+07
2.04551e+07
2.01539e+07
1.9826e+07
1.95224e+07
1.92403e+07
1.89326e+07
1.85932e+07
1.82719e+07
1.79597e+07
1.76472e+07
1.73396e+07
1.70129e+07
1.66825e+07
1.63366e+07
1.60079e+07
1.5701e+07
1.53682e+07
1.50118e+07
1.4627e+07
1.42901e+07
1.40018e+07
1.36718e+07
1.33139e+07
1.29997e+07
1.27391e+07
1.24485e+07
1.21424e+07
1.18276e+07
1.15256e+07
1.12523e+07
1.09709e+07
1.06953e+07
1.04127e+07
1.01301e+07
9.85077e+06
9.57235e+06
9.29145e+06
9.00201e+06
8.70222e+06
8.40551e+06
2.58485e+07
2.58309e+07
2.58032e+07
2.57541e+07
2.57141e+07
2.56733e+07
2.5621e+07
2.55715e+07
2.55115e+07
2.54318e+07
2.53271e+07
2.52332e+07
2.51436e+07
2.50177e+07
2.48543e+07
2.47076e+07
2.45749e+07
2.43991e+07
2.41916e+07
2.39482e+07
2.37218e+07
2.35114e+07
2.32627e+07
2.29859e+07
2.27162e+07
2.24648e+07
2.2187e+07
2.18999e+07
2.16075e+07
2.13152e+07
2.10199e+07
2.07292e+07
2.04551e+07
2.01538e+07
1.9826e+07
1.95223e+07
1.92403e+07
1.89326e+07
1.85931e+07
1.82718e+07
1.79597e+07
1.76472e+07
1.73396e+07
1.7013e+07
1.66827e+07
1.63366e+07
1.60079e+07
1.57014e+07
1.53686e+07
1.50124e+07
1.4627e+07
1.42901e+07
1.40021e+07
1.3672e+07
1.3314e+07
1.29997e+07
1.27393e+07
1.24486e+07
1.21424e+07
1.18276e+07
1.15256e+07
1.12523e+07
1.09709e+07
1.06953e+07
1.04126e+07
1.013e+07
9.85072e+06
9.57231e+06
9.29141e+06
9.00199e+06
8.70218e+06
8.40557e+06
2.58488e+07
2.58313e+07
2.58036e+07
2.57545e+07
2.57145e+07
2.56737e+07
2.56215e+07
2.55719e+07
2.5512e+07
2.54324e+07
2.53277e+07
2.52338e+07
2.51443e+07
2.50185e+07
2.48549e+07
2.47083e+07
2.45757e+07
2.43999e+07
2.41924e+07
2.39488e+07
2.37223e+07
2.3512e+07
2.32631e+07
2.29863e+07
2.27164e+07
2.2465e+07
2.21872e+07
2.19e+07
2.16076e+07
2.13152e+07
2.10199e+07
2.07291e+07
2.04551e+07
2.01537e+07
1.9826e+07
1.95223e+07
1.92402e+07
1.89326e+07
1.85931e+07
1.82718e+07
1.79596e+07
1.76471e+07
1.73396e+07
1.70131e+07
1.66829e+07
1.63366e+07
1.60079e+07
1.57017e+07
1.53689e+07
1.50128e+07
1.4627e+07
1.42901e+07
1.40024e+07
1.36722e+07
1.33139e+07
1.29997e+07
1.27394e+07
1.24486e+07
1.21424e+07
1.18276e+07
1.15255e+07
1.12522e+07
1.09708e+07
1.06952e+07
1.04126e+07
1.01299e+07
9.85065e+06
9.57227e+06
9.29137e+06
9.00197e+06
8.70217e+06
8.40565e+06
2.58491e+07
2.58316e+07
2.5804e+07
2.57549e+07
2.57149e+07
2.56741e+07
2.56219e+07
2.55724e+07
2.55126e+07
2.5433e+07
2.53283e+07
2.52344e+07
2.5145e+07
2.50193e+07
2.48557e+07
2.4709e+07
2.45766e+07
2.44008e+07
2.41933e+07
2.39494e+07
2.37229e+07
2.35126e+07
2.32635e+07
2.29867e+07
2.27167e+07
2.24653e+07
2.21874e+07
2.19002e+07
2.16077e+07
2.13153e+07
2.10199e+07
2.0729e+07
2.04551e+07
2.01536e+07
1.9826e+07
1.95223e+07
1.92402e+07
1.89325e+07
1.8593e+07
1.82718e+07
1.79596e+07
1.76471e+07
1.73397e+07
1.70133e+07
1.6683e+07
1.63365e+07
1.60079e+07
1.5702e+07
1.53693e+07
1.50133e+07
1.4627e+07
1.429e+07
1.40026e+07
1.36724e+07
1.33139e+07
1.29996e+07
1.27395e+07
1.24487e+07
1.21424e+07
1.18275e+07
1.15254e+07
1.12521e+07
1.09708e+07
1.06951e+07
1.04125e+07
1.01299e+07
9.85057e+06
9.57222e+06
9.29132e+06
9.00196e+06
8.70218e+06
8.40578e+06
2.58494e+07
2.5832e+07
2.58044e+07
2.57553e+07
2.57153e+07
2.56746e+07
2.56224e+07
2.55729e+07
2.55132e+07
2.54337e+07
2.53289e+07
2.5235e+07
2.51457e+07
2.50201e+07
2.48565e+07
2.47098e+07
2.45775e+07
2.44018e+07
2.41942e+07
2.39501e+07
2.37235e+07
2.35132e+07
2.3264e+07
2.29872e+07
2.2717e+07
2.24657e+07
2.21875e+07
2.19004e+07
2.16078e+07
2.13154e+07
2.10199e+07
2.07289e+07
2.04551e+07
2.01535e+07
1.9826e+07
1.95222e+07
1.92402e+07
1.89325e+07
1.8593e+07
1.82717e+07
1.79595e+07
1.7647e+07
1.73397e+07
1.70134e+07
1.66832e+07
1.63365e+07
1.60079e+07
1.57023e+07
1.53696e+07
1.50137e+07
1.4627e+07
1.42899e+07
1.40029e+07
1.36725e+07
1.33138e+07
1.29996e+07
1.27395e+07
1.24487e+07
1.21424e+07
1.18274e+07
1.15253e+07
1.12521e+07
1.09707e+07
1.0695e+07
1.04124e+07
1.01298e+07
9.85047e+06
9.57215e+06
9.29127e+06
9.00195e+06
8.70221e+06
8.40594e+06
2.58497e+07
2.58324e+07
2.58049e+07
2.57558e+07
2.57157e+07
2.56751e+07
2.56229e+07
2.55734e+07
2.55138e+07
2.54344e+07
2.53296e+07
2.52357e+07
2.51465e+07
2.5021e+07
2.48574e+07
2.47107e+07
2.45785e+07
2.44029e+07
2.41953e+07
2.39509e+07
2.37243e+07
2.35139e+07
2.32646e+07
2.29878e+07
2.27174e+07
2.24661e+07
2.21878e+07
2.19007e+07
2.1608e+07
2.13154e+07
2.10198e+07
2.07288e+07
2.04551e+07
2.01533e+07
1.9826e+07
1.95222e+07
1.92401e+07
1.89325e+07
1.85929e+07
1.82717e+07
1.79595e+07
1.7647e+07
1.73397e+07
1.70136e+07
1.66834e+07
1.63364e+07
1.60079e+07
1.57027e+07
1.537e+07
1.50142e+07
1.4627e+07
1.42899e+07
1.40031e+07
1.36726e+07
1.33138e+07
1.29995e+07
1.27396e+07
1.24487e+07
1.21424e+07
1.18273e+07
1.15252e+07
1.1252e+07
1.09706e+07
1.0695e+07
1.04123e+07
1.01297e+07
9.85036e+06
9.57208e+06
9.29123e+06
9.00196e+06
8.70228e+06
8.40616e+06
2.58501e+07
2.58328e+07
2.58053e+07
2.57563e+07
2.57162e+07
2.56756e+07
2.56234e+07
2.5574e+07
2.55144e+07
2.54351e+07
2.53303e+07
2.52364e+07
2.51473e+07
2.5022e+07
2.48584e+07
2.47116e+07
2.45795e+07
2.4404e+07
2.41966e+07
2.39519e+07
2.37252e+07
2.35147e+07
2.32653e+07
2.29884e+07
2.2718e+07
2.24665e+07
2.2188e+07
2.1901e+07
2.16082e+07
2.13155e+07
2.10198e+07
2.07287e+07
2.04551e+07
2.01532e+07
1.98259e+07
1.95222e+07
1.92401e+07
1.89324e+07
1.85929e+07
1.82716e+07
1.79594e+07
1.76469e+07
1.73397e+07
1.70137e+07
1.66836e+07
1.63364e+07
1.6008e+07
1.57031e+07
1.53705e+07
1.50148e+07
1.46271e+07
1.42898e+07
1.40034e+07
1.36728e+07
1.33138e+07
1.29994e+07
1.27398e+07
1.24488e+07
1.21423e+07
1.18272e+07
1.15251e+07
1.12519e+07
1.09705e+07
1.06948e+07
1.04122e+07
1.01295e+07
9.85025e+06
9.57201e+06
9.29119e+06
9.00199e+06
8.70236e+06
8.40643e+06
2.58505e+07
2.58332e+07
2.58058e+07
2.57568e+07
2.57167e+07
2.56761e+07
2.56239e+07
2.55746e+07
2.55151e+07
2.54359e+07
2.53311e+07
2.52372e+07
2.51481e+07
2.5023e+07
2.48594e+07
2.47126e+07
2.45806e+07
2.44052e+07
2.41979e+07
2.39531e+07
2.37264e+07
2.35157e+07
2.32661e+07
2.29893e+07
2.27186e+07
2.24671e+07
2.21884e+07
2.19013e+07
2.16084e+07
2.13156e+07
2.10198e+07
2.07286e+07
2.04551e+07
2.01531e+07
1.98259e+07
1.95221e+07
1.924e+07
1.89324e+07
1.85928e+07
1.82715e+07
1.79594e+07
1.76469e+07
1.73398e+07
1.70139e+07
1.66839e+07
1.63364e+07
1.60082e+07
1.57037e+07
1.5371e+07
1.50155e+07
1.4627e+07
1.42898e+07
1.40038e+07
1.36731e+07
1.33138e+07
1.29994e+07
1.274e+07
1.24488e+07
1.21423e+07
1.18271e+07
1.1525e+07
1.12517e+07
1.09703e+07
1.06947e+07
1.04121e+07
1.01294e+07
9.85012e+06
9.57193e+06
9.29117e+06
9.00203e+06
8.70248e+06
8.40676e+06
2.58509e+07
2.58337e+07
2.58063e+07
2.57573e+07
2.57173e+07
2.56768e+07
2.56246e+07
2.55752e+07
2.55158e+07
2.54367e+07
2.53319e+07
2.5238e+07
2.5149e+07
2.5024e+07
2.48605e+07
2.47137e+07
2.45817e+07
2.44064e+07
2.41994e+07
2.39546e+07
2.37278e+07
2.35169e+07
2.32673e+07
2.29903e+07
2.27195e+07
2.24678e+07
2.21888e+07
2.19016e+07
2.16086e+07
2.13156e+07
2.10197e+07
2.07285e+07
2.04549e+07
2.01529e+07
1.98259e+07
1.9522e+07
1.92399e+07
1.89323e+07
1.85927e+07
1.82715e+07
1.79593e+07
1.76468e+07
1.73398e+07
1.70142e+07
1.66842e+07
1.63366e+07
1.60085e+07
1.57043e+07
1.53716e+07
1.50162e+07
1.46269e+07
1.42901e+07
1.40044e+07
1.36736e+07
1.3314e+07
1.29995e+07
1.27403e+07
1.2449e+07
1.21424e+07
1.18271e+07
1.15249e+07
1.12516e+07
1.09702e+07
1.06946e+07
1.04119e+07
1.01293e+07
9.84999e+06
9.57184e+06
9.29115e+06
9.00209e+06
8.70263e+06
8.40717e+06
2.58514e+07
2.58343e+07
2.58069e+07
2.57579e+07
2.57179e+07
2.56774e+07
2.56251e+07
2.55758e+07
2.55165e+07
2.54374e+07
2.53323e+07
2.52384e+07
2.51495e+07
2.50243e+07
2.48604e+07
2.47136e+07
2.4582e+07
2.44068e+07
2.41993e+07
2.39545e+07
2.37276e+07
2.35169e+07
2.32671e+07
2.29902e+07
2.27194e+07
2.24678e+07
2.21889e+07
2.19019e+07
2.16089e+07
2.13159e+07
2.102e+07
2.0729e+07
2.04557e+07
2.01535e+07
1.98262e+07
1.95223e+07
1.92405e+07
1.89329e+07
1.85929e+07
1.82714e+07
1.79594e+07
1.76468e+07
1.73399e+07
1.70141e+07
1.66841e+07
1.63365e+07
1.60084e+07
1.57042e+07
1.53715e+07
1.50161e+07
1.46269e+07
1.42899e+07
1.40043e+07
1.36735e+07
1.33139e+07
1.29994e+07
1.27402e+07
1.24488e+07
1.21423e+07
1.18269e+07
1.15247e+07
1.12514e+07
1.097e+07
1.06944e+07
1.04118e+07
1.01291e+07
9.84987e+06
9.57185e+06
9.2912e+06
9.00222e+06
8.70279e+06
8.40748e+06
2.5852e+07
2.58349e+07
2.58076e+07
2.57585e+07
2.57185e+07
2.5678e+07
2.56258e+07
2.55765e+07
2.55173e+07
2.54383e+07
2.5333e+07
2.52392e+07
2.51504e+07
2.50248e+07
2.48607e+07
2.47141e+07
2.45828e+07
2.44076e+07
2.41996e+07
2.39546e+07
2.37277e+07
2.3517e+07
2.32671e+07
2.29904e+07
2.27194e+07
2.24679e+07
2.2189e+07
2.19022e+07
2.16091e+07
2.13164e+07
2.10202e+07
2.07293e+07
2.04562e+07
2.0154e+07
1.98265e+07
1.95224e+07
1.92408e+07
1.89333e+07
1.85931e+07
1.82714e+07
1.79594e+07
1.76468e+07
1.734e+07
1.70141e+07
1.66841e+07
1.63364e+07
1.60083e+07
1.57041e+07
1.53714e+07
1.50159e+07
1.46268e+07
1.42898e+07
1.40042e+07
1.36734e+07
1.33137e+07
1.29992e+07
1.27401e+07
1.24487e+07
1.21421e+07
1.18267e+07
1.15246e+07
1.12513e+07
1.09698e+07
1.06943e+07
1.04116e+07
1.0129e+07
9.84973e+06
9.57183e+06
9.29126e+06
9.00238e+06
8.70299e+06
8.40788e+06
2.58525e+07
2.58355e+07
2.58083e+07
2.57592e+07
2.57191e+07
2.56787e+07
2.56265e+07
2.55772e+07
2.55181e+07
2.54392e+07
2.53339e+07
2.52401e+07
2.51514e+07
2.50258e+07
2.48614e+07
2.4715e+07
2.45839e+07
2.44085e+07
2.42003e+07
2.39551e+07
2.37281e+07
2.35175e+07
2.32674e+07
2.29907e+07
2.27197e+07
2.24681e+07
2.21893e+07
2.19025e+07
2.16094e+07
2.13167e+07
2.10204e+07
2.07295e+07
2.04566e+07
2.01543e+07
1.98266e+07
1.95224e+07
1.92411e+07
1.89335e+07
1.85931e+07
1.82713e+07
1.79594e+07
1.76468e+07
1.734e+07
1.70142e+07
1.6684e+07
1.63363e+07
1.60082e+07
1.5704e+07
1.53714e+07
1.50158e+07
1.46268e+07
1.42896e+07
1.40042e+07
1.36733e+07
1.33136e+07
1.29991e+07
1.274e+07
1.24486e+07
1.2142e+07
1.18265e+07
1.15244e+07
1.12511e+07
1.09697e+07
1.06941e+07
1.04115e+07
1.01288e+07
9.84959e+06
9.57181e+06
9.29133e+06
9.00256e+06
8.70323e+06
8.40837e+06
2.58531e+07
2.58361e+07
2.5809e+07
2.57599e+07
2.57198e+07
2.56794e+07
2.56272e+07
2.5578e+07
2.55189e+07
2.54401e+07
2.53348e+07
2.52411e+07
2.51524e+07
2.5027e+07
2.48626e+07
2.47161e+07
2.45852e+07
2.44098e+07
2.42014e+07
2.39561e+07
2.3729e+07
2.35182e+07
2.32679e+07
2.29914e+07
2.27202e+07
2.24685e+07
2.21897e+07
2.19029e+07
2.16098e+07
2.13172e+07
2.10206e+07
2.07296e+07
2.04567e+07
2.01545e+07
1.98266e+07
1.95223e+07
1.9241e+07
1.89335e+07
1.8593e+07
1.82712e+07
1.79593e+07
1.76468e+07
1.73402e+07
1.70143e+07
1.6684e+07
1.63362e+07
1.60081e+07
1.57041e+07
1.53715e+07
1.50156e+07
1.46267e+07
1.42895e+07
1.40041e+07
1.36732e+07
1.33134e+07
1.29989e+07
1.27399e+07
1.24485e+07
1.21418e+07
1.18263e+07
1.15242e+07
1.12509e+07
1.09695e+07
1.0694e+07
1.04113e+07
1.01287e+07
9.84945e+06
9.57176e+06
9.29141e+06
9.00277e+06
8.70352e+06
8.40896e+06
2.58537e+07
2.58369e+07
2.58097e+07
2.57607e+07
2.57206e+07
2.56802e+07
2.5628e+07
2.55788e+07
2.55198e+07
2.54411e+07
2.53358e+07
2.52421e+07
2.51535e+07
2.50282e+07
2.4864e+07
2.47174e+07
2.45866e+07
2.44113e+07
2.42031e+07
2.39576e+07
2.37305e+07
2.35193e+07
2.32689e+07
2.29923e+07
2.27211e+07
2.24692e+07
2.21902e+07
2.19033e+07
2.16101e+07
2.13175e+07
2.10208e+07
2.07296e+07
2.04566e+07
2.01543e+07
1.98266e+07
1.95222e+07
1.92409e+07
1.89334e+07
1.8593e+07
1.82711e+07
1.79592e+07
1.76468e+07
1.73403e+07
1.70145e+07
1.66841e+07
1.63361e+07
1.60082e+07
1.57044e+07
1.53718e+07
1.50157e+07
1.46266e+07
1.42893e+07
1.40041e+07
1.36731e+07
1.33133e+07
1.29987e+07
1.27398e+07
1.24483e+07
1.21416e+07
1.18261e+07
1.15239e+07
1.12507e+07
1.09693e+07
1.06938e+07
1.04111e+07
1.01285e+07
9.8493e+06
9.57172e+06
9.29151e+06
9.00301e+06
8.70387e+06
8.40968e+06
2.58544e+07
2.58376e+07
2.58105e+07
2.57615e+07
2.57213e+07
2.5681e+07
2.56289e+07
2.55797e+07
2.55208e+07
2.54422e+07
2.53369e+07
2.52432e+07
2.51547e+07
2.50296e+07
2.48654e+07
2.47188e+07
2.45881e+07
2.44128e+07
2.42049e+07
2.39595e+07
2.37323e+07
2.3521e+07
2.32705e+07
2.29938e+07
2.27226e+07
2.24701e+07
2.21909e+07
2.19039e+07
2.16106e+07
2.13179e+07
2.10209e+07
2.07296e+07
2.04565e+07
2.01542e+07
1.98266e+07
1.95221e+07
1.92408e+07
1.89333e+07
1.85928e+07
1.8271e+07
1.79591e+07
1.76468e+07
1.73405e+07
1.70148e+07
1.66845e+07
1.63363e+07
1.60087e+07
1.57052e+07
1.53724e+07
1.50163e+07
1.46269e+07
1.42896e+07
1.40044e+07
1.36733e+07
1.33133e+07
1.29987e+07
1.274e+07
1.24482e+07
1.21414e+07
1.18259e+07
1.15237e+07
1.12504e+07
1.09691e+07
1.06936e+07
1.0411e+07
1.01283e+07
9.84914e+06
9.57165e+06
9.29162e+06
9.00329e+06
8.70428e+06
8.41056e+06
2.5855e+07
2.58382e+07
2.58112e+07
2.57622e+07
2.57221e+07
2.56819e+07
2.56298e+07
2.55806e+07
2.55219e+07
2.54434e+07
2.53381e+07
2.52444e+07
2.5156e+07
2.5031e+07
2.4867e+07
2.47203e+07
2.45897e+07
2.44146e+07
2.42069e+07
2.39615e+07
2.37342e+07
2.35229e+07
2.32726e+07
2.2996e+07
2.27245e+07
2.24715e+07
2.21919e+07
2.19046e+07
2.16112e+07
2.1318e+07
2.10209e+07
2.07295e+07
2.04562e+07
2.0154e+07
1.98264e+07
1.95219e+07
1.92406e+07
1.89332e+07
1.85927e+07
1.82709e+07
1.79589e+07
1.76468e+07
1.73406e+07
1.70152e+07
1.66851e+07
1.6337e+07
1.60097e+07
1.57064e+07
1.53734e+07
1.50176e+07
1.46279e+07
1.42906e+07
1.40053e+07
1.3674e+07
1.33137e+07
1.29991e+07
1.27406e+07
1.24484e+07
1.21415e+07
1.18258e+07
1.15235e+07
1.12502e+07
1.09688e+07
1.06934e+07
1.04107e+07
1.01281e+07
9.84896e+06
9.57157e+06
9.29174e+06
9.00359e+06
8.70475e+06
8.41162e+06
2.58559e+07
2.58392e+07
2.58122e+07
2.57632e+07
2.5723e+07
2.56828e+07
2.56307e+07
2.55815e+07
2.55228e+07
2.54444e+07
2.53391e+07
2.52453e+07
2.5157e+07
2.50316e+07
2.48673e+07
2.47209e+07
2.45904e+07
2.44152e+07
2.42069e+07
2.39614e+07
2.37341e+07
2.35231e+07
2.32725e+07
2.2996e+07
2.27246e+07
2.24715e+07
2.21923e+07
2.19051e+07
2.16116e+07
2.13187e+07
2.10216e+07
2.07305e+07
2.04574e+07
2.0155e+07
1.98271e+07
1.95225e+07
1.92415e+07
1.8934e+07
1.8593e+07
1.82709e+07
1.79591e+07
1.76469e+07
1.73408e+07
1.70151e+07
1.6685e+07
1.63368e+07
1.60094e+07
1.57061e+07
1.53732e+07
1.50174e+07
1.46277e+07
1.42903e+07
1.40051e+07
1.36738e+07
1.33134e+07
1.29988e+07
1.27403e+07
1.24481e+07
1.21412e+07
1.18255e+07
1.15233e+07
1.125e+07
1.09686e+07
1.06932e+07
1.04106e+07
1.01279e+07
9.84879e+06
9.57166e+06
9.292e+06
9.00401e+06
8.70522e+06
8.41248e+06
2.58568e+07
2.58402e+07
2.58132e+07
2.57642e+07
2.5724e+07
2.56838e+07
2.56317e+07
2.55825e+07
2.55239e+07
2.54455e+07
2.53403e+07
2.52466e+07
2.51583e+07
2.50331e+07
2.48688e+07
2.47223e+07
2.45919e+07
2.44167e+07
2.4208e+07
2.39625e+07
2.37352e+07
2.3524e+07
2.32732e+07
2.29967e+07
2.27253e+07
2.24722e+07
2.21929e+07
2.19057e+07
2.16122e+07
2.13195e+07
2.10221e+07
2.0731e+07
2.0458e+07
2.01555e+07
1.98274e+07
1.95224e+07
1.92417e+07
1.89342e+07
1.85931e+07
1.82708e+07
1.7959e+07
1.76471e+07
1.7341e+07
1.70152e+07
1.66848e+07
1.63366e+07
1.60093e+07
1.57059e+07
1.53731e+07
1.50171e+07
1.46275e+07
1.42901e+07
1.40049e+07
1.36736e+07
1.33132e+07
1.29985e+07
1.27401e+07
1.24479e+07
1.2141e+07
1.18252e+07
1.1523e+07
1.12497e+07
1.09684e+07
1.0693e+07
1.04103e+07
1.01277e+07
9.84861e+06
9.57167e+06
9.29228e+06
9.00449e+06
8.70578e+06
8.41352e+06
2.58577e+07
2.58412e+07
2.58143e+07
2.57652e+07
2.5725e+07
2.56848e+07
2.56328e+07
2.55836e+07
2.55251e+07
2.54468e+07
2.53416e+07
2.52479e+07
2.51597e+07
2.50346e+07
2.48704e+07
2.47239e+07
2.45936e+07
2.44186e+07
2.42102e+07
2.39646e+07
2.37373e+07
2.35256e+07
2.32747e+07
2.29982e+07
2.27267e+07
2.24732e+07
2.21938e+07
2.19064e+07
2.16129e+07
2.13202e+07
2.10225e+07
2.07312e+07
2.04581e+07
2.01554e+07
1.98274e+07
1.95223e+07
1.92416e+07
1.89341e+07
1.85929e+07
1.82706e+07
1.79589e+07
1.76472e+07
1.73412e+07
1.70154e+07
1.6685e+07
1.63365e+07
1.60095e+07
1.57061e+07
1.53733e+07
1.5017e+07
1.46274e+07
1.42899e+07
1.40047e+07
1.36734e+07
1.33129e+07
1.29982e+07
1.27399e+07
1.24477e+07
1.21407e+07
1.1825e+07
1.15227e+07
1.12494e+07
1.09681e+07
1.06928e+07
1.04101e+07
1.01275e+07
9.84842e+06
9.57167e+06
9.29257e+06
9.005e+06
8.70642e+06
8.41474e+06
2.58587e+07
2.58422e+07
2.58153e+07
2.57663e+07
2.57261e+07
2.56859e+07
2.5634e+07
2.55848e+07
2.55263e+07
2.54482e+07
2.5343e+07
2.52493e+07
2.51612e+07
2.50363e+07
2.48723e+07
2.47258e+07
2.45955e+07
2.44205e+07
2.42124e+07
2.3967e+07
2.37396e+07
2.35279e+07
2.32771e+07
2.30007e+07
2.27292e+07
2.2475e+07
2.2195e+07
2.19072e+07
2.16137e+07
2.13209e+07
2.1023e+07
2.07312e+07
2.04579e+07
2.01552e+07
1.98273e+07
1.95222e+07
1.92414e+07
1.8934e+07
1.85928e+07
1.82705e+07
1.79587e+07
1.76473e+07
1.73416e+07
1.70158e+07
1.66854e+07
1.63371e+07
1.60105e+07
1.57072e+07
1.5374e+07
1.50178e+07
1.46281e+07
1.42906e+07
1.4005e+07
1.36736e+07
1.33129e+07
1.29982e+07
1.27401e+07
1.24476e+07
1.21405e+07
1.18247e+07
1.15224e+07
1.12491e+07
1.09678e+07
1.06925e+07
1.04099e+07
1.01273e+07
9.84823e+06
9.57162e+06
9.29286e+06
9.00557e+06
8.70717e+06
8.41602e+06
2.58596e+07
2.58432e+07
2.58163e+07
2.57673e+07
2.57271e+07
2.56872e+07
2.56353e+07
2.55862e+07
2.55277e+07
2.54497e+07
2.53446e+07
2.5251e+07
2.51629e+07
2.50382e+07
2.48743e+07
2.47278e+07
2.45976e+07
2.44227e+07
2.4215e+07
2.39696e+07
2.37421e+07
2.35303e+07
2.32798e+07
2.30034e+07
2.27318e+07
2.24774e+07
2.21967e+07
2.19085e+07
2.16147e+07
2.13211e+07
2.1023e+07
2.0731e+07
2.04576e+07
2.01549e+07
1.9827e+07
1.95219e+07
1.92411e+07
1.89337e+07
1.85925e+07
1.82703e+07
1.79585e+07
1.76474e+07
1.73418e+07
1.70165e+07
1.66866e+07
1.63387e+07
1.60124e+07
1.57092e+07
1.53756e+07
1.50202e+07
1.46302e+07
1.42926e+07
1.40063e+07
1.3675e+07
1.3314e+07
1.29991e+07
1.27411e+07
1.24478e+07
1.21408e+07
1.18245e+07
1.15222e+07
1.12489e+07
1.09675e+07
1.06922e+07
1.04096e+07
1.0127e+07
9.84801e+06
9.57158e+06
9.29316e+06
9.00613e+06
8.708e+06
8.41738e+06
2.58609e+07
2.58446e+07
2.58178e+07
2.57686e+07
2.57284e+07
2.56884e+07
2.56365e+07
2.55873e+07
2.55289e+07
2.5451e+07
2.53458e+07
2.52521e+07
2.51641e+07
2.50396e+07
2.48755e+07
2.47292e+07
2.45989e+07
2.44237e+07
2.42156e+07
2.397e+07
2.37422e+07
2.35309e+07
2.32803e+07
2.30038e+07
2.27322e+07
2.24778e+07
2.21975e+07
2.19095e+07
2.16155e+07
2.13221e+07
2.10241e+07
2.07326e+07
2.04592e+07
2.01561e+07
1.98279e+07
1.95227e+07
1.92422e+07
1.89346e+07
1.85928e+07
1.82703e+07
1.79589e+07
1.76477e+07
1.73419e+07
1.70163e+07
1.66864e+07
1.63384e+07
1.60121e+07
1.57088e+07
1.53753e+07
1.50198e+07
1.46298e+07
1.42922e+07
1.40058e+07
1.36747e+07
1.33136e+07
1.29987e+07
1.27407e+07
1.24475e+07
1.21404e+07
1.18242e+07
1.15218e+07
1.12485e+07
1.09672e+07
1.0692e+07
1.04093e+07
1.01268e+07
9.84781e+06
9.57179e+06
9.29367e+06
9.00687e+06
8.70882e+06
8.41872e+06
2.58621e+07
2.58459e+07
2.58192e+07
2.577e+07
2.57297e+07
2.56897e+07
2.56379e+07
2.55887e+07
2.55304e+07
2.54525e+07
2.53474e+07
2.52538e+07
2.51657e+07
2.50414e+07
2.48775e+07
2.47312e+07
2.4601e+07
2.44259e+07
2.42181e+07
2.39726e+07
2.37448e+07
2.35329e+07
2.32822e+07
2.30056e+07
2.2734e+07
2.24794e+07
2.21987e+07
2.19105e+07
2.16165e+07
2.13232e+07
2.1025e+07
2.07332e+07
2.04596e+07
2.01563e+07
1.9828e+07
1.95226e+07
1.92421e+07
1.89344e+07
1.85926e+07
1.82702e+07
1.79587e+07
1.7648e+07
1.73423e+07
1.70165e+07
1.66863e+07
1.63382e+07
1.60121e+07
1.57087e+07
1.53754e+07
1.50195e+07
1.46297e+07
1.42921e+07
1.40054e+07
1.36744e+07
1.33133e+07
1.29984e+07
1.27405e+07
1.24472e+07
1.21401e+07
1.18239e+07
1.15215e+07
1.12482e+07
1.09669e+07
1.06917e+07
1.0409e+07
1.01265e+07
9.84758e+06
9.57186e+06
9.29418e+06
9.0077e+06
8.70978e+06
8.42013e+06
2.58634e+07
2.58472e+07
2.58204e+07
2.57713e+07
2.5731e+07
2.56912e+07
2.56395e+07
2.55903e+07
2.5532e+07
2.54543e+07
2.53493e+07
2.52556e+07
2.51676e+07
2.50435e+07
2.48798e+07
2.47334e+07
2.46033e+07
2.44284e+07
2.4221e+07
2.39755e+07
2.37475e+07
2.35357e+07
2.32852e+07
2.30087e+07
2.2737e+07
2.24817e+07
2.22005e+07
2.1912e+07
2.16178e+07
2.13239e+07
2.10255e+07
2.07332e+07
2.04593e+07
2.0156e+07
1.98278e+07
1.95223e+07
1.92418e+07
1.89341e+07
1.85923e+07
1.82699e+07
1.79585e+07
1.76482e+07
1.73426e+07
1.7017e+07
1.66871e+07
1.63392e+07
1.60134e+07
1.57098e+07
1.53764e+07
1.50208e+07
1.46305e+07
1.42928e+07
1.40056e+07
1.36747e+07
1.33133e+07
1.29983e+07
1.27405e+07
1.24471e+07
1.21399e+07
1.18236e+07
1.15211e+07
1.12478e+07
1.09666e+07
1.06914e+07
1.04087e+07
1.01262e+07
9.84734e+06
9.57193e+06
9.2947e+06
9.0085e+06
8.71084e+06
8.42164e+06
2.58651e+07
2.5849e+07
2.58223e+07
2.57729e+07
2.57326e+07
2.56927e+07
2.56408e+07
2.55915e+07
2.55333e+07
2.54557e+07
2.53505e+07
2.52569e+07
2.51687e+07
2.50434e+07
2.48795e+07
2.47331e+07
2.4603e+07
2.4428e+07
2.42206e+07
2.39751e+07
2.37471e+07
2.35353e+07
2.32849e+07
2.30084e+07
2.27368e+07
2.24816e+07
2.22011e+07
2.1913e+07
2.16188e+07
2.13254e+07
2.10273e+07
2.07361e+07
2.04623e+07
2.01589e+07
1.98302e+07
1.95246e+07
1.92446e+07
1.89367e+07
1.85938e+07
1.82706e+07
1.79595e+07
1.76487e+07
1.73428e+07
1.70168e+07
1.66868e+07
1.63388e+07
1.6013e+07
1.57093e+07
1.5376e+07
1.50203e+07
1.46301e+07
1.42924e+07
1.40051e+07
1.36743e+07
1.33128e+07
1.29978e+07
1.27401e+07
1.24467e+07
1.21395e+07
1.18232e+07
1.15207e+07
1.12474e+07
1.09662e+07
1.06911e+07
1.04084e+07
1.01259e+07
9.84712e+06
9.57228e+06
9.29547e+06
9.00956e+06
8.71189e+06
8.42312e+06
2.58667e+07
2.58508e+07
2.58241e+07
2.57747e+07
2.57342e+07