/*--------------------------------*- C++ -*----------------------------------*\
| =========                 |                                                 |
| \\      /  F ield         | OpenFOAM: The Open Source CFD Toolbox           |
|  \\    /   O peration     | Version:  v2012                                 |
|   \\  /    A nd           | Website:  www.openfoam.com                      |
|    \\/     M anipulation  |                                                 |
\*---------------------------------------------------------------------------*/
FoamFile
{
    version     2.0;
    format      ascii;
    class       volScalarField;
    location    "1e-06";
    object      totalP;
}
// * * * * * * * * * * * * * * * * * * * * * * * * * * * * * * * * * * * * * //

dimensions      [1 -1 -2 0 0 0 0];


internalField   nonuniform List<scalar> 
10203
(
306885
310428
312804
310916
313490
315809
315625
318234
320365
322216
319826
321701
326761
327901
323478
324937
331763
331327
333228
328894
330418
337264
337004
335744
336085
341968
341522
343120
344414
346711
347782
348435
354745
356340
353965
356630
363691
366213
363101
366736
369957
371607
376031
376390
380087
378740
380857
387860
388987
392283
386086
388551
399074
399423
394416
395750
406755
406576
408496
408848
409887
416293
417475
421656
423831
426552
429930
433690
437649
441124
442666
447261
306887
310438
312827
310938
313504
315835
315656
318261
320384
322236
319847
321710
326773
327911
323486
324945
331767
331329
333229
328894
330418
337265
337005
335744
336084
341970
341524
343122
344414
346710
347782
348437
354746
356340
353965
356619
363681
366212
363100
366730
369954
371603
376033
376390
380088
378740
380851
387859
388986
392283
386086
388541
399076
399427
394424
395757
406766
406588
408514
408872
409905
416311
417497
421682
423854
426568
429942
433710
437669
441141
442679
447277
306899
310456
312856
310971
313532
315872
315691
318291
320418
322269
319872
321734
326794
327928
323497
324953
331774
331332
333232
328894
330417
337266
337007
335746
336085
341973
341527
343123
344413
346713
347782
348435
354740
356340
353963
356608
363670
366211
363100
366724
369951
371599
376035
376392
380090
378740
380852
387860
388985
392282
386086
388543
399080
399435
394435
395770
406786
406611
408539
408900
409936
416344
417526
421709
423883
426599
429966
433732
437691
441169
442707
447305
306890
310457
312858
310971
313531
315875
315693
318290
320417
322272
319873
321726
326795
327930
323497
324946
331776
331333
333233
328894
330418
337266
337007
335747
336084
341974
341527
343124
344409
346714
347781
348431
354741
356340
353962
356597
363661
366211
363099
366718
369947
371594
376035
376391
380091
378740
380847
387860
388981
392283
386084
388532
399081
399435
394436
395767
406787
406612
408540
408900
409936
416345
417527
421707
423880
426597
429963
433727
437687
441168
442704
447305
306910
310480
312884
310998
313557
315903
315717
318308
320433
322294
319888
321730
326801
327939
323500
324941
331779
331333
333232
328891
330408
337266
337007
335746
336081
341975
341527
343125
344405
346715
347782
348432
354741
356342
353962
356598
363663
366214
363101
366720
369950
371595
376037
376391
380092
378739
380838
387855
388974
392281
386084
388520
399081
399438
394440
395767
406797
406623
408553
408914
409949
416362
417543
421724
423897
426615
429974
433743
437703
441184
442719
447321
306913
310487
312903
311017
313569
315926
315739
318330
320453
322316
319904
321744
326814
327953
323509
324947
331788
331337
333238
328894
330409
337270
337012
335747
336081
341978
341527
343125
344401
346715
347779
348426
354733
356341
353957
356585
363650
366213
363100
366713
369946
371590
376040
376393
380095
378741
380840
387856
388975
392285
386086
388522
399085
399444
394447
395773
406807
406632
408562
408924
409959
416372
417552
421729
423902
426618
429975
433745
437705
441192
442724
447331
306903
310489
312906
311018
313566
315929
315740
318324
320449
322320
319903
321734
326816
327956
323508
324938
331791
331337
333240
328893
330410
337271
337015
335746
336079
341979
341526
343126
344395
346716
347777
348422
354734
356342
353954
356573
363645
366213
363099
366707
369947
371584
376040
376392
380096
378740
380835
387856
388969
392287
386085
388511
399086
399444
394446
395767
406809
406632
408563
408923
409957
416373
417550
421729
423901
426616
429970
433739
437701
441193
442720
447330
306905
310507
312925
311036
313576
315950
315757
318343
320466
322339
319915
321736
326826
327966
323513
324934
331798
331339
333244
328893
330410
337273
337018
335745
336077
341980
341525
343126
344389
346715
347774
348417
354735
356344
353950
356560
363636
366214
363099
366701
369948
371581
376042
376393
380099
378740
380837
387857
388964
392290
386083
388508
399087
399446
394448
395763
406814
406635
408567
408928
409960
416379
417553
421731
423904
426615
429967
433740
437701
441198
442721
447335
306894
310510
312928
311037
313573
315953
315760
318346
320470
322345
319914
321731
326829
327970
323512
324926
331802
331340
333247
328893
330412
337276
337023
335743
336075
341981
341523
343127
344383
346715
347771
348412
354736
356346
353945
356546
363624
366214
363097
366694
369949
371575
376043
376392
380101
378739
380837
387859
388959
392294
386080
388508
399088
399448
394449
395758
406817
406634
408568
408928
409959
416380
417550
421724
423897
426609
429959
433733
437696
441198
442715
447334
306911
310529
312950
311057
313591
315975
315777
318355
320477
322362
319922
321726
326830
327978
323513
324916
331806
331340
333247
328889
330400
337275
337023
335737
336071
341980
341520
343127
344376
346715
347769
348411
354737
356352
353941
356548
363627
366219
363100
366697
369952
371578
376046
376392
380103
378737
380826
387854
388950
392296
386072
388492
399084
399445
394446
395748
406819
406633
408568
408927
409955
416379
417549
421728
423900
426612
429954
433736
437698
441202
442712
447334
306908
310530
312967
311074
313597
315997
315797
318375
320495
322385
319936
321740
326844
327995
323523
324926
331820
331346
333257
328894
330403
337282
337033
335737
336071
341982
341518
343126
344368
346714
347763
348403
354728
356351
353932
356531
363611
366218
363097
366688
369947
371574
376049
376394
380109
378740
380831
387857
388952
392307
386072
388496
399088
399451
394450
395750
406826
406635
408570
408927
409956
416381
417546
421720
423892
426605
429944
433727
437690
441203
442706
447335
306895
310535
312972
311075
313594
316001
315798
318376
320499
322392
319936
321735
326849
328000
323522
324916
331825
331347
333261
328892
330404
337285
337040
335732
336069
341983
341516
343126
344361
346714
347759
348397
354730
356355
353925
356515
363611
366218
363095
366681
369949
371570
376050
376393
380112
378738
380831
387858
388945
392313
386066
388497
399088
399452
394449
395741
406829
406633
408570
408926
409953
416381
417542
421720
423893
426599
429934
433722
437686
441203
442699
447333
306894
310553
312991
311092
313604
316022
315816
318395
320515
322412
319946
321748
326862
328013
323527
324914
331835
331350
333267
328893
330407
337289
337049
335725
336068
341983
341513
343126
344352
346714
347754
348391
354732
356357
353919
356500
363611
366221
363095
366674
369952
371573
376053
376394
380117
378738
380834
387861
388938
392322
386059
388498
399088
399452
394448
395732
406833
406630
408569
408923
409948
416380
417537
421719
423886
426591
429923
433715
437680
441203
442690
447330
306880
310557
312996
311094
313601
316028
315819
318399
320520
322421
319946
321751
326866
328019
323527
324907
331841
331352
333271
328892
330409
337292
337058
335719
336066
341983
341510
343127
344344
346714
347749
348385
354735
356359
353912
356482
363611
366221
363093
366665
369953
371574
376054
376392
380120
378736
380836
387862
388931
392330
386052
388500
399089
399453
394447
395723
406837
406627
408569
408921
409945
416380
417532
421719
423879
426583
429912
433708
437675
441203
442682
447326
306878
310577
313016
311112
313611
316050
315838
318418
320537
322443
319958
321766
326881
328033
323533
324906
331853
331356
333278
328892
330414
337296
337067
335714
336064
341982
341507
343128
344334
346715
347744
348378
354738
356361
353906
356465
363614
366224
363093
366658
369958
371578
376059
376393
380126
378735
380840
387865
388924
392339
386044
388499
399088
399453
394445
395712
406840
406623
408567
408916
409939
416378
417525
421716
423870
426573
429898
433699
437668
441201
442671
447321
306863
310582
313021
311114
313611
316056
315841
318414
320542
322453
319958
321770
326887
328040
323533
324899
331859
331358
333282
328891
330415
337299
337076
335708
336062
341981
341504
343128
344325
346714
347738
348370
354739
356361
353900
356446
363615
366225
363090
366648
369959
371579
376060
376391
380129
378732
380841
387868
388916
392348
386044
388501
399089
399455
394444
395703
406845
406619
408566
408913
409935
416377
417519
421714
423862
426563
429885
433693
437665
441201
442660
447317
306860
310603
313042
311134
313616
316079
315862
318435
320560
322477
319971
321787
326903
328056
323541
324909
331872
331364
333290
328893
330421
337304
337085
335703
336060
341979
341501
343128
344314
346714
347731
348359
354741
356362
353895
356428
363617
366228
363090
366640
369964
371582
376065
376393
380135
378732
380846
387872
388908
392358
386027
388503
399087
399454
394442
395690
406849
406613
408563
408906
409927
416374
417510
421711
423859
426553
429869
433683
437659
441198
442647
447310
306838
310584
313041
311132
313608
316086
315867
318440
320567
322493
319977
321794
326911
328071
323551
324914
331888
331372
333303
328901
330426
337313
337100
335703
336062
341983
341500
343128
344305
346714
347723
348344
354744
356356
353884
356401
363594
366223
363081
366626
369954
371583
376066
376394
380142
378733
380852
387877
388910
392375
386019
388514
399091
399464
394449
395693
406861
406612
408567
408906
409928
416374
417503
421699
423846
426541
429853
433669
437647
441197
442635
447308
306843
310591
313051
311137
313616
316091
315864
318426
320557
322495
319967
321768
326895
328068
323539
324888
331882
331369
333295
328890
330405
337309
337098
335691
336049
341980
341495
343128
344294
346717
347718
348336
354754
356362
353885
356403
363596
366230
363083
366628
369955
371584
376067
376389
380141
378723
380835
387865
388897
392373
386010
388491
399077
399455
394438
395673
406860
406602
408562
408898
409917
416366
417496
421699
423848
426540
429838
433668
437647
441197
442621
447299
306839
310615
313075
311161
313630
316116
315889
318451
320577
322523
319982
321787
326911
328085
323549
324900
331897
331377
333304
328893
330414
337314
337107
335687
336041
341984
341493
343129
344282
346718
347709
348320
354764
356361
353881
356382
363601
366234
363083
366618
369961
371589
376074
376391
380149
378722
380845
387870
388891
392383
386002
388495
399073
399456
394436
395660
406864
406595
408558
408890
409909
416361
417484
421692
423831
426525
429819
433654
437642
441192
442603
447291
306821
310621
313081
311165
313639
316124
315895
318457
320586
322535
319983
321793
326918
328093
323550
324904
331904
331380
333308
328894
330419
337317
337114
335681
336030
341991
341490
343130
344270
346719
347701
348304
354768
356359
353876
356358
363602
366235
363079
366608
369963
371592
376075
376389
380153
378718
380847
387873
388882
392391
385994
388501
399066
399458
394435
395648
406871
406588
408557
408885
409903
416358
417476
421691
423827
426513
429801
433646
437640
441191
442587
447285
306817
310649
313108
311191
313659
316154
315922
318484
320608
322565
320001
321815
326939
328112
323562
324918
331921
331390
333317
328899
330427
337322
337122
335677
336018
342000
341487
343131
344257
346720
347691
348288
354779
356358
353873
356336
363607
366239
363080
366598
369964
371601
376082
376392
380161
378718
380854
387877
388876
392400
385986
388505
399058
399458
394432
395633
406876
406579
408552
408874
409892
416352
417462
421685
423813
426497
429779
433627
437632
441185
442566
447275
306799
310658
313115
311196
313669
316162
315929
318476
320618
322579
320003
321821
326948
328120
323565
324923
331928
331394
333321
328899
330432
337325
337129
335671
336006
342008
341484
343132
344244
346723
347680
348274
354784
356354
353868
356311
363611
366240
363075
366585
369967
371603
376084
376389
380165
378713
380860
387881
388867
392407
385978
388512
399050
399460
394431
395620
406883
406571
408552
408868
409884
416347
417453
421681
423802
426483
429759
433617
437631
441184
442548
447270
306794
310690
313143
311226
313676
316194
315962
318507
320644
322612
320026
321850
326975
328142
323582
324942
331948
331405
333332
328908
330446
337330
337138
335668
335998
342017
341481
343133
344230
346726
347667
348261
354789
356352
353866
356287
363619
366246
363077
366575
369963
371614
376093
376392
380174
378713
380872
387886
388860
392416
385970
388519
399040
399460
394428
395603
406888
406559
408546
408856
409871
416335
417438
421673
423796
426470
429734
433595
437618
441177
442523
447258
306763
310663
313136
311222
313665
316205
315974
318515
320656
322637
320043
321865
326989
328165
323605
324956
331973
331422
333355
328928
330459
337343
337157
335673
336000
342030
341483
343133
344219
346726
347651
348242
354790
356335
353851
356249
363585
366234
363059
366555
369946
371617
376094
376394
380185
378718
380883
387894
388864
392440
385981
388533
399045
399479
394444
395610
406911
406556
408556
408856
409874
416336
417431
421658
423781
426451
429710
433574
437601
441175
442504
447256
306776
310678
313152
311232
313676
316211
315970
318494
320642
322634
320025
321828
326961
328153
323583
324917
331954
331414
333335
328908
330426
337330
337148
335653
335979
342025
341478
343123
344206
346729
347641
348246
354803
356342
353860
356255
363595
366248
363064
366560
369949
371621
376096
376386
380180
378699
380870
387871
388844
392427
385950
388496
399020
399463
394425
395577
406904
406538
408546
408842
409855
416320
417419
421657
423781
426451
429688
433575
437601
441174
442481
447242
306771
310716
313188
311269
313706
316247
316010
318532
320671
322672
320054
321864
326986
328176
323604
324939
331975
331429
333347
328919
330440
337335
337157
335650
335976
342028
341479
343114
344193
346732
347627
348235
354812
356338
353860
356229
363604
366254
363067
366547
369944
371635
376106
376390
380191
378700
380885
387881
388841
392436
385945
388504
399020
399466
394423
395562
406911
406525
408540
408828
409844
416306
417400
421644
423761
426429
429658
433548
437592
441165
442451
447229
306751
310728
313194
311277
313718
316258
316022
318532
320685
322688
320059
321874
326996
328185
323610
324946
331980
331435
333351
328923
330449
337335
337164
335643
335970
342026
341479
343103
344180
346732
347612
348226
354823
356330
353857
356200
363609
366255
363060
366530
369947
371642
376108
376387
380195
378694
380897
387882
388831
392442
385937
388507
399022
399470
394423
395546
406920
406512
408541
408819
409834
416294
417389
421640
423748
426410
429631
433532
437589
441163
442426
447222
306747
310771
313234
311320
313751
316299
316069
318575
320718
322729
320093
321915
327028
328211
323637
324975
332005
331449
333366
328939
330461
337340
337176
335640
335974
342027
341481
343093
344168
346737
347598
348217
354829
356325
353858
356173
363620
366263
363063
366519
369942
371658
376121
376392
380206
378696
380917
387890
388822
392449
385930
388498
399026
399473
394420
395527
406927
406495
408534
408803
409815
416275
417369
421630
423727
426401
429599
433500
437575
441154
442394
447206
306708
310736
313219
311314
313737
316317
316091
318587
320737
322766
320126
321937
327050
328243
323680
325000
332040
331477
333404
328977
330484
337356
337205
335653
335990
342035
341489
343094
344170
346723
347576
348197
354802
356295
353839
356126
363575
366242
363036
366492
369921
371663
376123
376395
380221
378709
380939
387902
388832
392484
385954
388512
399052
399505
394450
395539
406959
406493
408552
408805
409820
416276
417362
421610
423710
426377
429566
433472
437566
441151
442369
447203
306724
310758
313244
311333
313752
316322
316083
318558
320718
322755
320096
321885
327007
328221
323644
324944
332002
331460
333369
328942
330433
337332
337187
335621
335965
342014
341485
343079
344152
346727
347566
348207
354820
356306
353855
356135
363592
366266
363046
366502
369926
371672
376120
376382
380211
378680
380926
387864
388803
392456
385907
388445
399028
399481
394419
395491
406942
406464
408537
408783
409794
416253
417344
421608
423710
426376
429537
433472
437565
441148
442339
447180
306721
310811
313295
311384
313785
316368
316143
318614
320761
322803
320140
321933
327045
328250
323678
324982
332029
331483
333389
328964
330452
337338
337201
335619
335973
342012
341489
343067
344137
346734
347552
348201
354828
356299
353859
356106
363607
366275
363052
366488
369920
371695
376137
376389
380223
378686
380950
387875
388801
392465
385904
388452
399031
399487
394418
395475
406951
406446
408531
408765
409774
416234
417320
421596
423684
426366
429498
433435
437548
441139
442303
447159
306676
310769
313274
311375
313769
316390
316174
318626
320782
322848
320187
321966
327074
328290
323738
325023
332074
331519
333439
329016
330480
337360
337239
335639
335998
342018
341503
343069
344139
346720
347526
348179
354790
356258
353835
356051
363553
366246
363017
366454
369894
371706
376139
376392
380242
378706
380979
387890
388813
392508
385941
388477
399058
399530
394461
395497
406991
406445
408556
408769
409781
416234
417315
421581
423665
426338
429459
433402
437542
441136
442276
447155
306700
310799
313307
311397
313788
316399
316162
318591
320758
322833
320148
321903
327021
328259
323693
324954
332018
331495
333393
328970
330415
337328
337215
335597
335965
341987
341499
343050
344117
346725
347517
348196
354810
356270
353856
356068
363577
366277
363031
366463
369908
371718
376135
376376
380228
378671
380957
387839
388777
392468
385881
388401
399018
399500
394420
395436
406964
406408
408538
408739
409748
416207
417294
421580
423664
426336
429424
433400
437541
441134
442242
447124
306700
310865
313371
311461
313839
316453
316235
318660
320811
322888
320205
321966
327070
328292
323737
325006
332051
331528
333417
329000
330445
337338
337232
335596
335978
341986
341507
343035
344101
346735
347502
348194
354821
356260
353862
356038
363595
366289
363039
366445
369902
371748
376157
376386
380243
378683
380994
387854
388789
392479
385884
388418
399019
399512
394423
395433
406977
406389
408533
408720
409731
416188
417264
421543
423634
426318
429376
433355
437527
441123
442204
447093
306721
310888
313385
311473
313857
316472
316256
318675
320831
322911
320218
321987
327085
328300
323754
325020
332050
331536
333424
329007
330454
337332
337244
335586
335974
341971
341513
343019
344080
346737
347483
348199
354828
356240
353860
356033
363610
366291
363027
366420
369908
371763
376157
376379
380248
378679
381013
387834
388777
392481
385875
388428
399004
399528
394420
395414
406984
406368
408538
408706
409709
416168
417245
421540
423613
426290
429333
433334
437523
441118
442169
447069
306728
310963
313459
311550
313919
316534
316342
318752
320890
322971
320281
322067
327141
328336
323804
325073
332089
331559
333452
329040
330481
337338
337264
335587
335990
341972
341521
343003
344067
346750
347476
348210
354843
356233
353870
356007
363638
366310
363037
366439
369904
371797
376187
376390
380262
378690
381051
387833
388767
392486
385872
388446
398989
399548
394405
395392
406990
406338
408530
408682
409682
416144
417211
421518
423583
426278
429282
433284
437509
441112
442132
447023
306670
310907
313421
311532
313930
316573
316396
318780
320927
323044
320364
322121
327181
328401
323908
325152
332155
331623
333543
329127
330531
337372
337330
335625
336032
341983
341544
343008
344071
346728
347448
348186
354784
356165
353832
355941
363563
366258
362980
366394
369873
371812
376189
376392
380289
378733
381105
387857
388794
392556
385943
388498
399016
399632
394462
395440
407046
406346
408576
408693
409691
416144
417212
421506
423559
426241
429228
433241
437502
441089
442101
447014
306709
310956
313478
311567
313951
316582
316373
318729
320889
323014
320299
322028
327097
328345
323835
325041
332062
331573
333474
329042
330424
337313
337293
335556
335971
341933
341536
342981
344038
346730
347444
348216
354812
356183
353865
355971
363600
366312
363006
366411
369883
371828
376178
376367
380268
378684
381058
387776
388742
392489
385850
388396
398938
399600
394378
395348
406993
406293
408546
408646
409640
416107
417183
421504
423543
426239
429182
433243
437502
441083
442059
446961
306724
311048
313574
311660
314030
316655
316481
318830
320969
323088
320380
322124
327168
328394
323901
325112
332111
331608
333521
329082
330470
337323
337325
335559
335993
341938
341548
342967
344022
346747
347442
348232
354830
356174
353878
355946
363634
366332
363019
366401
369880
371875
376218
376385
380287
378704
381113
387777
388742
392502
385857
388425
398918
399629
394365
395347
407002
406265
408541
408623
409613
416085
417143
421466
423506
426229
429122
433186
437484
441078
442024
446903
306657
310980
313525
311634
314053
316706
316551
318867
321018
323183
320490
322202
327223
328482
324038
325223
332197
331695
333645
329195
330539
337374
337416
335612
336045
341957
341580
342979
344027
346721
347412
348207
354752
356086
353827
355873
363544
366260
362944
366343
369845
371896
376217
376387
380326
378763
381186
387806
388784
392593
385953
388500
398952
399735
394442
395417
407068
406282
408599
408642
409623
416086
417145
421464
423478
426186
429056
433135
437477
441035
441989
446885
306712
311042
313596
311676
314083
316722
316520
318805
320970
323146
320407
322087
327121
328414
323942
325086
332079
331628
333562
329080
330406
337297
337372
335522
335961
341897
341568
342949
343980
346704
347417
348249
354785
356106
353866
355905
363594
366326
362976
366364
369872
371918
376204
376356
380301
378705
381130
387703
388719
392512
385837
388378
398853
399689
394337
395304
406996
406219
408559
408584
409558
416042
417112
421462
423455
426170
429003
433137
437479
441032
441942
446819
306733
311150
313715
311788
314179
316812
316648
318928
321074
323236
320504
322206
327210
328478
324016
325176
332142
331688
333618
329127
330458
337322
337414
335522
335989
341914
341586
342933
343959
346730
347419
348271
354773
356093
353886
355881
363636
366350
362997
366348
369873
371973
376255
376379
380326
378733
381195
387705
388746
392530
385849
388420
398835
399718
394324
395302
407014
406199
408551
408562
409529
416026
417065
421414
423415
426160
428931
433070
437461
441027
441907
446744
306654
311066
313650
311754
314204
316878
316734
318974
321133
323356
320648
322312
327290
328598
324189
325325
332266
331795
333774
329276
330551
337398
337531
335595
336052
341952
341630
342947
343943
346708
347385
348237
354672
355981
353825
355794
363524
366252
362911
366274
369830
371997
376255
376385
380376
378814
381289
387747
388797
392649
385974
388522
398884
399841
394430
395390
407105
406228
408620
408593
409542
416029
417069
421413
423383
426110
428854
433006
437452
440979
441864
446715
306726
311143
313740
311797
314251
316909
316689
318894
321085
323317
320541
322167
327168
328527
324058
325152
332117
331722
333669
329128
330377
337313
337472
335480
335936
341885
341617
342909
343879
346696
347395
348290
354713
356004
353877
355837
363587
366331
362955
366299
369866
372020
376249
376352
380345
378744
381218
387618
388721
392554
385826
388371
398763
399772
394301
395238
407016
406158
408567
408524
409458
415977
417031
421412
423352
426073
428795
433009
437454
440981
441809
446631
306746
311206
313880
311939
314358
317005
316832
319045
321212
323420
320659
322314
327281
328611
324134
325259
332213
331809
333723
329191
330448
337370
337513
335487
335972
341931
341644
342882
343852
346737
347391
348288
354701
355990
353904
355806
363627
366358
362988
366271
369863
372089
376317
376383
380372
378785
381297
387659
388758
392579
385850
388429
398782
399801
394300
395249
407051
406155
408557
408509
409436
415970
416980
421359
423309
426063
428714
432922
437439
440975
441768
446544
306793
311250
313905
311958
314397
317056
316870
319080
321250
323471
320691
322342
327313
328643
324158
325284
332216
331826
333750
329194
330407
337372
337539
335465
335940
341926
341658
342850
343801
346747
347373
348303
354674
355936
353901
355822
363650
366349
362974
366255
369878
372117
376325
376372
380383
378800
381331
387624
388744
392596
385841
388447
398748
399825
394293
395217
407041
406145
408563
408495
409390
415932
416949
421360
423271
426013
428645
432865
437437
440965
441712
446473
306838
311394
314065
312118
314526
317174
317031
319244
321381
323584
320812
322489
327432
328727
324235
325398
332316
331904
333807
329252
330473
337426
337578
335462
335968
341975
341688
342816
343786
346799
347381
348323
354672
355932
353942
355800
363706
366387
363016
366250
369876
372188
376405
376407
380405
378840
381420
387668
388766
392617
385855
388515
398745
399841
394283
395216
407047
406148
408551
408474
409360
415909
416897
421307
423230
426005
428570
432774
437422
440959
441665
446379
306886
311442
314091
312140
314568
317231
317074
319279
321430
323641
320848
322529
327472
328768
324265
325423
332322
331934
333835
329253
330427
337441
337608
335436
335935
341971
341705
342777
343736
346811
347363
348338
354646
355876
353940
355820
363736
366378
363002
366213
369890
372221
376411
376397
380417
378858
381466
387636
388778
392635
385845
388534
398714
399863
394277
395189
407027
406150
408566
408448
409312
415867
416865
421306
423186
425951
428498
432708
437418
440938
441604
446305
306998
311605
314275
312330
314712
317351
317255
319465
321572
323753
320972
322686
327600
328855
324338
325541
332426
331996
333891
329307
330503
337494
337645
335426
335958
342022
341733
342742
343731
346877
347393
348374
354650
355888
353994
355808
363792
366424
363061
366265
369888
372313
376507
376438
380438
378893
381545
387685
388771
392649
385847
388584
398695
399868
394254
395172
407022
406140
408558
408407
409275
415837
416809
421257
423146
425949
428427
432610
437405
440942
441552
446203
306917
311513
314191
312292
314766
317452
317372
319529
321667
323930
321172
322823
327720
329041
324561
325736
332590
332162
334107
329508
330620
337619
337805
335528
336041
342093
341805
342758
343743
346885
347368
348338
354527
355754
353922
355707
363656
366299
362949
366180
369829
372346
376512
376445
380501
379005
381669
387755
388845
392812
386014
388717
398770
400017
394404
395304
407111
406210
408667
408438
409290
415848
416817
421258
423101
425878
428344
432514
437399
440912
441480
446155
307026
311621
314307
312369
314828
317493
317314
319439
321611
323883
321037
322624
327563
328962
324383
325499
332391
332069
333959
329300
330374
337518
337718
335362
335871
342008
341781
342686
343652
346865
347380
348393
354575
355779
353989
355764
363748
366410
363021
366225
369874
372380
376516
376409
380464
378922
381575
387609
388744
392690
385819
388515
398620
399911
394234
395114
406952
406137
408602
408321
409158
415791
416773
421257
423057
425828
428285
432508
437406
440908
441394
446057
307094
311715
314510
312587
314997
317638
317524
319659
321797
324042
321215
322832
327738
329104
324497
325659
332532
332206
334052
329402
330474
337628
337787
335380
335935
342096
341830
342658
343639
346944
347401
348397
354572
355780
354038
355743
363811
366456
363079
366216
369875
372474
376625
376469
380498
378991
381686
387684
388799
392738
385869
388602
398662
399946
394248
395152
406972
406159
408611
408293
409123
415803
416722
421201
423013
425810
428205
432388
437397
440921
441322
445960
307167
311779
314536
312624
315055
317723
317575
319704
321856
324122
321267
322871
327784
329165
324536
325687
332524
332240
334097
329398
330409
337648
337825
335347
335882
342096
341854
342618
343573
346956
347386
348420
354540
355711
354034
355768
363856
366442
363070
366235
369896
372510
376643
376464
380513
379023
381733
387651
388787
392766
385858
388618
398627
399968
394244
395125
406932
406156
408634
408246
409042
415771
416708
421203
422961
425742
428133
432303
437401
440912
441228
445885
307323
311953
314772
312870
315255
317907
317811
319950
322065
324295
321454
323083
327966
329303
324664
325858
332673
332364
334206
329491
330515
337752
337895
335359
335936
342186
341913
342587
343574
347050
347423
348434
354555
355724
354102
355763
363938
366495
363146
366253
369907
372618
376772
376533
380545
379094
381854
387725
388820
392811
385895
388703
398676
399991
394246
395159
406941
406168
408642
408206
409007
415777
416664
421144
422925
425707
428058
432183
437397
440933
441159
445781
307407
312027
314798
312912
315322
318005
317869
319999
322132
324387
321515
323124
328018
329367
324723
325886
332667
332393
334267
329487
330449
337760
337944
335332
335881
342174
341945
342546
343504
347045
347411
348459
354540
355643
354098
355792
363980
366475
363137
366273
369935
372661
376790
376530
380560
379137
381902
387691
388837
392845
385884
388729
398648
400017
394246
395126
406897
406166
408670
408154
408926
415733
416669
421149
422868
425633
427984
432094
437405
440921
441064
445703
307633
312266
315066
313194
315551
318218
318139
320275
322356
324583
321735
323371
328226
329519
324884
326083
332840
332513
334405
329604
330578
337859
338033
335364
335955
342267
342015
342529
343517
347153
347471
348488
354567
355660
354177
355802
364075
366542
363222
366355
369957
372785
376933
376608
380597
379226
382036
387781
388866
392905
385927
388825
398705
400045
394255
395168
406915
406175
408688
408111
408899
415742
416626
421091
422834
425599
427912
431972
437405
440942
441000
445594
307743
312353
315087
313231
315647
318343
318205
320270
322436
324701
321813
323390
328226
329599
324964
326089
332823
332543
334490
329607
330500
337855
338106
335349
335890
342238
342054
342506
343444
347126
347464
348526
354547
355563
354170
355842
364119
366526
363197
366380
370001
372831
376939
376602
380626
379285
382079
387739
388890
392952
385915
388844
398675
400079
394259
395127
406867
406172