/*--------------------------------*- C++ -*----------------------------------*\
| =========                 |                                                 |
| \\      /  F ield         | OpenFOAM: The Open Source CFD Toolbox           |
|  \\    /   O peration     | Version:  v2012                                 |
|   \\  /    A nd           | Website:  www.openfoam.com                      |
|    \\/     M anipulation  |                                                 |
\*---------------------------------------------------------------------------*/
FoamFile
{
    version     2.0;
    format      ascii;
    class       volScalarField;
    location    "1e-06";
    object      totalPPrime2Mean;
}
// * * * * * * * * * * * * * * * * * * * * * * * * * * * * * * * * * * * * * //

dimensions      [2 -2 -4 0 0 0 0];


internalField   nonuniform List<scalar> 
10203
(
3.26347e+15
3.24727e+15
3.22842e+15
3.20486e+15
3.18237e+15
3.15955e+15
3.13432e+15
3.10864e+15
3.07998e+15
3.04609e+15
3.00712e+15
2.96919e+15
2.93076e+15
2.88425e+15
2.8301e+15
2.77827e+15
2.72806e+15
2.66958e+15
2.60291e+15
2.52974e+15
2.4595e+15
2.39194e+15
2.31823e+15
2.24011e+15
2.16361e+15
2.09053e+15
2.0149e+15
1.93786e+15
1.86126e+15
1.78582e+15
1.71165e+15
1.63981e+15
1.57085e+15
1.49962e+15
1.42669e+15
1.35815e+15
1.294e+15
1.228e+15
1.15962e+15
1.09489e+15
1.03355e+15
9.74314e+14
9.17182e+14
8.59717e+14
8.03302e+14
7.47633e+14
6.95805e+14
6.47945e+14
5.99704e+14
5.5071e+14
5.03015e+14
4.6123e+14
4.25183e+14
3.88642e+14
3.52413e+14
3.21291e+14
2.95343e+14
2.69748e+14
2.44708e+14
2.21173e+14
2.00278e+14
1.82476e+14
1.66208e+14
1.51683e+14
1.38559e+14
1.27034e+14
1.17238e+14
1.09084e+14
1.02552e+14
9.76108e+13
9.44808e+13
9.35099e+13
3.26347e+15
3.24727e+15
3.22843e+15
3.20487e+15
3.18238e+15
3.15955e+15
3.13433e+15
3.10868e+15
3.08002e+15
3.04611e+15
3.00713e+15
2.9692e+15
2.9308e+15
2.88429e+15
2.83012e+15
2.77829e+15
2.72812e+15
2.66963e+15
2.60296e+15
2.52976e+15
2.45952e+15
2.39198e+15
2.31827e+15
2.24013e+15
2.16362e+15
2.09054e+15
2.01492e+15
1.93787e+15
1.86126e+15
1.78582e+15
1.71165e+15
1.63981e+15
1.57085e+15
1.49962e+15
1.42669e+15
1.35815e+15
1.294e+15
1.228e+15
1.15962e+15
1.09489e+15
1.03355e+15
9.74314e+14
9.17182e+14
8.59719e+14
8.03307e+14
7.47633e+14
6.95805e+14
6.47953e+14
5.99717e+14
5.50732e+14
5.03015e+14
4.61231e+14
4.25192e+14
3.88653e+14
3.52419e+14
3.21291e+14
2.95346e+14
2.69754e+14
2.44716e+14
2.21175e+14
2.00278e+14
1.82476e+14
1.66209e+14
1.51685e+14
1.38559e+14
1.27034e+14
1.17238e+14
1.09084e+14
1.02552e+14
9.76101e+13
9.44802e+13
9.35098e+13
3.26347e+15
3.24727e+15
3.22845e+15
3.20488e+15
3.18239e+15
3.15957e+15
3.13435e+15
3.10873e+15
3.08009e+15
3.04617e+15
3.00715e+15
2.96921e+15
2.93086e+15
2.88436e+15
2.83015e+15
2.77834e+15
2.72821e+15
2.66971e+15
2.60304e+15
2.5298e+15
2.45955e+15
2.39204e+15
2.31832e+15
2.24016e+15
2.16364e+15
2.09057e+15
2.01494e+15
1.93789e+15
1.86127e+15
1.78582e+15
1.71165e+15
1.63981e+15
1.57086e+15
1.49962e+15
1.42669e+15
1.35815e+15
1.294e+15
1.228e+15
1.15962e+15
1.09489e+15
1.03355e+15
9.74314e+14
9.17182e+14
8.59724e+14
8.03315e+14
7.47633e+14
6.95806e+14
6.47968e+14
5.99736e+14
5.5076e+14
5.03014e+14
4.61231e+14
4.25206e+14
3.88669e+14
3.52424e+14
3.21292e+14
2.95352e+14
2.69761e+14
2.44724e+14
2.21177e+14
2.00278e+14
1.82476e+14
1.66209e+14
1.51685e+14
1.38559e+14
1.27034e+14
1.17238e+14
1.09084e+14
1.02551e+14
9.76094e+13
9.44792e+13
9.35089e+13
3.26349e+15
3.24732e+15
3.22851e+15
3.20492e+15
3.18244e+15
3.15963e+15
3.13438e+15
3.10878e+15
3.08016e+15
3.04622e+15
3.00715e+15
2.96921e+15
2.9309e+15
2.88442e+15
2.83016e+15
2.77835e+15
2.72827e+15
2.66977e+15
2.60308e+15
2.52981e+15
2.45956e+15
2.39207e+15
2.31835e+15
2.24017e+15
2.16364e+15
2.09058e+15
2.01495e+15
1.93791e+15
1.86127e+15
1.78582e+15
1.71165e+15
1.63981e+15
1.57088e+15
1.49963e+15
1.42669e+15
1.35815e+15
1.29401e+15
1.22801e+15
1.15962e+15
1.09489e+15
1.03355e+15
9.74314e+14
9.17184e+14
8.59729e+14
8.0332e+14
7.47633e+14
6.95806e+14
6.47975e+14
5.99747e+14
5.50789e+14
5.03014e+14
4.61231e+14
4.2521e+14
3.88673e+14
3.52424e+14
3.21292e+14
2.95352e+14
2.69763e+14
2.44726e+14
2.21177e+14
2.00278e+14
1.82476e+14
1.66209e+14
1.51685e+14
1.38558e+14
1.27033e+14
1.17237e+14
1.09084e+14
1.02551e+14
9.76083e+13
9.44778e+13
9.35073e+13
3.26355e+15
3.24738e+15
3.22859e+15
3.205e+15
3.18252e+15
3.1597e+15
3.13442e+15
3.10884e+15
3.08025e+15
3.04628e+15
3.00715e+15
2.96921e+15
2.93094e+15
2.88445e+15
2.83016e+15
2.77835e+15
2.72832e+15
2.66982e+15
2.60311e+15
2.52981e+15
2.45956e+15
2.39209e+15
2.31836e+15
2.24017e+15
2.16364e+15
2.09058e+15
2.01495e+15
1.93792e+15
1.86128e+15
1.78583e+15
1.71165e+15
1.63981e+15
1.57092e+15
1.49966e+15
1.42669e+15
1.35815e+15
1.29403e+15
1.22803e+15
1.15962e+15
1.09489e+15
1.03355e+15
9.74314e+14
9.17188e+14
8.59735e+14
8.03322e+14
7.47633e+14
6.95806e+14
6.47977e+14
5.99754e+14
5.5081e+14
5.03014e+14
4.61231e+14
4.2521e+14
3.88672e+14
3.52424e+14
3.21292e+14
2.95352e+14
2.69763e+14
2.44726e+14
2.21177e+14
2.00278e+14
1.82476e+14
1.66208e+14
1.51685e+14
1.38558e+14
1.27033e+14
1.17237e+14
1.09085e+14
1.0255e+14
9.76071e+13
9.4476e+13
9.35049e+13
3.26358e+15
3.24745e+15
3.22867e+15
3.20508e+15
3.1826e+15
3.15979e+15
3.13449e+15
3.10894e+15
3.08036e+15
3.0464e+15
3.00719e+15
2.96925e+15
2.93106e+15
2.88458e+15
2.83021e+15
2.77841e+15
2.72846e+15
2.66994e+15
2.60322e+15
2.52986e+15
2.4596e+15
2.39216e+15
2.31842e+15
2.24021e+15
2.16366e+15
2.09061e+15
2.01497e+15
1.93794e+15
1.86129e+15
1.78583e+15
1.71165e+15
1.63982e+15
1.57093e+15
1.49967e+15
1.42669e+15
1.35815e+15
1.29403e+15
1.22803e+15
1.15962e+15
1.09489e+15
1.03355e+15
9.74314e+14
9.1719e+14
8.59746e+14
8.03336e+14
7.47634e+14
6.95806e+14
6.47999e+14
5.99782e+14
5.50855e+14
5.03014e+14
4.61231e+14
4.25226e+14
3.88687e+14
3.52425e+14
3.21292e+14
2.95358e+14
2.69769e+14
2.44731e+14
2.21177e+14
2.00277e+14
1.82475e+14
1.66208e+14
1.51684e+14
1.38557e+14
1.27032e+14
1.17236e+14
1.09084e+14
1.02549e+14
9.76054e+13
9.44736e+13
9.35019e+13
3.26366e+15
3.24752e+15
3.22876e+15
3.20517e+15
3.18269e+15
3.15988e+15
3.13457e+15
3.10904e+15
3.08048e+15
3.04652e+15
3.00721e+15
2.96927e+15
2.93115e+15
2.88468e+15
2.83024e+15
2.77844e+15
2.72857e+15
2.67005e+15
2.6033e+15
2.52988e+15
2.45962e+15
2.39222e+15
2.31847e+15
2.24023e+15
2.16367e+15
2.09062e+15
2.01498e+15
1.93797e+15
1.86131e+15
1.78584e+15
1.71165e+15
1.63982e+15
1.57097e+15
1.49969e+15
1.42669e+15
1.35815e+15
1.29404e+15
1.22804e+15
1.15962e+15
1.09489e+15
1.03355e+15
9.74314e+14
9.17194e+14
8.59756e+14
8.03345e+14
7.47634e+14
6.95807e+14
6.48013e+14
5.99802e+14
5.50888e+14
5.03014e+14
4.61231e+14
4.25232e+14
3.88689e+14
3.52425e+14
3.21292e+14
2.95358e+14
2.69771e+14
2.44732e+14
2.21177e+14
2.00277e+14
1.82475e+14
1.66207e+14
1.51684e+14
1.38556e+14
1.27031e+14
1.17235e+14
1.09084e+14
1.02548e+14
9.76036e+13
9.44706e+13
9.34979e+13
3.26373e+15
3.2476e+15
3.22885e+15
3.20526e+15
3.18279e+15
3.15998e+15
3.13467e+15
3.10915e+15
3.08061e+15
3.04664e+15
3.00723e+15
2.96928e+15
2.93124e+15
2.88476e+15
2.83025e+15
2.77845e+15
2.72868e+15
2.67015e+15
2.60336e+15
2.52989e+15
2.45962e+15
2.39226e+15
2.3185e+15
2.24024e+15
2.16367e+15
2.09063e+15
2.015e+15
1.93799e+15
1.86132e+15
1.78585e+15
1.71166e+15
1.63982e+15
1.57101e+15
1.49972e+15
1.42669e+15
1.35815e+15
1.29406e+15
1.22807e+15
1.15962e+15
1.09489e+15
1.03355e+15
9.74314e+14
9.172e+14
8.59767e+14
8.03351e+14
7.47634e+14
6.95807e+14
6.48021e+14
5.99818e+14
5.50912e+14
5.03013e+14
4.61231e+14
4.25232e+14
3.88689e+14
3.52424e+14
3.21291e+14
2.95358e+14
2.69771e+14
2.44731e+14
2.21176e+14
2.00276e+14
1.82474e+14
1.66206e+14
1.51683e+14
1.38555e+14
1.2703e+14
1.17234e+14
1.09083e+14
1.02547e+14
9.76014e+13
9.44671e+13
9.34928e+13
3.26382e+15
3.24769e+15
3.22895e+15
3.20537e+15
3.18289e+15
3.16008e+15
3.13478e+15
3.10926e+15
3.08073e+15
3.04675e+15
3.00723e+15
2.96929e+15
2.93132e+15
2.88483e+15
2.83025e+15
2.77846e+15
2.72875e+15
2.67024e+15
2.60339e+15
2.52989e+15
2.45962e+15
2.39228e+15
2.31851e+15
2.24025e+15
2.16367e+15
2.09063e+15
2.015e+15
1.93801e+15
1.86134e+15
1.78587e+15
1.71166e+15
1.63982e+15
1.57108e+15
1.49978e+15
1.42669e+15
1.35816e+15
1.29409e+15
1.22811e+15
1.15963e+15
1.09489e+15
1.03356e+15
9.74315e+14
9.17207e+14
8.59776e+14
8.03351e+14
7.47634e+14
6.95807e+14
6.48021e+14
5.99826e+14
5.50923e+14
5.03013e+14
4.61231e+14
4.25231e+14
3.88688e+14
3.52424e+14
3.21291e+14
2.95357e+14
2.6977e+14
2.44731e+14
2.21175e+14
2.00275e+14
1.82473e+14
1.66205e+14
1.51682e+14
1.38554e+14
1.27028e+14
1.17233e+14
1.09082e+14
1.02545e+14
9.7599e+13
9.44628e+13
9.34865e+13
3.26391e+15
3.24778e+15
3.22905e+15
3.20548e+15
3.18299e+15
3.16019e+15
3.13489e+15
3.10938e+15
3.08087e+15
3.04687e+15
3.00723e+15
2.96929e+15
2.93139e+15
2.88488e+15
2.83025e+15
2.77846e+15
2.72882e+15
2.67032e+15
2.6034e+15
2.52989e+15
2.45962e+15
2.39229e+15
2.31851e+15
2.24025e+15
2.16367e+15
2.09063e+15
2.015e+15
1.93804e+15
1.86136e+15
1.7859e+15
1.71166e+15
1.63984e+15
1.57116e+15
1.49985e+15
1.42671e+15
1.35817e+15
1.29414e+15
1.22817e+15
1.15966e+15
1.09489e+15
1.03356e+15
9.74315e+14
9.17217e+14
8.59787e+14
8.03351e+14
7.47634e+14
6.95807e+14
6.48021e+14
5.99831e+14
5.50923e+14
5.03013e+14
4.61231e+14
4.25231e+14
3.88688e+14
3.52423e+14
3.21291e+14
2.95356e+14
2.6977e+14
2.4473e+14
2.21174e+14
2.00274e+14
1.82472e+14
1.66204e+14
1.5168e+14
1.38552e+14
1.27027e+14
1.17231e+14
1.09081e+14
1.02543e+14
9.75961e+13
9.44578e+13
9.34789e+13
3.264e+15
3.24787e+15
3.22916e+15
3.20559e+15
3.18311e+15
3.16031e+15
3.13501e+15
3.1095e+15
3.08102e+15
3.04703e+15
3.0074e+15
2.96945e+15
2.93157e+15
2.88509e+15
2.83043e+15
2.77864e+15
2.72904e+15
2.67055e+15
2.60362e+15
2.53003e+15
2.45976e+15
2.39244e+15
2.31864e+15
2.24034e+15
2.16374e+15
2.0907e+15
2.01504e+15
1.93808e+15
1.86138e+15
1.78591e+15
1.71166e+15
1.63984e+15
1.57116e+15
1.49985e+15
1.4267e+15
1.35817e+15
1.29414e+15
1.22817e+15
1.15966e+15
1.09489e+15
1.03356e+15
9.74315e+14
9.17224e+14
8.59812e+14
8.0338e+14
7.47635e+14
6.95814e+14
6.48068e+14
5.99882e+14
5.50987e+14
5.03013e+14
4.61231e+14
4.25262e+14
3.88711e+14
3.52427e+14
3.21291e+14
2.9537e+14
2.69778e+14
2.44735e+14
2.21174e+14
2.00273e+14
1.8247e+14
1.66202e+14
1.51678e+14
1.3855e+14
1.27024e+14
1.17228e+14
1.09079e+14
1.0254e+14
9.75923e+13
9.44519e+13
9.34715e+13
3.26409e+15
3.24797e+15
3.22927e+15
3.20571e+15
3.18323e+15
3.16043e+15
3.13514e+15
3.10964e+15
3.08117e+15
3.04721e+15
3.00758e+15
2.96962e+15
2.93176e+15
2.88531e+15
2.83061e+15
2.77884e+15
2.72927e+15
2.67078e+15
2.60384e+15
2.53018e+15
2.45989e+15
2.3926e+15
2.31877e+15
2.24044e+15
2.16381e+15
2.09076e+15
2.01509e+15
1.93812e+15
1.86141e+15
1.78592e+15
1.71166e+15
1.63984e+15
1.57116e+15
1.49986e+15
1.4267e+15
1.35817e+15
1.29414e+15
1.22817e+15
1.15966e+15
1.09489e+15
1.03356e+15
9.74315e+14
9.17232e+14
8.59837e+14
8.03406e+14
7.47635e+14
6.95818e+14
6.48112e+14
5.99932e+14
5.51046e+14
5.03012e+14
4.6123e+14
4.25288e+14
3.88728e+14
3.52428e+14
3.21291e+14
2.95379e+14
2.69785e+14
2.44738e+14
2.21174e+14
2.00272e+14
1.82469e+14
1.662e+14
1.51676e+14
1.38548e+14
1.27022e+14
1.17225e+14
1.09076e+14
1.02536e+14
9.75878e+13
9.4446e+13
9.3464e+13
3.26419e+15
3.24808e+15
3.22939e+15
3.20584e+15
3.18335e+15
3.16056e+15
3.13527e+15
3.10978e+15
3.08134e+15
3.04739e+15
3.00776e+15
2.9698e+15
2.93196e+15
2.88554e+15
2.83083e+15
2.77906e+15
2.72952e+15
2.67103e+15
2.60407e+15
2.53035e+15
2.46004e+15
2.39276e+15
2.31891e+15
2.24054e+15
2.16389e+15
2.09084e+15
2.01514e+15
1.93817e+15
1.86144e+15
1.78594e+15
1.71166e+15
1.63984e+15
1.57117e+15
1.49986e+15
1.4267e+15
1.35817e+15
1.29414e+15
1.22817e+15
1.15966e+15
1.09489e+15
1.03356e+15
9.74315e+14
9.17241e+14
8.59864e+14
8.03434e+14
7.47636e+14
6.95824e+14
6.48158e+14
5.99983e+14
5.51105e+14
5.03012e+14
4.61229e+14
4.25313e+14
3.88745e+14
3.52429e+14
3.21291e+14
2.95389e+14
2.69792e+14
2.44741e+14
2.21173e+14
2.00271e+14
1.82467e+14
1.66198e+14
1.51674e+14
1.38545e+14
1.27019e+14
1.17221e+14
1.09073e+14
1.02532e+14
9.75829e+13
9.444e+13
9.34564e+13
3.2643e+15
3.24819e+15
3.22952e+15
3.20597e+15
3.18348e+15
3.1607e+15
3.13541e+15
3.10993e+15
3.08151e+15
3.04758e+15
3.00795e+15
2.96999e+15
2.93217e+15
2.88578e+15
2.83106e+15
2.77929e+15
2.72977e+15
2.6713e+15
2.60433e+15
2.53054e+15
2.4602e+15
2.39293e+15
2.31906e+15
2.24066e+15
2.16398e+15
2.09091e+15
2.0152e+15
1.93822e+15
1.86148e+15
1.78595e+15
1.71167e+15
1.63984e+15
1.57117e+15
1.49986e+15
1.4267e+15
1.35817e+15
1.29415e+15
1.22817e+15
1.15966e+15
1.09489e+15
1.03356e+15
9.74316e+14
9.17251e+14
8.59891e+14
8.03462e+14
7.47636e+14
6.9583e+14
6.48204e+14
6.00036e+14
5.51165e+14
5.03012e+14
4.61228e+14
4.25337e+14
3.8876e+14
3.52429e+14
3.2129e+14
2.95397e+14
2.69797e+14
2.44742e+14
2.21171e+14
2.00269e+14
1.82465e+14
1.66195e+14
1.51671e+14
1.38542e+14
1.27015e+14
1.17217e+14
1.09069e+14
1.02527e+14
9.7578e+13
9.44341e+13
9.34486e+13
3.26442e+15
3.24831e+15
3.22966e+15
3.20611e+15
3.18362e+15
3.16085e+15
3.13557e+15
3.11009e+15
3.08169e+15
3.04778e+15
3.00816e+15
2.97019e+15
2.93239e+15
2.88604e+15
2.83132e+15
2.77954e+15
2.73004e+15
2.67159e+15
2.60463e+15
2.53076e+15
2.46041e+15
2.39313e+15
2.31924e+15
2.2408e+15
2.1641e+15
2.09101e+15
2.01526e+15
1.93828e+15
1.86152e+15
1.78598e+15
1.71167e+15
1.63984e+15
1.57117e+15
1.49986e+15
1.4267e+15
1.35816e+15
1.29414e+15
1.22817e+15
1.15966e+15
1.09489e+15
1.03356e+15
9.74316e+14
9.17264e+14
8.59923e+14
8.03495e+14
7.47639e+14
6.95842e+14
6.48258e+14
6.00095e+14
5.51231e+14
5.03015e+14
4.61228e+14
4.25364e+14
3.88778e+14
3.5243e+14
3.2129e+14
2.95408e+14
2.69804e+14
2.44744e+14
2.2117e+14
2.00266e+14
1.82462e+14
1.66192e+14
1.51668e+14
1.38538e+14
1.27011e+14
1.17213e+14
1.09064e+14
1.02523e+14
9.75731e+13
9.44283e+13
9.34407e+13
3.26455e+15
3.24844e+15
3.2298e+15
3.20626e+15
3.18377e+15
3.16101e+15
3.13573e+15
3.11026e+15
3.08188e+15
3.048e+15
3.00837e+15
2.9704e+15
2.93262e+15
2.8863e+15
2.8316e+15
2.7798e+15
2.73032e+15
2.6719e+15
2.60497e+15
2.53103e+15
2.46064e+15
2.39335e+15
2.31944e+15
2.24096e+15
2.16423e+15
2.09112e+15
2.01534e+15
1.93835e+15
1.86157e+15
1.786e+15
1.71167e+15
1.63984e+15
1.57117e+15
1.49986e+15
1.4267e+15
1.35816e+15
1.29414e+15
1.22817e+15
1.15966e+15
1.09489e+15
1.03356e+15
9.74317e+14
9.17276e+14
8.59956e+14
8.03532e+14
7.47645e+14
6.95861e+14
6.48317e+14
6.00159e+14
5.51305e+14
5.03023e+14
4.61227e+14
4.25396e+14
3.888e+14
3.52434e+14
3.2129e+14
2.9542e+14
2.69811e+14
2.44747e+14
2.21168e+14
2.00264e+14
1.82459e+14
1.66189e+14
1.51664e+14
1.38534e+14
1.27006e+14
1.17208e+14
1.0906e+14
1.02518e+14
9.75681e+13
9.44224e+13
9.34328e+13
3.26468e+15
3.24858e+15
3.22995e+15
3.20642e+15
3.18393e+15
3.16117e+15
3.1359e+15
3.11043e+15
3.08208e+15
3.04822e+15
3.0086e+15
2.97062e+15
2.93286e+15
2.88658e+15
2.83189e+15
2.78008e+15
2.73061e+15
2.67222e+15
2.60533e+15
2.53137e+15
2.46095e+15
2.39362e+15
2.31969e+15
2.24117e+15
2.16441e+15
2.09126e+15
2.01543e+15
1.93843e+15
1.86163e+15
1.78602e+15
1.71167e+15
1.63984e+15
1.57117e+15
1.49986e+15
1.4267e+15
1.35816e+15
1.29414e+15
1.22817e+15
1.15966e+15
1.09489e+15
1.03356e+15
9.74317e+14
9.17291e+14
8.59995e+14
8.03579e+14
7.47659e+14
6.95894e+14
6.48392e+14
6.00233e+14
5.51395e+14
5.03021e+14
4.61233e+14
4.2544e+14
3.88833e+14
3.52444e+14
3.21296e+14
2.95441e+14
2.69821e+14
2.44752e+14
2.21167e+14
2.00261e+14
1.82456e+14
1.66185e+14
1.5166e+14
1.38529e+14
1.27001e+14
1.17202e+14
1.09055e+14
1.02513e+14
9.75633e+13
9.44165e+13
9.34249e+13
3.26482e+15
3.24873e+15
3.23011e+15
3.20658e+15
3.1841e+15
3.16135e+15
3.13608e+15
3.11062e+15
3.0823e+15
3.04846e+15
3.00884e+15
2.97086e+15
2.93312e+15
2.88688e+15
2.83219e+15
2.78037e+15
2.73092e+15
2.67255e+15
2.60571e+15
2.53175e+15
2.46131e+15
2.39394e+15
2.31999e+15
2.24142e+15
2.16462e+15
2.09142e+15
2.01555e+15
1.93852e+15
1.86169e+15
1.78603e+15
1.71167e+15
1.63984e+15
1.57117e+15
1.49986e+15
1.42669e+15
1.35816e+15
1.29414e+15
1.22817e+15
1.15966e+15
1.09489e+15
1.03356e+15
9.74318e+14
9.17305e+14
8.60038e+14
8.03636e+14
7.47686e+14
6.95942e+14
6.4848e+14
6.00319e+14
5.51492e+14
5.03019e+14
4.61266e+14
4.25496e+14
3.88879e+14
3.52465e+14
3.21309e+14
2.95469e+14
2.69835e+14
2.4476e+14
2.21166e+14
2.00258e+14
1.82452e+14
1.66181e+14
1.51656e+14
1.38524e+14
1.26996e+14
1.17197e+14
1.0905e+14
1.02509e+14
9.75584e+13
9.44107e+13
9.3417e+13
3.26498e+15
3.24891e+15
3.2303e+15
3.20677e+15
3.18428e+15
3.16154e+15
3.13626e+15
3.11082e+15
3.08251e+15
3.04869e+15
3.00896e+15
2.97102e+15
2.93329e+15
2.88697e+15
2.83221e+15
2.78041e+15
2.73103e+15
2.6727e+15
2.60574e+15
2.53175e+15
2.46131e+15
2.39395e+15
2.32e+15
2.24142e+15
2.16462e+15
2.09143e+15
2.01559e+15
1.93859e+15
1.86175e+15
1.7861e+15
1.71173e+15
1.63995e+15
1.57134e+15
1.5e+15
1.42676e+15
1.35822e+15
1.29425e+15
1.22827e+15
1.1597e+15
1.0949e+15
1.03359e+15
9.74327e+14
9.17323e+14
8.60041e+14
8.03636e+14
7.47686e+14
6.95941e+14
6.48477e+14
6.00318e+14
5.51489e+14
5.03017e+14
4.61264e+14
4.25494e+14
3.88876e+14
3.52462e+14
3.21306e+14
2.95466e+14
2.69832e+14
2.44757e+14
2.21162e+14
2.00254e+14
1.82447e+14
1.66176e+14
1.51651e+14
1.38519e+14
1.2699e+14
1.17191e+14
1.09047e+14
1.02505e+14
9.75544e+13
9.44045e+13
9.34076e+13
3.26516e+15
3.24909e+15
3.23049e+15
3.20696e+15
3.18447e+15
3.16173e+15
3.13646e+15
3.11102e+15
3.08274e+15
3.04893e+15
3.00919e+15
2.97126e+15
2.93355e+15
2.88714e+15
2.83231e+15
2.78055e+15
2.73125e+15
2.6729e+15
2.60582e+15
2.53179e+15
2.46134e+15
2.39402e+15
2.32004e+15
2.24146e+15
2.16465e+15
2.09147e+15
2.01564e+15
1.93866e+15
1.86182e+15
1.78619e+15
1.71179e+15
1.64002e+15
1.57147e+15
1.50012e+15
1.42681e+15
1.35825e+15
1.29433e+15
1.22836e+15
1.15974e+15
1.0949e+15
1.0336e+15
9.74338e+14
9.17346e+14
8.60053e+14
8.03635e+14
7.47685e+14
6.9594e+14
6.48476e+14
6.0032e+14
5.51487e+14
5.03015e+14
4.61261e+14
4.25491e+14
3.88874e+14
3.5246e+14
3.21304e+14
2.95463e+14
2.69829e+14
2.44753e+14
2.21158e+14
2.0025e+14
1.82442e+14
1.6617e+14
1.51646e+14
1.38513e+14
1.26984e+14
1.17185e+14
1.09043e+14
1.02502e+14
9.75505e+13
9.43984e+13
9.33983e+13
3.26535e+15
3.24929e+15
3.2307e+15
3.20717e+15
3.18467e+15
3.16194e+15
3.13667e+15
3.11124e+15
3.08298e+15
3.04919e+15
3.00945e+15
2.97152e+15
2.93383e+15
2.8874e+15
2.83251e+15
2.78079e+15
2.73157e+15
2.67316e+15
2.606e+15
2.53192e+15
2.46145e+15
2.39415e+15
2.32013e+15
2.24154e+15
2.16472e+15
2.09154e+15
2.01572e+15
1.93875e+15
1.8619e+15
1.78628e+15
1.71185e+15
1.64009e+15
1.57159e+15
1.50022e+15
1.42684e+15
1.35825e+15
1.29438e+15
1.22841e+15
1.15976e+15
1.09491e+15
1.0336e+15
9.7435e+14
9.17372e+14
8.60071e+14
8.03635e+14
7.47685e+14
6.95939e+14
6.48475e+14
6.00331e+14
5.51485e+14
5.03012e+14
4.61257e+14
4.25488e+14
3.88871e+14
3.52456e+14
3.21301e+14
2.95459e+14
2.69827e+14
2.44749e+14
2.21153e+14
2.00245e+14
1.82437e+14
1.66165e+14
1.5164e+14
1.38507e+14
1.26977e+14
1.17179e+14
1.09039e+14
1.02498e+14
9.75468e+13
9.43924e+13
9.3389e+13
3.26554e+15
3.24949e+15
3.23092e+15
3.20739e+15
3.18489e+15
3.16216e+15
3.1369e+15
3.11147e+15
3.08324e+15
3.04947e+15
3.00973e+15
2.9718e+15
2.93413e+15
2.88774e+15
2.83286e+15
2.78113e+15
2.73193e+15
2.67351e+15
2.6063e+15
2.53218e+15
2.4617e+15
2.39436e+15
2.32031e+15
2.2417e+15
2.16486e+15
2.09167e+15
2.01582e+15
1.93884e+15
1.86199e+15
1.78638e+15
1.7119e+15
1.6401e+15
1.57165e+15
1.50027e+15
1.42684e+15
1.35825e+15
1.29438e+15
1.22843e+15
1.15976e+15
1.09491e+15
1.0336e+15
9.74364e+14
9.17405e+14
8.60102e+14
8.03642e+14
7.47684e+14
6.95939e+14
6.48497e+14
6.00365e+14
5.51484e+14
5.0301e+14
4.61255e+14
4.25486e+14
3.88868e+14
3.52453e+14
3.21297e+14
2.95457e+14
2.69824e+14
2.44746e+14
2.21149e+14
2.00239e+14
1.82431e+14
1.66158e+14
1.51634e+14
1.38501e+14
1.26971e+14
1.17172e+14
1.09034e+14
1.02495e+14
9.75434e+13
9.43866e+13
9.338e+13
3.26575e+15
3.24971e+15
3.23114e+15
3.20762e+15
3.18512e+15
3.1624e+15
3.13714e+15
3.11173e+15
3.08351e+15
3.04976e+15
3.01002e+15
2.9721e+15
2.93445e+15
2.8881e+15
2.83324e+15
2.78149e+15
2.73231e+15
2.67393e+15
2.60676e+15
2.53259e+15
2.46208e+15
2.39467e+15
2.32059e+15
2.24195e+15
2.16508e+15
2.09186e+15
2.01596e+15
1.93896e+15
1.8621e+15
1.78647e+15
1.71195e+15
1.64011e+15
1.57167e+15
1.50027e+15
1.42684e+15
1.35825e+15
1.29438e+15
1.22843e+15
1.15976e+15
1.09491e+15
1.0336e+15
9.74379e+14
9.17438e+14
8.60144e+14
8.03674e+14
7.47688e+14
6.95962e+14
6.4855e+14
6.00422e+14
5.51512e+14
5.03009e+14
4.61254e+14
4.25489e+14
3.88866e+14
3.5245e+14
3.21294e+14
2.95454e+14
2.69822e+14
2.44741e+14
2.21144e+14
2.00233e+14
1.82424e+14
1.66152e+14
1.51628e+14
1.38494e+14
1.26963e+14
1.17165e+14
1.09029e+14
1.02491e+14
9.754e+13
9.4381e+13
9.33712e+13
3.26597e+15
3.24994e+15
3.23138e+15
3.20787e+15
3.18536e+15
3.16265e+15
3.1374e+15
3.112e+15
3.0838e+15
3.05008e+15
3.01035e+15
2.97242e+15
2.93479e+15
2.88849e+15
2.83364e+15
2.78188e+15
2.73272e+15
2.67436e+15
2.60726e+15
2.53309e+15
2.46255e+15
2.39512e+15
2.32101e+15
2.24232e+15
2.16543e+15
2.09214e+15
2.01614e+15
1.93909e+15
1.86221e+15
1.78656e+15
1.71199e+15
1.64011e+15
1.57167e+15
1.50027e+15
1.42684e+15
1.35825e+15
1.29438e+15
1.22843e+15
1.15976e+15
1.09491e+15
1.0336e+15
9.74395e+14
9.17479e+14
8.60206e+14
8.03736e+14
7.47731e+14
6.96041e+14
6.48662e+14
6.00512e+14
5.51599e+14
5.03049e+14
4.61291e+14
4.25529e+14
3.88888e+14
3.52459e+14
3.21301e+14
2.95473e+14
2.69827e+14
2.44738e+14
2.2114e+14
2.00228e+14
1.82418e+14
1.66145e+14
1.51621e+14
1.38487e+14
1.26956e+14
1.17158e+14
1.09023e+14
1.02488e+14
9.75368e+13
9.43756e+13
9.3363e+13
3.2662e+15
3.25018e+15
3.23163e+15
3.20812e+15
3.18561e+15
3.16292e+15
3.13768e+15
3.11228e+15
3.08411e+15
3.05042e+15
3.0107e+15
2.97277e+15
2.93516e+15
2.8889e+15
2.83408e+15
2.7823e+15
2.73316e+15
2.67483e+15
2.60779e+15
2.53363e+15
2.46305e+15
2.39561e+15
2.32154e+15
2.24285e+15
2.1659e+15
2.09249e+15
2.01637e+15
1.93926e+15
1.86234e+15
1.78661e+15
1.71201e+15
1.64011e+15
1.57167e+15
1.50027e+15
1.42684e+15
1.35824e+15
1.29437e+15
1.22842e+15
1.15976e+15
1.09491e+15
1.0336e+15
9.74412e+14
9.17516e+14
8.60283e+14
8.03842e+14
7.47834e+14
6.96177e+14
6.48824e+14
6.00648e+14
5.51767e+14
5.03157e+14
4.61396e+14
4.25619e+14
3.88964e+14
3.52505e+14
3.2134e+14
2.95522e+14
2.69846e+14
2.4475e+14
2.21136e+14
2.00222e+14
1.82411e+14
1.66138e+14
1.51614e+14
1.38479e+14
1.26948e+14
1.1715e+14
1.09017e+14
1.02484e+14
9.75336e+13
9.43705e+13
9.33555e+13
3.26647e+15
3.25047e+15
3.23193e+15
3.2084e+15
3.18589e+15
3.1632e+15
3.13796e+15
3.11257e+15
3.08442e+15
3.05074e+15
3.01102e+15
2.9731e+15
2.93551e+15
2.88912e+15
2.83422e+15
2.78252e+15
2.73341e+15
2.67505e+15
2.60787e+15
2.53365e+15
2.46307e+15
2.39571e+15
2.32158e+15
2.24288e+15
2.16593e+15
2.09255e+15
2.01648e+15
1.9394e+15
1.86247e+15
1.78677e+15
1.71216e+15
1.64032e+15
1.57192e+15
1.50049e+15
1.42698e+15
1.35835e+15
1.29453e+15
1.22857e+15
1.15983e+15
1.09493e+15
1.03365e+15
9.7445e+14
9.17552e+14
8.60283e+14
8.0384e+14
7.47832e+14
6.96172e+14
6.48818e+14
6.00645e+14
5.51762e+14
5.03151e+14
4.61389e+14
4.25614e+14
3.88958e+14
3.52499e+14
3.21334e+14
2.95516e+14
2.6984e+14
2.44743e+14
2.21129e+14
2.00215e+14
1.82403e+14
1.6613e+14
1.51607e+14
1.38471e+14
1.26939e+14
1.17142e+14
1.09015e+14
1.02484e+14
9.75322e+13
9.43647e+13
9.33452e+13
3.26676e+15
3.25076e+15
3.23224e+15
3.20871e+15
3.18618e+15
3.1635e+15
3.13827e+15
3.11288e+15
3.08475e+15
3.05109e+15
3.01137e+15
2.97345e+15
2.93588e+15
2.88954e+15
2.83465e+15
2.78294e+15
2.73385e+15
2.67548e+15
2.60817e+15
2.53395e+15
2.46337e+15
2.39597e+15
2.32178e+15
2.24307e+15
2.16611e+15
2.09275e+15
2.01664e+15
1.93954e+15
1.86262e+15
1.78696e+15
1.71229e+15
1.64043e+15
1.57207e+15
1.50062e+15
1.42704e+15
1.35836e+15
1.29458e+15
1.22864e+15
1.15986e+15
1.09493e+15
1.03365e+15
9.74489e+14
9.17606e+14
8.60313e+14
8.0384e+14
7.4783e+14
6.96171e+14
6.48816e+14
6.00658e+14
5.51759e+14
5.03145e+14
4.61385e+14
4.25609e+14
3.88952e+14
3.52492e+14
3.21327e+14
2.9551e+14
2.69836e+14
2.44736e+14
2.21122e+14
2.00207e+14
1.82395e+14
1.66121e+14
1.51599e+14
1.38462e+14
1.2693e+14
1.17133e+14
1.0901e+14
1.02483e+14
9.75314e+13
9.43594e+13
9.33355e+13
3.26706e+15
3.25108e+15
3.23256e+15
3.20902e+15
3.1865e+15
3.16382e+15
3.1386e+15
3.11322e+15
3.08511e+15
3.05146e+15
3.01175e+15
2.97384e+15
2.93629e+15
2.88999e+15
2.83513e+15
2.78339e+15
2.73433e+15
2.676e+15
2.60875e+15
2.53453e+15
2.46393e+15
2.39642e+15
2.32219e+15
2.24345e+15
2.16646e+15
2.09304e+15
2.01686e+15
1.93973e+15
1.86279e+15
1.78711e+15
1.7124e+15
1.64048e+15
1.57211e+15
1.50063e+15
1.42705e+15
1.35836e+15
1.29458e+15
1.22864e+15
1.15986e+15
1.09493e+15
1.03365e+15
9.74528e+14
9.1766e+14
8.60365e+14
8.03873e+14
7.47839e+14
6.96207e+14
6.48861e+14
6.00712e+14
5.51768e+14
5.03143e+14
4.61382e+14
4.25606e+14
3.88947e+14
3.52487e+14
3.21322e+14
2.95504e+14
2.69831e+14
2.4473e+14
2.21117e+14
2.00199e+14
1.82386e+14
1.66112e+14
1.5159e+14
1.38453e+14
1.2692e+14
1.17124e+14
1.09005e+14
1.02482e+14
9.75306e+13
9.43545e+13
9.33264e+13
3.26737e+15
3.2514e+15
3.23289e+15
3.20936e+15
3.18683e+15
3.16416e+15
3.13896e+15
3.11358e+15
3.08549e+15
3.05187e+15
3.01218e+15
2.97427e+15
2.93673e+15
2.89048e+15
2.83564e+15
2.7839e+15
2.73486e+15
2.67655e+15
2.60938e+15
2.53516e+15
2.46453e+15
2.39701e+15
2.32282e+15
2.24406e+15
2.16704e+15
2.0935e+15
2.01716e+15
1.93994e+15
1.86298e+15
1.78728e+15
1.7125e+15
1.64048e+15
1.5721e+15
1.50063e+15
1.42704e+15
1.35835e+15
1.29458e+15
1.22863e+15
1.15985e+15
1.09493e+15
1.03365e+15
9.74567e+14
9.17731e+14
8.60456e+14
8.03964e+14
7.47939e+14
6.96354e+14
6.49025e+14
6.00828e+14
5.51892e+14
5.03227e+14
4.61465e+14
4.2566e+14
3.88976e+14
3.52504e+14
3.21339e+14
2.9553e+14
2.69836e+14
2.44726e+14
2.21111e+14
2.00191e+14
1.82377e+14
1.66102e+14
1.51581e+14
1.38443e+14
1.2691e+14
1.17115e+14
1.08998e+14
1.02481e+14
9.75302e+13
9.43503e+13
9.33166e+13
3.2677e+15
3.25174e+15
3.23324e+15
3.2097e+15
3.18718e+15
3.16454e+15
3.13934e+15
3.11397e+15
3.08589e+15
3.05232e+15
3.01264e+15
2.97473e+15
2.9372e+15
2.89101e+15
2.83621e+15
2.78445e+15
2.73542e+15
2.67714e+15
2.61006e+15
2.53585e+15
2.46517e+15
2.39763e+15
2.32349e+15
2.24473e+15
2.16768e+15
2.09409e+15
2.01757e+15
1.94025e+15
1.86321e+15
1.78735e+15
1.71255e+15
1.64048e+15
1.5721e+15
1.50062e+15
1.42704e+15
1.35835e+15
1.29457e+15
1.22862e+15
1.15985e+15
1.09493e+15
1.03365e+15
9.74607e+14
9.17789e+14
8.60573e+14
8.04147e+14
7.48167e+14
6.96617e+14
6.49287e+14
6.01041e+14
5.52186e+14
5.03469e+14
4.61681e+14
4.25805e+14
3.89113e+14
3.52608e+14
3.21428e+14
2.95612e+14
2.69867e+14
2.44752e+14
2.21107e+14
2.00183e+14
1.82367e+14
1.66092e+14
1.51572e+14
1.38433e+14
1.26899e+14
1.17105e+14
1.08992e+14
1.02479e+14
9.75291e+13
9.43462e+13
9.3306e+13
3.26809e+15
3.25215e+15
3.23366e+15
3.21009e+15
3.18756e+15
3.16493e+15
3.13973e+15
3.11436e+15
3.0863e+15
3.05275e+15
3.01306e+15
2.97516e+15
2.93764e+15
2.89147e+15
2.83664e+15
2.78495e+15
2.73589e+15
2.67749e+15
2.61032e+15
2.53601e+15
2.46531e+15
2.39786e+15
2.3237e+15
2.24489e+15
2.16781e+15
2.09425e+15
2.01779e+15
1.94049e+15
1.86342e+15
1.78758e+15
1.71278e+15
1.64081e+15
1.57242e+15
1.50086e+15
1.42721e+15
1.3585e+15
1.29477e+15
1.22879e+15
1.1599e+15
1.09496e+15
1.03372e+15
9.74675e+14
9.17836e+14
8.60574e+14
8.04146e+14
7.48162e+14
6.96612e+14
6.4928e+14
6.01036e+14
5.52177e+14
5.03458e+14
4.6167e+14
4.25796e+14
3.89104e+14
3.52598e+14
3.21418e+14
2.95602e+14
2.6986e+14
2.44742e+14
2.21098e+14
2.00173e+14
1.82356e+14
1.66081e+14
1.51561e+14
1.38422e+14
1.26887e+14
1.17094e+14
1.0899e+14
1.02482e+14
9.75307e+13
9.43411e+13
9.32942e+13
3.2685e+15
3.25258e+15
3.23409e+15
3.2105e+15
3.18797e+15
3.16534e+15
3.14015e+15
3.11478e+15
3.08674e+15
3.0532e+15
3.01353e+15
2.97563e+15
2.93812e+15
2.89201e+15
2.8372e+15
2.78549e+15
2.73646e+15
2.6781e+15
2.61101e+15
2.53671e+15
2.46597e+15
2.39841e+15
2.32419e+15
2.24535e+15
2.16827e+15
2.09466e+15
2.0181e+15
1.94075e+15
1.86368e+15
1.78784e+15
1.713e+15
1.64096e+15
1.57253e+15
1.50094e+15
1.42725e+15
1.3585e+15
1.29477e+15
1.22879e+15
1.1599e+15
1.09496e+15
1.03373e+15
9.74741e+14
9.17918e+14
8.60634e+14
8.04159e+14
7.48163e+14
6.96639e+14
6.49296e+14
6.01075e+14
5.52173e+14
5.03453e+14
4.61665e+14
4.25789e+14
3.89098e+14
3.5259e+14
3.21411e+14
2.95595e+14
2.69855e+14
2.44735e+14
2.2109e+14
2.00162e+14
1.82345e+14
1.6607e+14
1.5155e+14
1.3841e+14
1.26875e+14
1.17083e+14
1.08986e+14
1.02484e+14
9.75331e+13
9.4337e+13
9.32816e+13
3.26894e+15
3.25302e+15
3.23453e+15
3.21093e+15
3.1884e+15
3.16579e+15
3.14061e+15
3.11524e+15
3.08721e+15
3.05371e+15
3.01404e+15
2.97614e+15
2.93865e+15
2.89259e+15
2.83783e+15
2.7861e+15
2.73708e+15
2.67876e+15
2.61176e+15
2.53747e+15
2.46668e+15
2.39911e+15
2.32495e+15
2.2461e+15
2.16899e+15
2.09523e+15
2.01854e+15
1.94112e+15
1.86397e+15
1.78802e+15
1.71314e+15
1.641e+15
1.57254e+15
1.50094e+15
1.42725e+15
1.3585e+15
1.29477e+15
1.22878e+15
1.15989e+15
1.09496e+15
1.03373e+15
9.74808e+14
9.17986e+14
8.60731e+14
8.04291e+14
7.4831e+14
6.96817e+14
6.49447e+14
6.01217e+14
5.52337e+14
5.03554e+14
4.61743e+14
4.25835e+14
3.89129e+14
3.52605e+14
3.21419e+14
2.95603e+14
2.69859e+14
2.44729e+14
2.21084e+14
2.00149e+14
1.82332e+14
1.66057e+14
1.51539e+14
1.38397e+14
1.26861e+14
1.17071e+14
1.08981e+14
1.02485e+14
9.75346e+13
9.43332e+13
9.3268e+13
3.26945e+15
3.25356e+15
3.23507e+15
3.21143e+15
3.18887e+15
3.16625e+15
3.14107e+15
3.11569e+15
3.08767e+15
3.05418e+15
3.0145e+15
2.9766e+15
2.93907e+15
2.89267e+15
2.83783e+15
2.78614e+15
2.73713e+15
2.67876e+15
2.61176e+15
2.53746e+15
2.46669e+15
2.39912e+15
2.32495e+15
2.24611e+15
2.16899e+15
2.09525e+15
2.01872e+15
1.94137e+15
1.86423e+15
1.78838e+15
1.71355e+15
1.64161e+15
1.57316e+15
1.50153e+15
1.42773e+15
1.35894e+15
1.29528e+15
1.22925e+15
1.16017e+15
1.09509e+15
1.03392e+15
9.7491e+14
9.1805e+14
8.6073e+14
8.04287e+14
7.48304e+14
6.96807e+14
6.49437e+14
6.01211e+14
5.52326e+14
5.03541e+14
4.6173e+14
4.25826e+14
3.89118e+14
3.52593e+14
3.21408e+14
2.95591e+14
2.69849e+14
2.44717e+14
2.21072e+14
2.00137e+14
1.82319e+14
1.66044e+14
1.51526e+14
1.38383e+14
1.26847e+14
1.17059e+14
1.08983e+14
1.02492e+14
9.75399e+13
9.43283e+13
9.32529e+13