/*--------------------------------*- C++ -*----------------------------------*\
| =========                 |                                                 |
| \\      /  F ield         | OpenFOAM: The Open Source CFD Toolbox           |
|  \\    /   O peration     | Version:  v2012                                 |
|   \\  /    A nd           | Website:  www.openfoam.com                      |
|    \\/     M anipulation  |                                                 |
\*---------------------------------------------------------------------------*/
FoamFile
{
    version     2.0;
    format      ascii;
    class       volScalarField;
    location    "1e-06";
    object      totalPMean;
}
// * * * * * * * * * * * * * * * * * * * * * * * * * * * * * * * * * * * * * //

dimensions      [1 -1 -2 0 0 0 0];


internalField   nonuniform List<scalar> 
10203
(
2.58471e+07
2.58291e+07
2.58009e+07
2.57518e+07
2.57118e+07
2.56709e+07
2.5619e+07
2.55688e+07
2.55081e+07
2.54286e+07
2.53264e+07
2.52326e+07
2.51409e+07
2.50148e+07
2.48534e+07
2.47065e+07
2.45714e+07
2.43957e+07
2.4189e+07
2.39473e+07
2.37211e+07
2.35097e+07
2.32614e+07
2.29851e+07
2.27159e+07
2.24641e+07
2.21866e+07
2.18989e+07
2.1607e+07
2.13148e+07
2.10201e+07
2.07295e+07
2.04537e+07
2.01531e+07
1.9826e+07
1.95225e+07
1.92398e+07
1.89318e+07
1.85931e+07
1.82721e+07
1.79598e+07
1.76474e+07
1.73396e+07
1.70126e+07
1.66823e+07
1.63369e+07
1.60081e+07
1.57006e+07
1.53674e+07
1.50101e+07
1.46272e+07
1.42904e+07
1.40015e+07
1.36714e+07
1.3314e+07
1.3e+07
1.27391e+07
1.24484e+07
1.21422e+07
1.18278e+07
1.15259e+07
1.12526e+07
1.09712e+07
1.06955e+07
1.04129e+07
1.01303e+07
9.85096e+06
9.57225e+06
9.29151e+06
9.00215e+06
8.70253e+06
8.40551e+06
2.5847e+07
2.58291e+07
2.58009e+07
2.57519e+07
2.57118e+07
2.56709e+07
2.5619e+07
2.55689e+07
2.55083e+07
2.54287e+07
2.53265e+07
2.52326e+07
2.5141e+07
2.50149e+07
2.48534e+07
2.47066e+07
2.45716e+07
2.43959e+07
2.41892e+07
2.39474e+07
2.37211e+07
2.35098e+07
2.32616e+07
2.29852e+07
2.27159e+07
2.24642e+07
2.21867e+07
2.1899e+07
2.1607e+07
2.13148e+07
2.10201e+07
2.07295e+07
2.04537e+07
2.01531e+07
1.9826e+07
1.95224e+07
1.92398e+07
1.89318e+07
1.85931e+07
1.8272e+07
1.79598e+07
1.76474e+07
1.73396e+07
1.70126e+07
1.66824e+07
1.63369e+07
1.60081e+07
1.57007e+07
1.53675e+07
1.50103e+07
1.46272e+07
1.42904e+07
1.40015e+07
1.36716e+07
1.33141e+07
1.3e+07
1.27391e+07
1.24485e+07
1.21424e+07
1.18279e+07
1.15259e+07
1.12526e+07
1.09712e+07
1.06955e+07
1.04129e+07
1.01303e+07
9.85097e+06
9.57231e+06
9.29152e+06
9.00214e+06
8.70252e+06
8.40556e+06
2.5847e+07
2.58291e+07
2.5801e+07
2.57519e+07
2.57119e+07
2.5671e+07
2.56191e+07
2.55691e+07
2.55086e+07
2.54289e+07
2.53265e+07
2.52327e+07
2.51413e+07
2.50152e+07
2.48536e+07
2.47068e+07
2.45719e+07
2.43961e+07
2.41895e+07
2.39475e+07
2.37213e+07
2.351e+07
2.32618e+07
2.29853e+07
2.2716e+07
2.24642e+07
2.21868e+07
2.18991e+07
2.16071e+07
2.13148e+07
2.102e+07
2.07295e+07
2.04537e+07
2.01531e+07
1.9826e+07
1.95224e+07
1.92397e+07
1.89318e+07
1.85931e+07
1.8272e+07
1.79598e+07
1.76474e+07
1.73396e+07
1.70127e+07
1.66824e+07
1.63369e+07
1.60081e+07
1.57008e+07
1.53677e+07
1.50105e+07
1.46272e+07
1.42904e+07
1.40017e+07
1.36717e+07
1.33141e+07
1.3e+07
1.27392e+07
1.24486e+07
1.21425e+07
1.18279e+07
1.15259e+07
1.12526e+07
1.09713e+07
1.06956e+07
1.04129e+07
1.01303e+07
9.85098e+06
9.57234e+06
9.29153e+06
9.00215e+06
8.70252e+06
8.4056e+06
2.58471e+07
2.58293e+07
2.58012e+07
2.57521e+07
2.57121e+07
2.56711e+07
2.56192e+07
2.55693e+07
2.55088e+07
2.54291e+07
2.53265e+07
2.52327e+07
2.51414e+07
2.50154e+07
2.48536e+07
2.47068e+07
2.45722e+07
2.43964e+07
2.41897e+07
2.39475e+07
2.37213e+07
2.35102e+07
2.32619e+07
2.29854e+07
2.2716e+07
2.24643e+07
2.21868e+07
2.18991e+07
2.16071e+07
2.13148e+07
2.102e+07
2.07295e+07
2.04538e+07
2.01532e+07
1.9826e+07
1.95224e+07
1.92398e+07
1.89319e+07
1.8593e+07
1.8272e+07
1.79598e+07
1.76474e+07
1.73396e+07
1.70127e+07
1.66824e+07
1.63369e+07
1.60081e+07
1.57008e+07
1.53677e+07
1.50108e+07
1.46272e+07
1.42903e+07
1.40017e+07
1.36718e+07
1.33141e+07
1.3e+07
1.27392e+07
1.24486e+07
1.21425e+07
1.18279e+07
1.15259e+07
1.12526e+07
1.09713e+07
1.06956e+07
1.04129e+07
1.01303e+07
9.85098e+06
9.57234e+06
9.29152e+06
9.00213e+06
8.70249e+06
8.4056e+06
2.58473e+07
2.58295e+07
2.58015e+07
2.57524e+07
2.57124e+07
2.56714e+07
2.56193e+07
2.55695e+07
2.55091e+07
2.54293e+07
2.53265e+07
2.52327e+07
2.51415e+07
2.50155e+07
2.48535e+07
2.47068e+07
2.45723e+07
2.43965e+07
2.41897e+07
2.39475e+07
2.37212e+07
2.35102e+07
2.32619e+07
2.29854e+07
2.27159e+07
2.24643e+07
2.21868e+07
2.18992e+07
2.16071e+07
2.13149e+07
2.102e+07
2.07295e+07
2.0454e+07
2.01533e+07
1.9826e+07
1.95224e+07
1.92399e+07
1.8932e+07
1.85931e+07
1.8272e+07
1.79598e+07
1.76474e+07
1.73396e+07
1.70127e+07
1.66824e+07
1.63368e+07
1.60081e+07
1.57008e+07
1.53678e+07
1.5011e+07
1.46271e+07
1.42903e+07
1.40017e+07
1.36717e+07
1.33141e+07
1.3e+07
1.27392e+07
1.24486e+07
1.21425e+07
1.18279e+07
1.15259e+07
1.12526e+07
1.09712e+07
1.06956e+07
1.04129e+07
1.01303e+07
9.85099e+06
9.57239e+06
9.29155e+06
9.00213e+06
8.70248e+06
8.40562e+06
2.58474e+07
2.58297e+07
2.58018e+07
2.57526e+07
2.57127e+07
2.56717e+07
2.56196e+07
2.55699e+07
2.55095e+07
2.54298e+07
2.53267e+07
2.52328e+07
2.51419e+07
2.5016e+07
2.48537e+07
2.4707e+07
2.45728e+07
2.4397e+07
2.41901e+07
2.39477e+07
2.37214e+07
2.35105e+07
2.32621e+07
2.29855e+07
2.2716e+07
2.24644e+07
2.21869e+07
2.18993e+07
2.16071e+07
2.13149e+07
2.102e+07
2.07294e+07
2.0454e+07
2.01533e+07
1.9826e+07
1.95224e+07
1.92398e+07
1.8932e+07
1.8593e+07
1.8272e+07
1.79598e+07
1.76474e+07
1.73396e+07
1.70127e+07
1.66825e+07
1.63368e+07
1.60081e+07
1.5701e+07
1.5368e+07
1.50114e+07
1.46271e+07
1.42903e+07
1.40018e+07
1.36719e+07
1.33141e+07
1.3e+07
1.27393e+07
1.24487e+07
1.21426e+07
1.18279e+07
1.15259e+07
1.12526e+07
1.09712e+07
1.06956e+07
1.04129e+07
1.01303e+07
9.85098e+06
9.57241e+06
9.29155e+06
9.00212e+06
8.70246e+06
8.40564e+06
2.58476e+07
2.583e+07
2.58021e+07
2.57529e+07
2.57129e+07
2.5672e+07
2.56198e+07
2.55702e+07
2.55099e+07
2.54302e+07
2.53267e+07
2.52328e+07
2.51423e+07
2.50163e+07
2.48538e+07
2.47071e+07
2.45732e+07
2.43973e+07
2.41904e+07
2.39478e+07
2.37214e+07
2.35107e+07
2.32623e+07
2.29856e+07
2.2716e+07
2.24645e+07
2.21869e+07
2.18994e+07
2.16072e+07
2.13149e+07
2.102e+07
2.07294e+07
2.04542e+07
2.01533e+07
1.98259e+07
1.95224e+07
1.92398e+07
1.8932e+07
1.8593e+07
1.8272e+07
1.79597e+07
1.76473e+07
1.73396e+07
1.70128e+07
1.66826e+07
1.63368e+07
1.6008e+07
1.57011e+07
1.53681e+07
1.50116e+07
1.46271e+07
1.42903e+07
1.40019e+07
1.36719e+07
1.33141e+07
1.29999e+07
1.27393e+07
1.24487e+07
1.21426e+07
1.18279e+07
1.15259e+07
1.12526e+07
1.09712e+07
1.06955e+07
1.04129e+07
1.01303e+07
9.85097e+06
9.57242e+06
9.29156e+06
9.0021e+06
8.70242e+06
8.40565e+06
2.58478e+07
2.58303e+07
2.58024e+07
2.57532e+07
2.57133e+07
2.56724e+07
2.56202e+07
2.55706e+07
2.55103e+07
2.54306e+07
2.53268e+07
2.52329e+07
2.51426e+07
2.50166e+07
2.48538e+07
2.47071e+07
2.45736e+07
2.43977e+07
2.41907e+07
2.39478e+07
2.37214e+07
2.35108e+07
2.32624e+07
2.29856e+07
2.2716e+07
2.24645e+07
2.21869e+07
2.18995e+07
2.16072e+07
2.1315e+07
2.102e+07
2.07293e+07
2.04544e+07
2.01534e+07
1.98259e+07
1.95223e+07
1.92399e+07
1.89321e+07
1.8593e+07
1.82719e+07
1.79597e+07
1.76473e+07
1.73396e+07
1.70128e+07
1.66826e+07
1.63367e+07
1.6008e+07
1.57011e+07
1.53682e+07
1.50118e+07
1.46271e+07
1.42902e+07
1.40019e+07
1.36719e+07
1.33141e+07
1.29999e+07
1.27392e+07
1.24486e+07
1.21425e+07
1.18279e+07
1.15258e+07
1.12525e+07
1.09712e+07
1.06955e+07
1.04129e+07
1.01303e+07
9.85096e+06
9.57244e+06
9.29157e+06
9.00211e+06
8.7024e+06
8.40565e+06
2.58481e+07
2.58305e+07
2.58027e+07
2.57536e+07
2.57136e+07
2.56727e+07
2.56205e+07
2.55709e+07
2.55108e+07
2.5431e+07
2.53268e+07
2.52329e+07
2.51429e+07
2.50169e+07
2.48538e+07
2.47071e+07
2.45739e+07
2.4398e+07
2.41908e+07
2.39477e+07
2.37214e+07
2.35109e+07
2.32623e+07
2.29856e+07
2.2716e+07
2.24645e+07
2.21869e+07
2.18996e+07
2.16073e+07
2.1315e+07
2.102e+07
2.07293e+07
2.04547e+07
2.01536e+07
1.98259e+07
1.95223e+07
1.92401e+07
1.89323e+07
1.8593e+07
1.82719e+07
1.79597e+07
1.76473e+07
1.73396e+07
1.70129e+07
1.66826e+07
1.63367e+07
1.6008e+07
1.57011e+07
1.53682e+07
1.50119e+07
1.46271e+07
1.42902e+07
1.40019e+07
1.36719e+07
1.3314e+07
1.29999e+07
1.27392e+07
1.24486e+07
1.21425e+07
1.18278e+07
1.15258e+07
1.12525e+07
1.09711e+07
1.06955e+07
1.04129e+07
1.01302e+07
9.85093e+06
9.57245e+06
9.29157e+06
9.00211e+06
8.70236e+06
8.40564e+06
2.58484e+07
2.58309e+07
2.58031e+07
2.5754e+07
2.5714e+07
2.56731e+07
2.56209e+07
2.55713e+07
2.55112e+07
2.54314e+07
2.53267e+07
2.52328e+07
2.51431e+07
2.5017e+07
2.48537e+07
2.4707e+07
2.45741e+07
2.43983e+07
2.41908e+07
2.39477e+07
2.37213e+07
2.35108e+07
2.32622e+07
2.29856e+07
2.27159e+07
2.24645e+07
2.21869e+07
2.18997e+07
2.16074e+07
2.13152e+07
2.102e+07
2.07293e+07
2.04551e+07
2.01539e+07
1.9826e+07
1.95224e+07
1.92404e+07
1.89327e+07
1.85932e+07
1.82719e+07
1.79597e+07
1.76472e+07
1.73396e+07
1.70129e+07
1.66826e+07
1.63367e+07
1.60079e+07
1.5701e+07
1.53682e+07
1.50118e+07
1.4627e+07
1.42901e+07
1.40018e+07
1.36718e+07
1.3314e+07
1.29998e+07
1.27392e+07
1.24486e+07
1.21425e+07
1.18278e+07
1.15257e+07
1.12525e+07
1.09711e+07
1.06955e+07
1.04128e+07
1.01302e+07
9.8509e+06
9.57248e+06
9.29157e+06
9.00213e+06
8.70233e+06
8.40563e+06
2.58487e+07
2.58311e+07
2.58034e+07
2.57543e+07
2.57143e+07
2.56735e+07
2.56213e+07
2.55718e+07
2.55118e+07
2.5432e+07
2.53273e+07
2.52334e+07
2.51438e+07
2.50178e+07
2.48544e+07
2.47077e+07
2.45749e+07
2.43991e+07
2.41916e+07
2.39482e+07
2.37219e+07
2.35114e+07
2.32627e+07
2.29859e+07
2.27162e+07
2.24648e+07
2.2187e+07
2.18999e+07
2.16075e+07
2.13152e+07
2.10199e+07
2.07292e+07
2.04551e+07
2.01538e+07
1.9826e+07
1.95223e+07
1.92403e+07
1.89326e+07
1.85931e+07
1.82719e+07
1.79597e+07
1.76472e+07
1.73397e+07
1.7013e+07
1.66827e+07
1.63366e+07
1.60079e+07
1.57014e+07
1.53686e+07
1.50124e+07
1.4627e+07
1.42901e+07
1.40021e+07
1.36721e+07
1.3314e+07
1.29998e+07
1.27393e+07
1.24487e+07
1.21425e+07
1.18277e+07
1.15257e+07
1.12524e+07
1.0971e+07
1.06954e+07
1.04128e+07
1.01301e+07
9.85085e+06
9.57244e+06
9.29154e+06
9.00211e+06
8.7023e+06
8.40569e+06
2.58489e+07
2.58315e+07
2.58038e+07
2.57547e+07
2.57147e+07
2.5674e+07
2.56217e+07
2.55722e+07
2.55123e+07
2.54326e+07
2.53279e+07
2.5234e+07
2.51444e+07
2.50186e+07
2.4855e+07
2.47083e+07
2.45758e+07
2.44e+07
2.41924e+07
2.39488e+07
2.37223e+07
2.3512e+07
2.32631e+07
2.29863e+07
2.27164e+07
2.2465e+07
2.21872e+07
2.19e+07
2.16076e+07
2.13152e+07
2.10199e+07
2.07291e+07
2.04551e+07
2.01537e+07
1.9826e+07
1.95223e+07
1.92403e+07
1.89326e+07
1.85931e+07
1.82718e+07
1.79597e+07
1.76472e+07
1.73397e+07
1.70132e+07
1.66829e+07
1.63366e+07
1.60079e+07
1.57017e+07
1.53689e+07
1.50128e+07
1.4627e+07
1.42901e+07
1.40024e+07
1.36722e+07
1.3314e+07
1.29997e+07
1.27394e+07
1.24487e+07
1.21425e+07
1.18277e+07
1.15256e+07
1.12523e+07
1.0971e+07
1.06953e+07
1.04127e+07
1.01301e+07
9.85078e+06
9.5724e+06
9.29149e+06
9.00209e+06
8.70228e+06
8.40578e+06
2.58493e+07
2.58318e+07
2.58042e+07
2.57552e+07
2.57152e+07
2.56744e+07
2.56222e+07
2.55727e+07
2.55129e+07
2.54333e+07
2.53285e+07
2.52346e+07
2.51451e+07
2.50194e+07
2.48558e+07
2.47091e+07
2.45767e+07
2.44009e+07
2.41933e+07
2.39494e+07
2.37229e+07
2.35126e+07
2.32635e+07
2.29867e+07
2.27167e+07
2.24654e+07
2.21874e+07
2.19002e+07
2.16077e+07
2.13153e+07
2.10199e+07
2.0729e+07
2.04551e+07
2.01536e+07
1.9826e+07
1.95223e+07
1.92402e+07
1.89326e+07
1.8593e+07
1.82718e+07
1.79596e+07
1.76471e+07
1.73397e+07
1.70133e+07
1.66831e+07
1.63365e+07
1.60079e+07
1.5702e+07
1.53693e+07
1.50133e+07
1.4627e+07
1.429e+07
1.40026e+07
1.36724e+07
1.33139e+07
1.29997e+07
1.27395e+07
1.24488e+07
1.21425e+07
1.18276e+07
1.15256e+07
1.12523e+07
1.09709e+07
1.06953e+07
1.04126e+07
1.013e+07
9.8507e+06
9.57234e+06
9.29144e+06
9.00208e+06
8.70229e+06
8.4059e+06
2.58496e+07
2.58322e+07
2.58047e+07
2.57556e+07
2.57156e+07
2.56749e+07
2.56226e+07
2.55732e+07
2.55134e+07
2.54339e+07
2.53292e+07
2.52352e+07
2.51459e+07
2.50203e+07
2.48566e+07
2.47099e+07
2.45776e+07
2.44019e+07
2.41943e+07
2.39501e+07
2.37235e+07
2.35132e+07
2.3264e+07
2.29872e+07
2.2717e+07
2.24657e+07
2.21876e+07
2.19005e+07
2.16078e+07
2.13154e+07
2.10199e+07
2.07289e+07
2.04551e+07
2.01535e+07
1.9826e+07
1.95222e+07
1.92402e+07
1.89325e+07
1.8593e+07
1.82717e+07
1.79596e+07
1.76471e+07
1.73397e+07
1.70134e+07
1.66832e+07
1.63365e+07
1.60079e+07
1.57024e+07
1.53697e+07
1.50137e+07
1.4627e+07
1.42899e+07
1.40029e+07
1.36725e+07
1.33139e+07
1.29996e+07
1.27396e+07
1.24488e+07
1.21425e+07
1.18275e+07
1.15255e+07
1.12522e+07
1.09708e+07
1.06952e+07
1.04125e+07
1.01299e+07
9.8506e+06
9.57228e+06
9.29139e+06
9.00207e+06
8.70233e+06
8.40607e+06
2.585e+07
2.58326e+07
2.58051e+07
2.57561e+07
2.57161e+07
2.56754e+07
2.56232e+07
2.55737e+07
2.55141e+07
2.54346e+07
2.53299e+07
2.52359e+07
2.51467e+07
2.50212e+07
2.48575e+07
2.47108e+07
2.45786e+07
2.44029e+07
2.41954e+07
2.39509e+07
2.37243e+07
2.35139e+07
2.32646e+07
2.29878e+07
2.27174e+07
2.24661e+07
2.21878e+07
2.19007e+07
2.1608e+07
2.13154e+07
2.10198e+07
2.07288e+07
2.04551e+07
2.01533e+07
1.9826e+07
1.95222e+07
1.92401e+07
1.89325e+07
1.8593e+07
1.82717e+07
1.79595e+07
1.7647e+07
1.73398e+07
1.70136e+07
1.66834e+07
1.63365e+07
1.60079e+07
1.57027e+07
1.53701e+07
1.50142e+07
1.4627e+07
1.42899e+07
1.40031e+07
1.36727e+07
1.33138e+07
1.29995e+07
1.27397e+07
1.24488e+07
1.21425e+07
1.18274e+07
1.15254e+07
1.12521e+07
1.09707e+07
1.06951e+07
1.04124e+07
1.01298e+07
9.85049e+06
9.5722e+06
9.29135e+06
9.00208e+06
8.70239e+06
8.40628e+06
2.58503e+07
2.5833e+07
2.58056e+07
2.57566e+07
2.57165e+07
2.56759e+07
2.56237e+07
2.55743e+07
2.55147e+07
2.54354e+07
2.53306e+07
2.52366e+07
2.51475e+07
2.50221e+07
2.48585e+07
2.47117e+07
2.45796e+07
2.4404e+07
2.41966e+07
2.39519e+07
2.37252e+07
2.35147e+07
2.32653e+07
2.29884e+07
2.2718e+07
2.24665e+07
2.2188e+07
2.1901e+07
2.16082e+07
2.13155e+07
2.10198e+07
2.07287e+07
2.04551e+07
2.01532e+07
1.9826e+07
1.95222e+07
1.92401e+07
1.89324e+07
1.85929e+07
1.82716e+07
1.79595e+07
1.7647e+07
1.73398e+07
1.70138e+07
1.66836e+07
1.63364e+07
1.6008e+07
1.57031e+07
1.53705e+07
1.50148e+07
1.46271e+07
1.42898e+07
1.40034e+07
1.36728e+07
1.33138e+07
1.29995e+07
1.27398e+07
1.24489e+07
1.21424e+07
1.18274e+07
1.15253e+07
1.1252e+07
1.09706e+07
1.0695e+07
1.04123e+07
1.01297e+07
9.85037e+06
9.57213e+06
9.29131e+06
9.00211e+06
8.70248e+06
8.40655e+06
2.58507e+07
2.58335e+07
2.58061e+07
2.57571e+07
2.57171e+07
2.56765e+07
2.56243e+07
2.55749e+07
2.55154e+07
2.54362e+07
2.53314e+07
2.52374e+07
2.51483e+07
2.50231e+07
2.48595e+07
2.47127e+07
2.45807e+07
2.44052e+07
2.4198e+07
2.39532e+07
2.37264e+07
2.35157e+07
2.32661e+07
2.29893e+07
2.27186e+07
2.24671e+07
2.21884e+07
2.19013e+07
2.16084e+07
2.13156e+07
2.10198e+07
2.07286e+07
2.04551e+07
2.01531e+07
1.98259e+07
1.95221e+07
1.924e+07
1.89324e+07
1.85928e+07
1.82716e+07
1.79594e+07
1.76469e+07
1.73398e+07
1.7014e+07
1.66839e+07
1.63365e+07
1.60082e+07
1.57037e+07
1.5371e+07
1.50155e+07
1.4627e+07
1.42898e+07
1.40039e+07
1.36731e+07
1.33139e+07
1.29994e+07
1.27401e+07
1.24489e+07
1.21424e+07
1.18272e+07
1.15251e+07
1.12519e+07
1.09705e+07
1.06949e+07
1.04122e+07
1.01295e+07
9.85025e+06
9.57205e+06
9.29129e+06
9.00215e+06
8.7026e+06
8.40688e+06
2.58511e+07
2.58339e+07
2.58066e+07
2.57576e+07
2.57176e+07
2.56771e+07
2.56249e+07
2.55756e+07
2.55162e+07
2.5437e+07
2.53322e+07
2.52382e+07
2.51492e+07
2.50242e+07
2.48606e+07
2.47138e+07
2.45818e+07
2.44065e+07
2.41994e+07
2.39546e+07
2.37278e+07
2.35169e+07
2.32673e+07
2.29903e+07
2.27195e+07
2.24678e+07
2.21888e+07
2.19016e+07
2.16086e+07
2.13156e+07
2.10197e+07
2.07285e+07
2.04549e+07
2.01529e+07
1.98259e+07
1.9522e+07
1.92399e+07
1.89323e+07
1.85927e+07
1.82715e+07
1.79593e+07
1.76468e+07
1.73399e+07
1.70142e+07
1.66843e+07
1.63366e+07
1.60085e+07
1.57043e+07
1.53716e+07
1.50162e+07
1.46269e+07
1.42901e+07
1.40044e+07
1.36736e+07
1.33141e+07
1.29996e+07
1.27404e+07
1.24491e+07
1.21425e+07
1.18272e+07
1.1525e+07
1.12517e+07
1.09703e+07
1.06947e+07
1.0412e+07
1.01294e+07
9.85012e+06
9.57196e+06
9.29126e+06
9.00221e+06
8.70275e+06
8.40729e+06
2.58517e+07
2.58345e+07
2.58072e+07
2.57582e+07
2.57182e+07
2.56777e+07
2.56255e+07
2.55761e+07
2.55168e+07
2.54377e+07
2.53325e+07
2.52387e+07
2.51497e+07
2.50244e+07
2.48605e+07
2.47138e+07
2.45821e+07
2.44069e+07
2.41994e+07
2.39545e+07
2.37276e+07
2.35169e+07
2.32671e+07
2.29902e+07
2.27194e+07
2.24678e+07
2.21889e+07
2.19019e+07
2.16089e+07
2.13159e+07
2.102e+07
2.0729e+07
2.04557e+07
2.01535e+07
1.98263e+07
1.95223e+07
1.92405e+07
1.89329e+07
1.8593e+07
1.82715e+07
1.79595e+07
1.76468e+07
1.73399e+07
1.70142e+07
1.66842e+07
1.63365e+07
1.60084e+07
1.57042e+07
1.53715e+07
1.50161e+07
1.46269e+07
1.42899e+07
1.40043e+07
1.36735e+07
1.33139e+07
1.29994e+07
1.27403e+07
1.24489e+07
1.21424e+07
1.1827e+07
1.15248e+07
1.12516e+07
1.09702e+07
1.06946e+07
1.04119e+07
1.01293e+07
9.84999e+06
9.57197e+06
9.29131e+06
9.00233e+06
8.7029e+06
8.4076e+06
2.58522e+07
2.58352e+07
2.58079e+07
2.57589e+07
2.57188e+07
2.56784e+07
2.56261e+07
2.55768e+07
2.55176e+07
2.54386e+07
2.53333e+07
2.52395e+07
2.51507e+07
2.5025e+07
2.48609e+07
2.47142e+07
2.45829e+07
2.44077e+07
2.41997e+07
2.39547e+07
2.37277e+07
2.35171e+07
2.32671e+07
2.29904e+07
2.27194e+07
2.24679e+07
2.2189e+07
2.19022e+07
2.16091e+07
2.13164e+07
2.10202e+07
2.07293e+07
2.04562e+07
2.0154e+07
1.98265e+07
1.95224e+07
1.92409e+07
1.89333e+07
1.85931e+07
1.82714e+07
1.79595e+07
1.76468e+07
1.734e+07
1.70142e+07
1.66841e+07
1.63364e+07
1.60083e+07
1.57041e+07
1.53714e+07
1.50159e+07
1.46268e+07
1.42898e+07
1.40043e+07
1.36734e+07
1.33138e+07
1.29993e+07
1.27402e+07
1.24488e+07
1.21422e+07
1.18268e+07
1.15247e+07
1.12514e+07
1.097e+07
1.06944e+07
1.04118e+07
1.01291e+07
9.84985e+06
9.57194e+06
9.29137e+06
9.00249e+06
8.7031e+06
8.40799e+06
2.58528e+07
2.58358e+07
2.58086e+07
2.57596e+07
2.57195e+07
2.56791e+07
2.56268e+07
2.55775e+07
2.55184e+07
2.54395e+07
2.53342e+07
2.52404e+07
2.51516e+07
2.5026e+07
2.48616e+07
2.47151e+07
2.4584e+07
2.44086e+07
2.42003e+07
2.39551e+07
2.37281e+07
2.35175e+07
2.32674e+07
2.29907e+07
2.27197e+07
2.24681e+07
2.21893e+07
2.19025e+07
2.16094e+07
2.13167e+07
2.10204e+07
2.07295e+07
2.04566e+07
2.01543e+07
1.98266e+07
1.95224e+07
1.92411e+07
1.89335e+07
1.85932e+07
1.82713e+07
1.79594e+07
1.76468e+07
1.73401e+07
1.70142e+07
1.66841e+07
1.63363e+07
1.60082e+07
1.5704e+07
1.53714e+07
1.50158e+07
1.46268e+07
1.42896e+07
1.40042e+07
1.36733e+07
1.33136e+07
1.29991e+07
1.27401e+07
1.24487e+07
1.21421e+07
1.18266e+07
1.15245e+07
1.12512e+07
1.09698e+07
1.06943e+07
1.04116e+07
1.0129e+07
9.84971e+06
9.57192e+06
9.29144e+06
9.00267e+06
8.70334e+06
8.40848e+06
2.58534e+07
2.58365e+07
2.58093e+07
2.57603e+07
2.57202e+07
2.56798e+07
2.56276e+07
2.55784e+07
2.55193e+07
2.54405e+07
2.53351e+07
2.52413e+07
2.51527e+07
2.50272e+07
2.48628e+07
2.47163e+07
2.45853e+07
2.44098e+07
2.42014e+07
2.39561e+07
2.37291e+07
2.35182e+07
2.32679e+07
2.29914e+07
2.27202e+07
2.24685e+07
2.21897e+07
2.19029e+07
2.16098e+07
2.13172e+07
2.10206e+07
2.07296e+07
2.04567e+07
2.01545e+07
1.98266e+07
1.95223e+07
1.9241e+07
1.89336e+07
1.85931e+07
1.82713e+07
1.79593e+07
1.76468e+07
1.73402e+07
1.70144e+07
1.6684e+07
1.63362e+07
1.60081e+07
1.57041e+07
1.53715e+07
1.50156e+07
1.46267e+07
1.42895e+07
1.40041e+07
1.36732e+07
1.33135e+07
1.29989e+07
1.274e+07
1.24485e+07
1.21419e+07
1.18264e+07
1.15243e+07
1.1251e+07
1.09696e+07
1.06941e+07
1.04114e+07
1.01288e+07
9.84956e+06
9.57187e+06
9.29152e+06
9.00288e+06
8.70363e+06
8.40907e+06
2.5854e+07
2.58372e+07
2.58101e+07
2.57611e+07
2.5721e+07
2.56806e+07
2.56284e+07
2.55792e+07
2.55202e+07
2.54415e+07
2.53361e+07
2.52424e+07
2.51538e+07
2.50284e+07
2.48641e+07
2.47176e+07
2.45867e+07
2.44113e+07
2.42031e+07
2.39576e+07
2.37305e+07
2.35193e+07
2.32689e+07
2.29923e+07
2.27212e+07
2.24692e+07
2.21902e+07
2.19033e+07
2.16101e+07
2.13175e+07
2.10208e+07
2.07296e+07
2.04566e+07
2.01543e+07
1.98266e+07
1.95222e+07
1.9241e+07
1.89335e+07
1.8593e+07
1.82712e+07
1.79593e+07
1.76468e+07
1.73404e+07
1.70145e+07
1.66842e+07
1.63361e+07
1.60082e+07
1.57044e+07
1.53718e+07
1.50157e+07
1.46266e+07
1.42893e+07
1.40041e+07
1.36731e+07
1.33133e+07
1.29988e+07
1.27399e+07
1.24484e+07
1.21417e+07
1.18262e+07
1.1524e+07
1.12508e+07
1.09694e+07
1.06939e+07
1.04113e+07
1.01286e+07
9.84941e+06
9.57183e+06
9.29162e+06
9.00312e+06
8.70397e+06
8.40979e+06
2.58547e+07
2.58379e+07
2.58109e+07
2.57619e+07
2.57218e+07
2.56814e+07
2.56293e+07
2.55801e+07
2.55212e+07
2.54426e+07
2.53372e+07
2.52435e+07
2.5155e+07
2.50298e+07
2.48656e+07
2.4719e+07
2.45882e+07
2.44129e+07
2.42049e+07
2.39595e+07
2.37323e+07
2.3521e+07
2.32705e+07
2.29939e+07
2.27226e+07
2.24701e+07
2.21909e+07
2.19039e+07
2.16106e+07
2.13179e+07
2.10209e+07
2.07296e+07
2.04565e+07
2.01542e+07
1.98266e+07
1.95221e+07
1.92409e+07
1.89334e+07
1.85929e+07
1.82711e+07
1.79591e+07
1.76469e+07
1.73406e+07
1.70149e+07
1.66845e+07
1.63364e+07
1.60087e+07
1.57052e+07
1.53724e+07
1.50163e+07
1.46269e+07
1.42896e+07
1.40044e+07
1.36733e+07
1.33133e+07
1.29987e+07
1.274e+07
1.24483e+07
1.21415e+07
1.1826e+07
1.15238e+07
1.12505e+07
1.09692e+07
1.06937e+07
1.04111e+07
1.01284e+07
9.84924e+06
9.57175e+06
9.29172e+06
9.00339e+06
8.70437e+06
8.41066e+06
2.58553e+07
2.58386e+07
2.58116e+07
2.57627e+07
2.57226e+07
2.56824e+07
2.56303e+07
2.55811e+07
2.55223e+07
2.54438e+07
2.53385e+07
2.52447e+07
2.51563e+07
2.50313e+07
2.48671e+07
2.47205e+07
2.45898e+07
2.44147e+07
2.42069e+07
2.39615e+07
2.37343e+07
2.35229e+07
2.32726e+07
2.2996e+07
2.27245e+07
2.24715e+07
2.21919e+07
2.19046e+07
2.16112e+07
2.1318e+07
2.10209e+07
2.07295e+07
2.04562e+07
2.0154e+07
1.98264e+07
1.9522e+07
1.92407e+07
1.89332e+07
1.85927e+07
1.82709e+07
1.7959e+07
1.76469e+07
1.73407e+07
1.70153e+07
1.66852e+07
1.6337e+07
1.60097e+07
1.57064e+07
1.53734e+07
1.50177e+07
1.46279e+07
1.42906e+07
1.40053e+07
1.36741e+07
1.33137e+07
1.29991e+07
1.27406e+07
1.24484e+07
1.21416e+07
1.18259e+07
1.15236e+07
1.12503e+07
1.0969e+07
1.06935e+07
1.04109e+07
1.01282e+07
9.84907e+06
9.57167e+06
9.29184e+06
9.00368e+06
8.70484e+06
8.41172e+06
2.58563e+07
2.58396e+07
2.58126e+07
2.57636e+07
2.57235e+07
2.56833e+07
2.56311e+07
2.55819e+07
2.55232e+07
2.54448e+07
2.53394e+07
2.52457e+07
2.51573e+07
2.50319e+07
2.48674e+07
2.4721e+07
2.45905e+07
2.44153e+07
2.4207e+07
2.39614e+07
2.37341e+07
2.35231e+07
2.32725e+07
2.2996e+07
2.27246e+07
2.24715e+07
2.21923e+07
2.19051e+07
2.16116e+07
2.13187e+07
2.10216e+07
2.07305e+07
2.04574e+07
2.0155e+07
1.98271e+07
1.95225e+07
1.92415e+07
1.8934e+07
1.85931e+07
1.8271e+07
1.79592e+07
1.7647e+07
1.73408e+07
1.70152e+07
1.6685e+07
1.63368e+07
1.60095e+07
1.57061e+07
1.53732e+07
1.50174e+07
1.46277e+07
1.42903e+07
1.40051e+07
1.36738e+07
1.33134e+07
1.29988e+07
1.27403e+07
1.24482e+07
1.21413e+07
1.18256e+07
1.15234e+07
1.12501e+07
1.09687e+07
1.06933e+07
1.04107e+07
1.0128e+07
9.8489e+06
9.57176e+06
9.2921e+06
9.00411e+06
8.70531e+06
8.41258e+06
2.58572e+07
2.58406e+07
2.58137e+07
2.57647e+07
2.57245e+07
2.56843e+07
2.56322e+07
2.5583e+07
2.55243e+07
2.54459e+07
2.53406e+07
2.52469e+07
2.51586e+07
2.50333e+07
2.4869e+07
2.47225e+07
2.45921e+07
2.44169e+07
2.42081e+07
2.39625e+07
2.37352e+07
2.3524e+07
2.32732e+07
2.29968e+07
2.27254e+07
2.24722e+07
2.21929e+07
2.19057e+07
2.16122e+07
2.13195e+07
2.10221e+07
2.0731e+07
2.0458e+07
2.01555e+07
1.98274e+07
1.95225e+07
1.92417e+07
1.89343e+07
1.85931e+07
1.82708e+07
1.79591e+07
1.76471e+07
1.73411e+07
1.70152e+07
1.66849e+07
1.63367e+07
1.60094e+07
1.5706e+07
1.53731e+07
1.50171e+07
1.46275e+07
1.42901e+07
1.40049e+07
1.36736e+07
1.33132e+07
1.29985e+07
1.27402e+07
1.2448e+07
1.2141e+07
1.18253e+07
1.15231e+07
1.12498e+07
1.09685e+07
1.06931e+07
1.04104e+07
1.01278e+07
9.84871e+06
9.57176e+06
9.29237e+06
9.00458e+06
8.70587e+06
8.41361e+06
2.58581e+07
2.58416e+07
2.58147e+07
2.57657e+07
2.57255e+07
2.56853e+07
2.56333e+07
2.55841e+07
2.55255e+07
2.54472e+07
2.53419e+07
2.52482e+07
2.516e+07
2.50349e+07
2.48706e+07
2.47241e+07
2.45938e+07
2.44187e+07
2.42102e+07
2.39647e+07
2.37373e+07
2.35257e+07
2.32747e+07
2.29982e+07
2.27268e+07
2.24732e+07
2.21938e+07
2.19064e+07
2.16129e+07
2.13202e+07
2.10226e+07
2.07312e+07
2.04581e+07
2.01554e+07
1.98274e+07
1.95224e+07
1.92416e+07
1.89342e+07
1.8593e+07
1.82707e+07
1.7959e+07
1.76473e+07
1.73413e+07
1.70155e+07
1.6685e+07
1.63366e+07
1.60095e+07
1.57061e+07
1.53733e+07
1.5017e+07
1.46274e+07
1.42899e+07
1.40047e+07
1.36734e+07
1.33129e+07
1.29982e+07
1.274e+07
1.24477e+07
1.21408e+07
1.18251e+07
1.15228e+07
1.12495e+07
1.09682e+07
1.06929e+07
1.04102e+07
1.01276e+07
9.84852e+06
9.57176e+06
9.29266e+06
9.00509e+06
8.70651e+06
8.41484e+06
2.58591e+07
2.58427e+07
2.58158e+07
2.57668e+07
2.57266e+07
2.56865e+07
2.56345e+07
2.55854e+07
2.55268e+07
2.54486e+07
2.53434e+07
2.52497e+07
2.51615e+07
2.50366e+07
2.48725e+07
2.4726e+07
2.45957e+07
2.44207e+07
2.42125e+07
2.39671e+07
2.37396e+07
2.35279e+07
2.32771e+07
2.30007e+07
2.27292e+07
2.2475e+07
2.2195e+07
2.19072e+07
2.16137e+07
2.13209e+07
2.1023e+07
2.07312e+07
2.04579e+07
2.01552e+07
1.98273e+07
1.95222e+07
1.92415e+07
1.8934e+07
1.85929e+07
1.82706e+07
1.79588e+07
1.76474e+07
1.73417e+07
1.70159e+07
1.66855e+07
1.63372e+07
1.60105e+07
1.57073e+07
1.53741e+07
1.50178e+07
1.46281e+07
1.42906e+07
1.4005e+07
1.36736e+07
1.33129e+07
1.29982e+07
1.27402e+07
1.24476e+07
1.21406e+07
1.18248e+07
1.15225e+07
1.12492e+07
1.09679e+07
1.06926e+07
1.041e+07
1.01274e+07
9.84832e+06
9.5717e+06
9.29294e+06
9.00565e+06
8.70725e+06
8.41611e+06
2.586e+07
2.58437e+07
2.58168e+07
2.57678e+07
2.57277e+07
2.56877e+07
2.56359e+07
2.55867e+07
2.55282e+07
2.54502e+07
2.5345e+07
2.52514e+07
2.51632e+07
2.50385e+07
2.48746e+07
2.4728e+07
2.45978e+07
2.44229e+07
2.42151e+07
2.39697e+07
2.37421e+07
2.35303e+07
2.32798e+07
2.30034e+07
2.27318e+07
2.24774e+07
2.21967e+07
2.19085e+07
2.16147e+07
2.13211e+07
2.1023e+07
2.0731e+07
2.04576e+07
2.01549e+07
1.98271e+07
1.9522e+07
1.92412e+07
1.89338e+07
1.85926e+07
1.82704e+07
1.79586e+07
1.76475e+07
1.73419e+07
1.70166e+07
1.66867e+07
1.63388e+07
1.60124e+07
1.57092e+07
1.53757e+07
1.50202e+07
1.46302e+07
1.42926e+07
1.40063e+07
1.3675e+07
1.3314e+07
1.29992e+07
1.27411e+07
1.24479e+07
1.21408e+07
1.18246e+07
1.15223e+07
1.12489e+07
1.09676e+07
1.06923e+07
1.04097e+07
1.01271e+07
9.8481e+06
9.57167e+06
9.29324e+06
9.00621e+06
8.70808e+06
8.41746e+06
2.58613e+07
2.58451e+07
2.58182e+07
2.57692e+07
2.5729e+07
2.5689e+07
2.5637e+07
2.55878e+07
2.55294e+07
2.54515e+07
2.53463e+07
2.52525e+07
2.51644e+07
2.50399e+07
2.48758e+07
2.47294e+07
2.45991e+07
2.44239e+07
2.42157e+07
2.397e+07
2.37423e+07
2.35309e+07
2.32804e+07
2.30038e+07
2.27322e+07
2.24778e+07
2.21975e+07
2.19095e+07
2.16155e+07
2.13221e+07
2.10241e+07
2.07326e+07
2.04592e+07
2.01561e+07
1.9828e+07
1.95227e+07
1.92423e+07
1.89346e+07
1.85928e+07
1.82704e+07
1.7959e+07
1.76478e+07
1.7342e+07
1.70164e+07
1.66865e+07
1.63385e+07
1.60121e+07
1.57088e+07
1.53753e+07
1.50198e+07
1.46299e+07
1.42922e+07
1.40058e+07
1.36747e+07
1.33136e+07
1.29987e+07
1.27407e+07
1.24475e+07
1.21405e+07
1.18243e+07
1.15219e+07
1.12486e+07
1.09673e+07
1.06921e+07
1.04094e+07
1.01269e+07
9.84789e+06
9.57187e+06
9.29375e+06
9.00695e+06
8.7089e+06
8.4188e+06
2.58626e+07
2.58465e+07
2.58197e+07
2.57706e+07
2.57303e+07
2.56903e+07
2.56385e+07
2.55893e+07
2.55309e+07
2.54531e+07
2.53479e+07
2.52542e+07
2.51661e+07
2.50417e+07
2.48778e+07
2.47314e+07
2.46012e+07
2.44261e+07
2.42183e+07
2.39727e+07
2.37448e+07
2.3533e+07
2.32822e+07
2.30056e+07
2.27341e+07
2.24794e+07
2.21987e+07
2.19105e+07
2.16165e+07
2.13232e+07
2.1025e+07
2.07332e+07
2.04596e+07
2.01563e+07
1.98281e+07
1.95226e+07
1.92421e+07
1.89345e+07
1.85927e+07
1.82703e+07
1.79588e+07
1.76481e+07
1.73424e+07
1.70166e+07
1.66864e+07
1.63383e+07
1.60122e+07
1.57088e+07
1.53754e+07
1.50196e+07
1.46297e+07
1.42921e+07
1.40054e+07
1.36744e+07
1.33133e+07
1.29984e+07
1.27405e+07
1.24473e+07
1.21402e+07
1.18239e+07
1.15215e+07
1.12482e+07
1.0967e+07
1.06918e+07
1.04091e+07
1.01266e+07
9.84766e+06
9.57193e+06
9.29425e+06
9.00777e+06
8.70985e+06
8.42021e+06
2.58638e+07
2.58477e+07
2.5821e+07
2.57719e+07
2.57316e+07
2.56919e+07
2.56401e+07
2.55908e+07
2.55326e+07
2.54548e+07
2.53497e+07
2.52561e+07
2.5168e+07
2.50438e+07
2.48801e+07
2.47337e+07
2.46035e+07
2.44285e+07
2.42211e+07
2.39756e+07
2.37476e+07
2.35357e+07
2.32852e+07
2.30087e+07
2.2737e+07
2.24818e+07
2.22005e+07
2.1912e+07
2.16178e+07
2.13239e+07
2.10255e+07
2.07332e+07
2.04593e+07
2.0156e+07
1.98278e+07
1.95223e+07
1.92419e+07
1.89342e+07
1.85924e+07
1.827e+07
1.79586e+07
1.76483e+07
1.73427e+07
1.70171e+07
1.66872e+07
1.63393e+07
1.60135e+07
1.57098e+07
1.53764e+07
1.50208e+07
1.46305e+07
1.42929e+07
1.40056e+07
1.36747e+07
1.33133e+07
1.29984e+07
1.27405e+07
1.24471e+07
1.21399e+07
1.18237e+07
1.15212e+07
1.12479e+07
1.09666e+07
1.06915e+07
1.04088e+07
1.01263e+07
9.84742e+06
9.572e+06
9.29477e+06
9.00857e+06
8.71091e+06
8.42171e+06
2.58656e+07
2.58496e+07
2.58228e+07
2.57735e+07
2.57332e+07
2.56934e+07
2.56414e+07
2.55921e+07
2.55339e+07
2.54562e+07
2.5351e+07
2.52573e+07
2.51691e+07
2.50438e+07
2.48798e+07
2.47334e+07
2.46032e+07
2.44282e+07
2.42207e+07
2.39752e+07
2.37472e+07
2.35354e+07
2.32849e+07
2.30084e+07
2.27368e+07
2.24816e+07
2.22011e+07
2.1913e+07
2.16188e+07
2.13255e+07
2.10273e+07
2.07361e+07
2.04623e+07
2.01589e+07
1.98302e+07
1.95246e+07
1.92446e+07
1.89368e+07
1.85939e+07
1.82707e+07
1.79596e+07
1.76488e+07
1.73429e+07
1.70169e+07
1.66869e+07
1.63389e+07
1.60131e+07
1.57094e+07
1.5376e+07
1.50204e+07
1.46301e+07
1.42924e+07
1.40051e+07
1.36743e+07
1.33129e+07
1.29979e+07
1.27401e+07
1.24467e+07
1.21395e+07
1.18233e+07
1.15208e+07
1.12475e+07
1.09663e+07
1.06912e+07
1.04085e+07
1.0126e+07
9.84719e+06
9.57235e+06
9.29554e+06
9.00963e+06
8.71196e+06
8.42319e+06
2.58673e+07
2.58514e+07
2.58247e+07
2.57753e+07