/*--------------------------------*- C++ -*----------------------------------*\
| =========                 |                                                 |
| \\      /  F ield         | OpenFOAM: The Open Source CFD Toolbox           |
|  \\    /   O peration     | Version:  v2012                                 |
|   \\  /    A nd           | Website:  www.openfoam.com                      |
|    \\/     M anipulation  |                                                 |
\*---------------------------------------------------------------------------*/
FoamFile
{
    version     2.0;
    format      ascii;
    class       volVectorField;
    location    "1e-06";
    object      U;
}
// * * * * * * * * * * * * * * * * * * * * * * * * * * * * * * * * * * * * * //

dimensions      [0 1 -1 0 0 0 0];


internalField   nonuniform List<vector> 
10203
(
(0.277618 -0.051365 0)
(0.305489 -0.0564437 -2.6331e-29)
(0.322143 -0.0596167 -2.74925e-32)
(0.361039 -0.066706 -7.77628e-30)
(0.385957 -0.0711243 0)
(0.392873 -0.0721802 -1.98506e-31)
(0.387898 -0.0712447 -1.35264e-31)
(0.399591 -0.0735418 -2.63264e-31)
(0.409032 -0.0751153 -2.17924e-31)
(0.403998 -0.0739693 3.0403e-30)
(0.372417 -0.0680038 0)
(0.361015 -0.0658491 0)
(0.345531 -0.0630032 0)
(0.328727 -0.0597231 0)
(0.286172 -0.0518102 0)
(0.260614 -0.0472092 4.51401e-31)
(0.225693 -0.0409021 5.67215e-29)
(0.201255 -0.0363621 -4.58625e-29)
(0.171473 -0.0309441 -4.70379e-29)
(0.132496 -0.0237891 -2.80726e-31)
(0.105835 -0.0188676 2.2697e-29)
(0.0618942 -0.0109216 -4.87546e-29)
(0.0410188 -0.00719675 0)
(0.0146311 -0.00239098 5.52601e-29)
(-0.0044491 0.00113233 -1.26521e-29)
(-0.0366151 0.00696601 -3.50051e-29)
(-0.0539155 0.00999538 -9.14679e-32)
(-0.0555561 0.0101518 -1.18181e-31)
(-0.0541386 0.0099596 -4.58834e-30)
(-0.064352 0.0117939 -2.61557e-31)
(-0.0585884 0.0106257 -1.33031e-31)
(-0.0522452 0.00935107 -2.68406e-31)
(-0.0229788 0.00393111 2.55704e-29)
(-0.00497299 0.000682552 -2.97501e-32)
(0.0189274 -0.00364109 1.43414e-32)
(0.0388927 -0.00728578 -4.13271e-29)
(0.0729186 -0.0134247 3.42637e-36)
(0.0946925 -0.0173228 -4.40727e-32)
(0.125036 -0.022733 -2.74489e-37)
(0.14478 -0.0262563 -4.05972e-29)
(0.161437 -0.029204 -1.97687e-29)
(0.171017 -0.031923 -2.00263e-31)
(0.175982 -0.0329577 2.84397e-31)
(0.181544 -0.0339239 -2.00029e-29)
(0.182389 -0.0340085 7.50312e-32)
(0.162649 -0.0302271 -4.66046e-30)
(0.146927 -0.0272875 -6.0396e-31)
(0.127497 -0.0236436 -2.14078e-29)
(0.103259 -0.0190694 -2.2317e-29)
(0.0843813 -0.0155484 6.94899e-32)
(0.0454054 -0.00882872 -4.28664e-29)
(0.00823982 -0.00130894 9.90815e-29)
(-0.0403501 0.00833788 -7.11538e-29)
(-0.0682886 0.0138259 -1.31037e-31)
(-0.104029 0.0209375 2.6767e-29)
(-0.133729 0.0269008 -9.28296e-36)
(-0.184652 0.0369927 3.29365e-29)
(-0.219459 0.04382 -6.99607e-29)
(-0.233317 0.0464396 0)
(-0.244587 0.0487175 -3.39932e-32)
(-0.268298 0.0535293 -1.8512e-31)
(-0.300109 0.0597496 7.24182e-30)
(-0.307578 0.0610797 -3.83095e-29)
(-0.296235 0.0587764 0)
(-0.292075 0.0580447 -2.92479e-29)
(-0.301714 0.0599764 -5.58775e-31)
(-0.302552 0.0600358 -1.64348e-29)
(-0.286352 0.0567554 9.32403e-36)
(-0.267967 0.053175 3.28584e-31)
(-0.271289 0.0539236 6.44975e-31)
(-0.275926 0.0548313 -3.36536e-29)
(-0.274701 0.0545371 6.91655e-29)
(0.321439 -0.0597319 5.14223e-29)
(0.364525 -0.0676965 -4.13724e-29)
(0.386133 -0.0718516 -1.93371e-29)
(0.416296 -0.0771633 0)
(0.43627 -0.0806023 0)
(0.452672 -0.0833139 7.96382e-32)
(0.45861 -0.0842487 -1.03112e-29)
(0.458481 -0.0844565 1.37013e-29)
(0.451479 -0.0830338 0)
(0.450917 -0.0825444 -4.00661e-29)
(0.423284 -0.0769971 -7.34812e-30)
(0.408945 -0.0742902 0)
(0.378141 -0.068809 0)
(0.354775 -0.0642884 0)
(0.310767 -0.0558557 0)
(0.286892 -0.051585 -1.36485e-28)
(0.239673 -0.0432756 1.51769e-28)
(0.207301 -0.0372155 -7.88568e-32)
(0.171201 -0.0306249 -1.31146e-28)
(0.123914 -0.021772 1.53964e-31)
(0.0988655 -0.0171918 0)
(0.0516738 -0.00885125 1.13889e-28)
(0.0241847 -0.00391128 9.19611e-37)
(-0.0119724 0.00273129 8.29917e-29)
(-0.0302541 0.00612239 4.75905e-30)
(-0.0594407 0.0113049 -2.31904e-31)
(-0.076626 0.0142368 1.01314e-29)
(-0.0856918 0.0156748 1.17113e-31)
(-0.0892365 0.0164048 1.43645e-31)
(-0.0918791 0.016798 4.30465e-30)
(-0.0773165 0.0140045 6.6086e-32)
(-0.0736291 0.0131277 0)
(-0.0452983 0.00762238 5.97965e-31)
(-0.0247825 0.00399407 -3.01755e-32)
(0.00839183 -0.00190217 -6.22961e-33)
(0.0327379 -0.00634525 -1.21233e-28)
(0.069073 -0.0130064 0)
(0.0899397 -0.0167578 0)
(0.1262 -0.0231011 0)
(0.148982 -0.0271594 -6.10402e-29)
(0.168393 -0.0305668 -1.6047e-31)
(0.180128 -0.03364 0)
(0.183973 -0.034502 1.47885e-30)
(0.187182 -0.0349843 -1.35565e-32)
(0.186743 -0.0347763 -7.49195e-32)
(0.162664 -0.0300333 2.36593e-29)
(0.145897 -0.0268881 -2.80214e-31)
(0.122967 -0.0226655 -1.15902e-28)
(0.0940829 -0.0172033 0)
(0.0663489 -0.0120169 1.42908e-28)
(0.0145515 -0.0019939 1.17117e-31)
(-0.0193767 0.00454235 -7.40752e-29)
(-0.067736 0.0140108 -2.27563e-28)
(-0.105279 0.0213983 -1.30824e-31)
(-0.157877 0.0319538 8.9264e-29)
(-0.19047 0.0385356 -3.31923e-31)
(-0.235714 0.0473646 1.19839e-30)
(-0.2665 0.0533287 -1.19425e-28)
(-0.296925 0.0591953 0)
(-0.326026 0.065037 -6.27903e-29)
(-0.337743 0.0675013 -1.02051e-35)
(-0.35439 0.0706283 -4.32014e-29)
(-0.366988 0.0729206 0)
(-0.370344 0.0734658 0)
(-0.370306 0.073585 4.65309e-31)
(-0.363223 0.0722072 0)
(-0.353129 0.0700458 0)
(-0.34789 0.0689041 0)
(-0.342912 0.0680143 -2.17295e-29)
(-0.336975 0.0669549 -1.89146e-29)
(-0.326363 0.0648625 -2.61548e-31)
(-0.327729 0.0650735 1.01505e-29)
(0.385328 -0.0725909 2.92166e-29)
(0.433182 -0.0813839 -1.71614e-29)
(0.454926 -0.0854394 -8.79206e-33)
(0.488916 -0.091128 0)
(0.508499 -0.0943756 1.20571e-29)
(0.525673 -0.0970896 -2.58925e-29)
(0.528572 -0.0970281 -1.99157e-29)
(0.529392 -0.0972922 7.83163e-30)
(0.519674 -0.0952633 2.15575e-31)
(0.512111 -0.0932746 -2.85234e-32)
(0.476941 -0.0860065 4.98566e-32)
(0.461732 -0.0831026 -3.59615e-31)
(0.4244 -0.0763783 0)
(0.392106 -0.0700803 -1.33051e-28)
(0.339383 -0.0598772 1.50468e-31)
(0.313788 -0.0552818 -4.65224e-29)
(0.258487 -0.045554 -3.11201e-31)
(0.217021 -0.0378689 2.83905e-29)
(0.172924 -0.0297749 -1.24528e-28)
(0.118778 -0.0196812 3.76698e-29)
(0.0921698 -0.0148335 7.85033e-29)
(0.0372143 -0.00520449 1.02741e-28)
(0.00449004 0.000615591 -6.78452e-32)
(-0.0357053 0.00782353 -4.16904e-32)
(-0.0547988 0.0113361 -2.78805e-31)
(-0.0881851 0.0170869 9.82654e-29)
(-0.107337 0.020226 -4.61327e-32)
(-0.115713 0.0213358 -1.16647e-31)
(-0.118426 0.0218294 1.01514e-29)
(-0.121534 0.0220391 -1.32751e-31)
(-0.106651 0.0190876 0)
(-0.0966025 0.0169111 0)
(-0.0625781 0.0100927 -8.75604e-30)
(-0.0417523 0.0063747 -1.86056e-29)
(-0.00428387 -0.000342217 -9.4449e-29)
(0.0263673 -0.00593822 -3.67579e-36)
(0.0684078 -0.0136149 3.4258e-36)
(0.0901897 -0.0175299 -2.21229e-32)
(0.130444 -0.0244873 -1.40191e-32)
(0.156185 -0.0289232 2.69583e-29)
(0.178744 -0.0328185 1.60549e-31)
(0.19123 -0.035849 -2.03682e-29)
(0.194973 -0.0366776 -1.56119e-31)
(0.196225 -0.0366237 2.10154e-29)
(0.193221 -0.0357434 7.47976e-32)
(0.163865 -0.0297938 4.3157e-32)
(0.146136 -0.026456 6.51647e-29)
(0.117612 -0.0211207 -2.47532e-31)
(0.0808019 -0.0140647 1.98184e-36)
(0.0454785 -0.00738895 -1.39021e-28)
(0.0141221 -0.00148631 -1.21591e-28)
(-0.0504746 0.0117176 -3.21027e-29)
(-0.108756 0.0229957 0)
(-0.154425 0.0320424 2.61229e-31)
(-0.213565 0.0438763 6.20566e-29)
(-0.247258 0.0506334 0)
(-0.300806 0.060956 -6.64758e-28)
(-0.336345 0.0678002 2.05957e-29)
(-0.370783 0.0744188 -1.15528e-31)
(-0.400705 0.0802346 -2.13595e-31)
(-0.414717 0.0830918 -3.69935e-31)
(-0.434949 0.0868281 -3.7373e-31)
(-0.446159 0.0887838 -2.56116e-31)
(-0.446598 0.0886027 0)
(-0.445957 0.0885351 6.51523e-29)
(-0.439733 0.0872172 -2.77608e-31)
(-0.42678 0.0845209 0)
(-0.420523 0.0832302 0)
(-0.413024 0.0818314 -4.0847e-29)
(-0.408603 0.0810201 5.77035e-36)
(-0.399957 0.0794042 2.61411e-31)
(-0.401418 0.079804 0)
(0.38887 -0.0737462 -1.26812e-29)
(0.43579 -0.0823768 2.783e-29)
(0.457589 -0.0863851 -4.05215e-29)
(0.491826 -0.0919995 -2.89132e-29)
(0.521698 -0.0971167 2.59789e-30)
(0.52875 -0.0978508 -1.95236e-29)
(0.531616 -0.0976049 4.29102e-29)
(0.532475 -0.0978617 -1.84706e-29)
(0.525087 -0.0962074 2.13948e-31)
(0.515205 -0.0937073 0)
(0.479708 -0.0862224 -7.06587e-29)
(0.464339 -0.0832921 3.56117e-31)
(0.426963 -0.076573 0)
(0.394613 -0.0701967 2.08478e-31)
(0.341289 -0.0597875 -1.4719e-28)
(0.315527 -0.0551651 0)
(0.259837 -0.0454485 0)
(0.219588 -0.0378198 6.85815e-32)
(0.173729 -0.0295251 -2.26506e-31)
(0.11934 -0.0193657 -1.3291e-31)
(0.0925269 -0.0144957 -5.5266e-29)
(0.037086 -0.00482496 -2.96205e-31)
(0.00435685 0.000968899 6.83629e-32)
(-0.036027 0.00813266 0)
(-0.0552606 0.0116902 -1.07761e-28)
(-0.0888946 0.0173928 0)
(-0.108432 0.0205615 0)
(-0.116531 0.0215241 -2.63702e-29)
(-0.11926 0.0220091 -1.4237e-31)
(-0.122426 0.0221524 -1.32739e-31)
(-0.109907 0.0195554 0)
(-0.0973928 0.0169153 0)
(-0.0633411 0.00997331 1.13138e-28)
(-0.0423843 0.00623706 8.22647e-29)
(-0.00461195 -0.000530095 4.83032e-29)
(0.0262372 -0.00616844 -8.31422e-29)
(0.0682742 -0.0138508 3.42062e-31)
(0.0900942 -0.0177776 1.20532e-28)
(0.130633 -0.0247349 -1.43656e-32)
(0.159128 -0.0296966 -3.82985e-29)
(0.179155 -0.0330163 -1.62124e-31)
(0.191633 -0.0359571 1.91427e-29)
(0.1954 -0.0367921 1.56387e-31)
(0.196722 -0.0366898 -2.6805e-31)
(0.193629 -0.0357256 0)
(0.164115 -0.0296401 1.30623e-28)
(0.146385 -0.0263053 -1.064e-28)
(0.117804 -0.0209591 0)
(0.0799885 -0.0136326 -1.4793e-28)
(0.0452102 -0.00716674 -1.77505e-29)
(-0.0147205 0.00507462 2.26314e-31)
(-0.0509817 0.0122982 -2.54633e-28)
(-0.109624 0.023469 6.1457e-31)
(-0.155224 0.0325252 0)
(-0.214475 0.0443944 0)
(-0.248241 0.0511533 0)
(-0.301982 0.0614331 -2.1441e-29)
(-0.341418 0.0690542 -2.39174e-28)
(-0.372055 0.0748601 -1.14998e-31)
(-0.402048 0.0806428 -2.8536e-28)
(-0.41618 0.0835088 3.6845e-31)
(-0.436958 0.0873137 3.72702e-31)
(-0.447862 0.0891847 0)
(-0.448089 0.0888909 0)
(-0.447421 0.0888091 -2.00504e-29)
(-0.441254 0.0874868 -2.78221e-31)
(-0.435244 0.0861391 0)
(-0.422001 0.0834767 0)
(-0.414416 0.0820809 0)
(-0.409949 0.0812576 0)
(-0.401578 0.0797271 3.28461e-29)
(-0.403014 0.0801617 0)
(0.435092 -0.0833551 3.95373e-29)
(0.484297 -0.0923279 3.54925e-31)
(0.506123 -0.0962539 2.83002e-32)
(0.54167 -0.101904 -5.03917e-29)
(0.567022 -0.105915 -2.79645e-31)
(0.577529 -0.106992 -1.29688e-29)
(0.57798 -0.106073 8.13109e-29)
(0.578789 -0.106278 1.87952e-29)
(0.567893 -0.103784 0)
(0.554628 -0.100363 9.01506e-29)
(0.514554 -0.0917638 0)
(0.498356 -0.0886747 -7.70427e-30)
(0.456457 -0.0810508 3.18295e-31)
(0.418866 -0.0735568 -2.18291e-31)
(0.360601 -0.0621044 -3.79354e-29)
(0.333706 -0.0572782 4.02857e-31)
(0.273289 -0.0467623 0)
(0.22757 -0.0381197 0)
(0.177942 -0.0291153 1.30939e-28)
(0.119799 -0.0183069 -1.37e-36)
(0.0921202 -0.0133019 3.77248e-31)
(0.0328978 -0.00306143 0)
(-0.00241613 0.00310554 -6.73437e-32)
(-0.044689 0.0104445 4.60544e-37)
(-0.0642562 0.0140549 -2.6365e-31)
(-0.0994347 0.0198447 2.2958e-31)
(-0.119205 0.0228706 4.58889e-29)
(-0.126742 0.0235115 -1.32632e-31)
(-0.129054 0.023874 -2.72191e-29)
(-0.131579 0.0236991 1.32263e-31)
(-0.116956 0.0205485 -9.22927e-37)
(-0.10226 0.0173496 -8.82481e-29)
(-0.0651552 0.00964803 1.28157e-28)
(-0.0437641 0.00582235 -3.54014e-29)
(-0.00344846 -0.00144706 1.62341e-28)
(0.0305324 -0.00767616 -1.40531e-30)
(0.0752558 -0.0158188 -3.16927e-29)
(0.0975455 -0.0198265 -2.50768e-29)
(0.139959 -0.0270374 0)
(0.168718 -0.0318866 1.72907e-29)
(0.190533 -0.0354126 4.98427e-30)
(0.202706 -0.0381426 4.27765e-31)
(0.206283 -0.0389222 -2.89076e-29)
(0.205893 -0.0383433 -3.56506e-29)
(0.200637 -0.0367742 1.48914e-31)
(0.167798 -0.0298587 4.25725e-32)
(0.149379 -0.026384 5.92022e-31)
(0.117124 -0.0202644 -4.92049e-31)
(0.0750384 -0.0120206 1.74612e-32)
(0.0356444 -0.00453337 -1.52718e-28)
(-0.0290058 0.00856994 0)
(-0.0661552 0.0161893 2.25315e-29)
(-0.129953 0.0283485 0)
(-0.179934 0.0382968 0)
(-0.242624 0.0508204 0)
(-0.276972 0.0576716 4.14782e-29)
(-0.334565 0.0685973 -3.56539e-28)
(-0.374739 0.0762605 6.93326e-29)
(-0.408609 0.0826015 -1.24186e-28)
(-0.438832 0.0883015 -2.84306e-29)
(-0.453733 0.091287 -3.6783e-31)
(-0.475435 0.0951513 0)
(-0.485567 0.0967596 2.7446e-29)
(-0.484613 0.0961206 -2.9996e-31)
(-0.483727 0.0959699 0)
(-0.477629 0.0946046 0)
(-0.467677 0.0924261 0)
(-0.457125 0.0902944 0)
(-0.449021 0.0888468 0)
(-0.445166 0.0881417 0)
(-0.438062 0.0869299 -6.12244e-31)
(-0.44064 0.0877101 -1.92333e-31)
(0.471638 -0.0913337 0)
(0.522154 -0.100436 -3.10891e-29)
(0.544106 -0.104275 0)
(0.580219 -0.109716 -8.27819e-29)
(0.601778 -0.112785 2.77343e-31)
(0.614668 -0.11402 2.0156e-29)
(0.613242 -0.112378 -2.9207e-29)
(0.613812 -0.112458 -2.75307e-29)
(0.599952 -0.109211 3.46222e-29)
(0.584526 -0.105064 1.26053e-28)
(0.541443 -0.0956502 -2.04181e-37)
(0.52448 -0.0924058 -1.64584e-31)
(0.479196 -0.0840352 -3.18631e-31)
(0.438201 -0.0757615 -2.5071e-28)
(0.376741 -0.0636146 0)
(0.348944 -0.0586253 -4.01882e-31)
(0.285299 -0.0475385 1.97351e-36)
(0.23556 -0.0382366 6.98558e-29)
(0.184013 -0.0288227 4.6477e-28)
(0.123551 -0.0176638 0)
(0.0952648 -0.0125749 0)
(0.0335625 -0.0020194 -2.01026e-28)
(-0.00314818 0.00427474 0)
(-0.0464611 0.0115968 0)
(-0.0662236 0.0152285 -2.62817e-31)
(-0.102194 0.020937 -2.28781e-31)
(-0.121909 0.0237261 3.32148e-29)
(-0.128934 0.0240231 3.68574e-31)
(-0.130982 0.0242915 -2.48602e-29)
(-0.132784 0.0237361 2.82773e-36)
(-0.117415 0.0202691 1.2975e-31)
(-0.100466 0.0164502 -1.28467e-28)
(-0.0614607 0.00821101 3.51568e-29)
(-0.0397738 0.0043311 9.12978e-32)
(0.00215934 -0.00330259 -9.29697e-33)
(0.038087 -0.00990912 -1.90883e-28)
(0.0844612 -0.0183023 -1.30221e-28)
(0.106991 -0.0223374 -1.13285e-28)
(0.15041 -0.0296216 -2.72978e-28)
(0.178488 -0.0341571 5.76821e-29)
(0.20178 -0.0378322 -3.49632e-29)
(0.213462 -0.0402657 6.96187e-29)
(0.21684 -0.040969 -1.65041e-29)
(0.215034 -0.0399161 3.4323e-29)
(0.208078 -0.0377941 1.4858e-31)
(0.172888 -0.0302231 0)
(0.15389 -0.0266215 -1.32802e-28)
(0.119003 -0.0198808 -4.92206e-31)
(0.0738648 -0.0109697 -5.51238e-31)
(0.0316904 -0.00276994 -3.48567e-28)
(-0.035784 0.0110122 0)
(-0.0737612 0.018792 -1.53623e-28)
(-0.140724 0.0315212 6.14335e-31)
(-0.19325 0.0419863 2.25565e-28)
(-0.258063 0.0548705 0)
(-0.292817 0.0617775 -3.23892e-28)
(-0.352425 0.0729624 -5.74758e-31)
(-0.392976 0.0805478 -3.03152e-31)
(-0.428488 0.0871164 -2.67471e-28)
(-0.458808 0.0926706 0)
(-0.474032 0.0956861 -3.67594e-31)
(-0.49604 0.0994591 -3.71616e-31)
(-0.505678 0.100833 -8.71605e-31)
(-0.504225 0.0999581 -5.97541e-31)
(-0.503264 0.0997791 7.03931e-29)
(-0.497163 0.0983271 -8.86779e-29)
(-0.485509 0.0957971 0)
(-0.476354 0.0939622 -3.38904e-31)
(-0.468362 0.0925808 -3.23165e-31)
(-0.46484 0.0919497 -3.80976e-30)
(-0.458706 0.0910178 -8.93709e-29)
(-0.462427 0.0921701 -9.62538e-29)
(0.476309 -0.0927855 0)
(0.525931 -0.101692 1.11375e-29)
(0.547919 -0.105457 0)
(0.58418 -0.110817 -1.15183e-28)
(0.611916 -0.114978 -4.97783e-30)
(0.618484 -0.114883 2.34349e-29)
(0.616762 -0.113056 -4.03347e-29)
(0.617309 -0.11311 -2.98458e-29)
(0.605136 -0.110058 4.44486e-30)
(0.588021 -0.105497 0)
(0.54467 -0.0959331 0)
(0.527394 -0.0926448 -1.33475e-29)
(0.481994 -0.0841936 3.17803e-31)
(0.441085 -0.0758476 -1.62908e-31)
(0.379085 -0.0635828 0)
(0.351009 -0.0585491 3.6455e-29)
(0.287007 -0.0474215 1.88169e-28)
(0.238796 -0.0381159 -1.87798e-29)
(0.185389 -0.028615 2.37046e-28)
(0.12474 -0.0174562 -6.78093e-29)
(0.0962061 -0.0123307 0)
(0.034378 -0.00173422 -1.13774e-28)
(-0.00249132 0.00451057 0)
(-0.0459566 0.0117631 7.71313e-29)
(-0.0658672 0.0154346 -1.04926e-30)
(-0.101979 0.021085 -4.56692e-31)
(-0.121724 0.0238266 7.01159e-29)
(-0.128813 0.0240404 -5.69378e-29)
(-0.130893 0.024295 0)
(-0.13268 0.0236525 3.59658e-29)
(-0.116744 0.0199534 0)
(-0.100214 0.0162309 5.27526e-31)
(-0.0612507 0.0079193 5.9779e-31)
(-0.0394568 0.00403714 2.29949e-28)
(0.00277776 -0.00370532 0)
(0.0388551 -0.0103319 -4.56015e-29)
(0.0850939 -0.0186735 0)
(0.107643 -0.0227065 -4.10718e-32)
(0.151299 -0.0300037 -1.66578e-28)
(0.182061 -0.0350849 -2.96077e-30)
(0.20275 -0.0381215 -3.21082e-31)
(0.214344 -0.040461 -4.65112e-31)
(0.217722 -0.0411539 3.10656e-31)
(0.215998 -0.040049 5.56053e-29)
(0.208892 -0.0378254 0)
(0.173489 -0.0301377 0)
(0.154444 -0.0265318 4.99038e-29)
(0.119485 -0.0197421 -1.45658e-28)
(0.0743044 -0.0106819 -9.13094e-29)
(0.0319204 -0.0024529 -2.76368e-28)
(-0.0357913 0.0113143 -4.49858e-31)
(-0.0739276 0.0191659 -8.99747e-30)
(-0.141052 0.031917 -1.44485e-28)
(-0.193626 0.0423988 5.9092e-29)
(-0.258619 0.0552999 -4.02691e-29)
(-0.293419 0.0622021 -1.69912e-30)
(-0.353116 0.0733491 5.73842e-31)
(-0.395109 0.0812563 -3.74346e-28)
(-0.429256 0.0874542 0)
(-0.459627 0.0929693 -8.7451e-29)
(-0.474923 0.0959898 -3.66576e-31)
(-0.497155 0.0997685 -3.70696e-31)
(-0.506655 0.101086 -3.35744e-29)
(-0.505124 0.100136 2.99077e-31)
(-0.504152 0.0999499 -2.973e-29)
(-0.498066 0.0984798 -1.82794e-29)
(-0.488651 0.0963484 -9.70501e-29)
(-0.477254 0.0941006 3.39835e-31)
(-0.469257 0.0927345 0)
(-0.465726 0.0921049 5.30773e-29)
(-0.459737 0.0912359 7.73859e-29)
(-0.463515 0.0924443 -2.99224e-28)
(0.506583 -0.100076 0)
(0.557093 -0.108963 8.68325e-30)
(0.579142 -0.112605 -2.94434e-32)
(0.615626 -0.117638 -6.47786e-29)
(0.639406 -0.120599 5.12864e-31)
(0.648736 -0.120578 1.21246e-31)
(0.645589 -0.118091 -1.27837e-29)
(0.645897 -0.118016 -6.65366e-29)
(0.631063 -0.114085 2.15936e-31)
(0.613021 -0.108877 1.15371e-28)
(0.567518 -0.0985956 -6.70848e-29)
(0.549573 -0.0951641 1.22486e-29)
(0.501811 -0.0860853 6.36401e-31)
(0.458666 -0.0771201 1.79652e-28)
(0.394335 -0.0642921 0)
(0.365542 -0.0591298 1.28734e-29)
(0.299386 -0.0476179 2.29586e-28)
(0.248069 -0.0379882 0)
(0.193845 -0.0281236 1.49271e-28)
(0.131397 -0.0167694 -1.11792e-28)
(0.102338 -0.0115852 1.50269e-30)
(0.0389903 -0.000931016 -5.16444e-36)
(0.00134074 0.0052917 -2.59282e-36)
(-0.042961 0.0123969 1.03622e-28)
(-0.0631145 0.0160839 -3.45603e-29)
(-0.0996374 0.0214962 0)
(-0.119278 0.0238776 7.51876e-29)
(-0.126077 0.0236918 -6.40992e-29)
(-0.128055 0.0238583 4.50866e-29)
(-0.129273 0.022762 1.71704e-31)
(-0.113068 0.0187779 3.49782e-29)
(-0.0949015 0.0144258 9.64086e-29)
(-0.0548604 0.00567371 -5.97306e-31)
(-0.0327585 0.00172594 1.27619e-28)
(0.0106857 -0.00634802 0)
(0.0479506 -0.0132195 -8.24491e-29)
(0.0950431 -0.0216386 4.9253e-30)
(0.117763 -0.0256813 0)
(0.162145 -0.03298 0)
(0.19177 -0.0374961 8.17746e-30)
(0.213939 -0.0406711 -3.26316e-29)
(0.225039 -0.0426159 -8.01e-30)
(0.228261 -0.0432152 -3.10488e-31)
(0.225462 -0.0416067 -2.5663e-31)
(0.217037 -0.0387952 -1.48146e-31)
(0.179841 -0.030482 -4.31525e-32)
(0.160416 -0.0267765 8.79926e-29)
(0.123633 -0.0194404 -1.99065e-28)
(0.0763402 -0.00989308 0)
(0.0320341 -0.000997436 0)
(-0.0378271 0.0132328 0)
(-0.0765536 0.0212443 8.18615e-29)
(-0.145692 0.0343279 -1.87244e-28)
(-0.199948 0.0451558 0)
(-0.266394 0.0582419 -2.20623e-30)
(-0.301473 0.0651609 -1.16846e-28)
(-0.362331 0.076365 0)
(-0.404208 0.0839833 -1.71742e-28)
(-0.439607 0.0903049 1.61518e-28)
(-0.470055 0.0956073 -6.88695e-29)
(-0.485505 0.0986107 3.66307e-31)
(-0.507818 0.102184 -7.65001e-29)
(-0.51705 0.103244 3.69465e-29)
(-0.515372 0.102095 2.96447e-31)
(-0.514393 0.101889 -3.75096e-31)
(-0.508349 0.10031 -7.91418e-36)
(-0.497652 0.0979092 -1.27529e-28)
(-0.487726 0.0959576 -1.08684e-29)
(-0.480047 0.0947283 3.23795e-31)
(-0.476736 0.0941578 4.62983e-29)
(-0.471475 0.0935577 9.30832e-29)
(-0.476226 0.095173 -1.6359e-28)
(0.511847 -0.101688 7.29275e-31)
(0.561353 -0.110339 4.60741e-29)
(0.583366 -0.113893 0)
(0.619989 -0.118877 0)
(0.649204 -0.122753 -3.3148e-30)
(0.652886 -0.121463 -2.44477e-31)
(0.64953 -0.118782 -3.47082e-29)
(0.649821 -0.11872 8.97301e-30)
(0.636729 -0.114984 0)
(0.616826 -0.109316 7.83256e-29)
(0.570921 -0.0988699 -2.68243e-32)
(0.552644 -0.0953949 -8.89721e-29)
(0.5049 -0.0862479 0)
(0.461795 -0.0771863 6.87897e-29)
(0.396752 -0.0642215 -3.03335e-31)
(0.367705 -0.0590281 7.97589e-31)
(0.301332 -0.047502 0)
(0.251979 -0.0378741 -8.11489e-29)
(0.195559 -0.0279127 2.82085e-29)
(0.132734 -0.0165451 -1.82311e-28)
(0.103494 -0.0113475 7.47994e-31)
(0.0403293 -0.000692702 0)
(0.00233881 0.00550747 1.34345e-31)
(-0.0421983 0.0125345 8.42488e-32)
(-0.0624374 0.0162497 -9.89655e-29)
(-0.098991 0.0215784 -1.93409e-29)
(-0.11851 0.0238794 2.085e-36)
(-0.125465 0.0236181 -6.65178e-29)
(-0.127473 0.023775 5.93306e-29)
(-0.128664 0.0225701 -1.78915e-31)
(-0.111234 0.0182163 -8.81475e-32)
(-0.0942474 0.0141203 4.11967e-29)
(-0.0542084 0.00528502 5.97338e-31)
(-0.0319334 0.00131649 -5.98437e-32)
(0.0117588 -0.00686574 -2.60974e-28)
(0.0490421 -0.013723 0)
(0.0959464 -0.0220725 -3.15747e-28)
(0.118714 -0.0261231 0)
(0.163287 -0.033441 0)
(0.195763 -0.0385385 0)
(0.215154 -0.0409937 -2.14154e-28)
(0.226161 -0.0428573 5.72096e-36)
(0.229397 -0.0434442 3.11098e-31)
(0.226726 -0.0417826 1.05191e-28)
(0.218072 -0.0388407 0)
(0.18065 -0.0304153 0)
(0.161188 -0.026712 -5.52247e-31)
(0.124286 -0.0193048 -4.8685e-31)
(0.0773242 -0.00964946 -2.09724e-28)
(0.0324788 -0.000679447 -1.69548e-31)
(-0.0375999 0.0135238 -2.24757e-31)
(-0.0765103 0.0216027 -2.23298e-28)
(-0.145909 0.0347407 0)
(-0.200233 0.0455842 -2.58697e-31)
(-0.266705 0.058646 -2.0711e-31)
(-0.301798 0.0655502 5.22758e-28)
(-0.362806 0.0767331 0)
(-0.405476 0.0845504 0)
(-0.440149 0.0906081 -3.68005e-29)
(-0.470575 0.095856 -2.31748e-28)
(-0.486057 0.0988567 3.65139e-31)
(-0.50852 0.102418 -9.27286e-30)
(-0.517651 0.103424 4.92158e-29)
(-0.515934 0.102203 4.85411e-29)
(-0.514952 0.101983 1.81682e-29)
(-0.508919 0.100399 0)
(-0.499382 0.0981738 0)
(-0.488315 0.0960309 9.53585e-31)
(-0.480649 0.0948247 0)
(-0.477343 0.0942614 9.08414e-29)
(-0.472201 0.0937245 -1.11815e-28)
(-0.477054 0.0954061 -2.62636e-28)
(0.54209 -0.108785 7.22437e-31)
(0.59246 -0.117412 -5.82052e-36)
(0.614441 -0.120836 -5.64079e-32)
(0.651013 -0.125518 0)
(0.674717 -0.127953 -5.53003e-31)
(0.682722 -0.127007 4.16612e-29)
(0.678055 -0.123832 -3.35112e-29)
(0.677949 -0.12363 -4.72178e-29)
(0.661523 -0.118896 3.78854e-36)
(0.641232 -0.11273 -1.34267e-28)
(0.593014 -0.1016 1.31904e-28)
(0.573967 -0.0979864 -7.04625e-31)
(0.524115 -0.0882711 -6.34515e-31)
(0.47904 -0.0786349 0)
(0.411989 -0.0652192 0)
(0.382301 -0.0599272 7.97185e-31)
(0.314214 -0.0481033 6.15729e-31)
(0.261446 -0.0379258 1.19111e-29)
(0.20526 -0.0279135 3.61041e-28)
(0.140997 -0.0164315 0)
(0.111504 -0.011232 0)
(0.0468861 -0.000461945 0)
(0.00851804 0.00565241 -2.14307e-28)
(-0.03644 0.0124817 7.68672e-37)
(-0.0566687 0.0161678 1.42905e-29)
(-0.0934294 0.0212671 -6.85393e-29)
(-0.11271 0.023241 9.7237e-29)
(-0.119139 0.0225971 -4.5422e-31)
(-0.12092 0.0226377 3.86111e-36)
(-0.121509 0.0210198 5.27711e-29)
(-0.104661 0.0165426 -5.91135e-29)
(-0.0854708 0.0118183 0)
(-0.0442536 0.00256523 5.93805e-31)
(-0.0217301 -0.00143795 1.95774e-36)
(0.0224294 -0.00984074 2.52071e-33)
(0.0605258 -0.0168472 0)
(0.108377 -0.0252898 1.44663e-29)
(0.131361 -0.0293621 -3.9166e-32)
(0.17616 -0.0366293 2.57613e-32)
(0.206082 -0.0409888 -9.89411e-30)
(0.227803 -0.043689 -2.51338e-29)
(0.23828 -0.045234 0)
(0.241266 -0.0457248 -3.10011e-31)
(0.237365 -0.0435731 1.34183e-28)
(0.227461 -0.0401032 2.9501e-31)
(0.188637 -0.0311845 1.42704e-28)
(0.168728 -0.0273792 -1.26518e-28)
(0.12989 -0.01943 4.86697e-31)
(0.0807448 -0.00923422 -1.62408e-28)
(0.034685 0.000183123 0)
(-0.0367103 0.0146082 -2.25152e-31)
(-0.0759405 0.0227987 1.50048e-28)
(-0.14716 0.0362574 1.83371e-28)
(-0.202661 0.0473359 0)
(-0.270003 0.0604712 -3.40984e-30)
(-0.305268 0.0673752 3.13575e-28)
(-0.367158 0.078591 0)
(-0.409662 0.086189 0)
(-0.445167 0.0922673 0)
(-0.475569 0.0973224 -1.90365e-28)
(-0.49109 0.100293 7.29332e-31)
(-0.513585 0.103678 7.36613e-31)
(-0.52255 0.104483 0)
(-0.520843 0.103125 8.70911e-30)
(-0.519878 0.102896 -4.65486e-29)
(-0.513942 0.101234 -5.45628e-31)
(-0.503548 0.0988085 -6.31951e-31)
(-0.493714 0.096925 6.83347e-30)
(-0.486434 0.095858 -6.48756e-31)
(-0.483322 0.095349 -8.55431e-31)
(-0.478827 0.0950513 -2.7427e-31)
(-0.484656 0.0971062 -2.25587e-28)
(0.569958 -0.115551 6.80646e-36)
(0.621289 -0.124171 7.03554e-31)
(0.643278 -0.127443 -1.93433e-29)
(0.679775 -0.131711 -1.86965e-36)
(0.698643 -0.132875 -1.22019e-29)
(0.710417 -0.132218 4.22725e-29)
(0.704625 -0.128417 -1.94261e-29)
(0.704144 -0.128021 -2.33136e-31)
(0.684529 -0.12234 0)
(0.664044 -0.115693 2.73548e-32)
(0.613981 -0.103926 1.82809e-29)
(0.594419 -0.10022 -7.52654e-29)
(0.542623 -0.0899464 0)
(0.495809 -0.0797922 3.22429e-31)
(0.42737 -0.0660239 3.01717e-31)
(0.397179 -0.060659 0)
(0.327688 -0.0485521 0)
(0.271467 -0.037907 0)
(0.216134 -0.027956 -1.95046e-31)
(0.15083 -0.0164254 6.38195e-29)
(0.121076 -0.0112201 7.46646e-31)
(0.0550506 -0.000400131 5.88422e-31)
(0.0167123 0.00554755 -3.44346e-28)
(-0.0285265 0.0121275 0)
(-0.0487374 0.0157771 -6.44492e-29)
(-0.0856972 0.0206196 -1.05934e-28)
(-0.104946 0.0222627 1.46483e-28)
(-0.110749 0.0211696 2.26154e-31)
(-0.112303 0.0211225 2.7899e-31)
(-0.112422 0.01909 -3.32785e-29)
(-0.0969194 0.0146148 1.26267e-31)
(-0.0750802 0.00909515 1.57111e-28)
(-0.0329198 -0.000512084 6.67549e-29)
(-0.0103149 -0.00451844 -6.19483e-32)
(0.0340658 -0.0130871 4.60419e-28)
(0.0728361 -0.0202324 -1.35205e-30)
(0.121569 -0.028757 1.44154e-28)
(0.144673 -0.0328179 1.56293e-28)
(0.189493 -0.0399419 4.04217e-28)
(0.216839 -0.0435694 -5.95079e-29)
(0.240825 -0.0465141 0)
(0.250848 -0.0476925 0)
(0.253583 -0.0480598 0)
(0.2485 -0.0453863 4.18116e-29)
(0.237627 -0.0414128 -2.88444e-28)
(0.197744 -0.0320453 6.03714e-29)
(0.177349 -0.0281169 -2.57877e-28)
(0.136839 -0.0196389 0)
(0.0854096 -0.00894419 2.19604e-29)
(0.0390076 0.000812101 -1.67789e-31)
(-0.0333273 0.0153786 0)
(-0.0729251 0.0236927 0)
(-0.145662 0.0373927 3.54914e-28)
(-0.201821 0.0485959 3.24194e-28)
(-0.269817 0.0617484 3.3024e-28)
(-0.305298 0.0686589 -3.32392e-28)
(-0.367843 0.079841 -1.0328e-27)
(-0.410666 0.0872466 -3.44309e-31)
(-0.446283 0.0932286 1.91865e-36)
(-0.476702 0.0980724 2.40209e-29)
(-0.492267 0.101011 -9.07828e-29)
(-0.514907 0.104219 0)
(-0.523712 0.104808 0)
(-0.522067 0.103309 3.34233e-29)
(-0.521131 0.103075 1.12347e-30)
(-0.515349 0.101331 -1.66462e-35)
(-0.50503 0.0989046 -1.25565e-30)
(-0.495559 0.0971146 6.86589e-29)
(-0.48865 0.0961861 0)
(-0.485706 0.095731 0)
(-0.481835 0.0956868 1.52443e-28)
(-0.488498 0.0981153 0)
(0.576361 -0.117502 -7.17064e-31)
(0.626482 -0.125787 -7.09206e-31)
(0.648412 -0.128942 2.44674e-29)
(0.685064 -0.13307 -5.96518e-32)
(0.707983 -0.134948 -2.0031e-31)
(0.715457 -0.133335 3.17355e-29)
(0.70937 -0.129286 -3.69164e-29)
(0.708833 -0.128851 7.52657e-31)
(0.690708 -0.123236 3.89628e-29)
(0.668404 -0.11616 1.30781e-28)
(0.617941 -0.104252 8.04979e-29)
(0.598235 -0.100563 -1.03962e-30)
(0.546365 -0.0901376 -6.35571e-31)
(0.499599 -0.0798493 0)
(0.43044 -0.0660266 -1.17588e-28)
(0.400051 -0.0606581 0)
(0.330381 -0.0484798 0)
(0.276031 -0.0377453 1.33419e-31)
(0.218552 -0.0278273 -2.09952e-32)
(0.153067 -0.0163366 -1.73643e-28)
(0.123145 -0.0111149 0)
(0.0574722 -0.000273267 5.87568e-31)
(0.0186807 0.00563024 2.8824e-28)
(-0.0267375 0.012082 8.43794e-32)
(-0.0470062 0.0157541 -1.54287e-29)
(-0.0839587 0.0205187 -3.03546e-29)
(-0.102855 0.0220263 1.12666e-28)
(-0.10907 0.0209066 -2.25404e-31)
(-0.110646 0.0208327 0)
(-0.110717 0.0187045 -6.46359e-29)
(-0.0934846 0.0136968 6.5405e-29)
(-0.0732555 0.00851751 8.50195e-29)
(-0.0311135 -0.0011211 1.59739e-28)
(-0.00847908 -0.00511703 0)
(0.0361132 -0.0137928 0)
(0.0750283 -0.020974 0)
(0.123527 -0.0293939 6.7803e-31)
(0.146607 -0.0334303 -2.20375e-29)
(0.191501 -0.0405311 -3.61894e-32)
(0.221222 -0.0446963 0)
(0.242757 -0.046977 7.5403e-29)
(0.252629 -0.0480516 -2.72612e-29)
(0.255339 -0.0483934 -3.09798e-31)
(0.250396 -0.0456566 0)
(0.239324 -0.0415607 -2.07108e-28)
(0.199195 -0.0321043 0)
(0.178635 -0.0281439 1.40943e-28)
(0.13798 -0.0195617 2.46588e-28)
(0.0873354 -0.0087675 -1.3248e-28)
(0.0399864 0.00102938 -6.95617e-28)
(-0.0324468 0.0155162 4.47344e-31)
(-0.0722823 0.0239245 0)
(-0.145062 0.0376789 -1.22135e-30)
(-0.201237 0.0488577 9.28872e-29)
(-0.269359 0.0619854 -5.27362e-29)
(-0.30495 0.068902 -2.0998e-30)
(-0.367581 0.0800612 -7.12834e-28)
(-0.410311 0.0875497 -1.71298e-31)
(-0.446056 0.0933761 -2.26955e-31)
(-0.47651 0.0981768 1.59854e-28)
(-0.492141 0.101122 5.91177e-29)
(-0.514813 0.104302 7.34462e-31)
(-0.52361 0.104853 5.03868e-31)
(-0.521999 0.103304 -3.43828e-31)
(-0.521074 0.103058 -1.0745e-28)
(-0.515304 0.101305 -4.46077e-29)
(-0.505037 0.0988228 -6.28455e-31)
(-0.495572 0.0970848 -3.54382e-30)
(-0.488708 0.0961774 -6.47405e-31)
(-0.485785 0.0957351 1.13169e-35)
(-0.482022 0.095759 -1.68071e-28)
(-0.488904 0.0982828 3.82741e-31)
(0.601597 -0.124352 -7.16878e-31)
(0.652796 -0.13258 -7.10417e-31)
(0.674781 -0.135562 -2.21777e-29)
(0.711369 -0.139135 5.88422e-32)
(0.730002 -0.139619 -4.66163e-36)
(0.741049 -0.138069 7.58215e-29)
(0.734094 -0.13331 -2.33653e-29)
(0.733219 -0.132669 -2.28935e-29)
(0.71205 -0.126012 2.31625e-29)
(0.690376 -0.118388 0)
(0.638887 -0.1059 7.69677e-29)
(0.618835 -0.102142 3.50943e-31)
(0.565218 -0.0911212 0)
(0.517113 -0.0803451 0)
(0.447079 -0.0661947 -1.08313e-28)
(0.416289 -0.0607779 0)
(0.345499 -0.0483612 2.55849e-28)
(0.287872 -0.037463 -1.33065e-31)
(0.231733 -0.0274612 1.18932e-32)
(0.165349 -0.0160088 -8.37177e-29)
(0.135133 -0.0107945 7.4451e-31)
(0.0680709 -6.29678e-05 -5.00703e-36)
(0.0294431 0.00562698 1.5362e-31)
(-0.0163238 0.0117389 8.51063e-32)
(-0.0366885 0.0153592 -2.03576e-29)
(-0.0739448 0.0197724 4.9729e-36)
(-0.0930874 0.0208436 1.17009e-28)
(-0.098776 0.0191819 -8.55544e-29)
(-0.100274 0.0190074 0)
(-0.100095 0.0163776 0)
(-0.0846391 0.0113971 7.71627e-29)
(-0.0619182 0.00525907 8.98874e-29)
(-0.0192825 -0.00472424 0)
(0.00339874 -0.00874742 6.11115e-32)
(0.0481707 -0.0175672 3.3773e-28)
(0.0876008 -0.0248957 0)
(0.136727 -0.0333296 0)
(0.159858 -0.0373268 0)