/*--------------------------------*- C++ -*----------------------------------*\
| =========                 |                                                 |
| \\      /  F ield         | OpenFOAM: The Open Source CFD Toolbox           |
|  \\    /   O peration     | Version:  v2012                                 |
|   \\  /    A nd           | Website:  www.openfoam.com                      |
|    \\/     M anipulation  |                                                 |
\*---------------------------------------------------------------------------*/
FoamFile
{
    version     2.0;
    format      ascii;
    class       volVectorField;
    location    "1e-06";
    object      UMean;
}
// * * * * * * * * * * * * * * * * * * * * * * * * * * * * * * * * * * * * * //

dimensions      [0 1 -1 0 0 0 0];


internalField   nonuniform List<vector> 
10203
(
(0.285707 -0.052865 0)
(0.313513 -0.057929 -8.86166e-29)
(0.328831 -0.0608424 3.46351e-30)
(0.367872 -0.0679603 2.56622e-29)
(0.393839 -0.0725764 0)
(0.400123 -0.0735241 6.48535e-30)
(0.395132 -0.0725775 4.29881e-30)
(0.407418 -0.0749666 4.55988e-30)
(0.416737 -0.0765268 5.70206e-30)
(0.410643 -0.0751922 -6.75613e-29)
(0.378991 -0.0692169 0)
(0.369152 -0.0673416 0)
(0.353514 -0.0644575 0)
(0.33467 -0.0608032 0)
(0.29211 -0.0528976 0)
(0.268797 -0.0487039 -1.14717e-29)
(0.233531 -0.0423209 4.70759e-28)
(0.207966 -0.0375764 -3.89265e-28)
(0.177276 -0.0319957 -3.62011e-28)
(0.138257 -0.0248428 -3.44282e-29)
(0.113763 -0.0203144 1.45941e-28)
(0.0694843 -0.0122977 -3.21172e-28)
(0.0467104 -0.00822694 0)
(0.0203366 -0.00342892 3.31151e-28)
(0.00281027 -0.000196193 8.51861e-29)
(-0.0296052 0.00569143 -9.06297e-29)
(-0.0478772 0.00889632 3.48545e-29)
(-0.0492446 0.0090064 1.793e-29)
(-0.0476812 0.00877867 7.10513e-29)
(-0.0580089 0.0106295 3.46139e-29)
(-0.0524736 0.0095044 3.466e-29)
(-0.0451819 0.00807023 1.64851e-29)
(-0.0157186 0.00263197 7.90939e-29)
(0.00060719 -0.00032719 -1.7762e-29)
(0.0245864 -0.00466437 -3.27308e-29)
(0.0462741 -0.00861867 -3.46975e-28)
(0.0802998 -0.014754 -1.57165e-34)
(0.10053 -0.0183738 -3.44626e-29)
(0.130977 -0.0238075 1.78143e-34)
(0.151598 -0.0274876 -2.13957e-28)
(0.168002 -0.0303865 -1.70965e-28)
(0.177678 -0.0331664 1.55452e-29)
(0.182431 -0.0341626 -2.8436e-29)
(0.187819 -0.0350978 1.46029e-29)
(0.18839 -0.0351289 -1.62048e-29)
(0.168455 -0.0313133 -1.59383e-29)
(0.15376 -0.028565 -2.30909e-29)
(0.1342 -0.0248938 -2.35761e-28)
(0.109306 -0.0201957 -3.45772e-28)
(0.089128 -0.016418 1.3154e-29)
(0.0500022 -0.00974164 2.31455e-28)
(0.0150562 -0.0026723 1.04183e-28)
(-0.0339884 0.00708113 -2.86174e-28)
(-0.0640444 0.0129894 -1.44253e-29)
(-0.0996463 0.0200692 1.87697e-28)
(-0.127486 0.0256577 3.23594e-34)
(-0.178658 0.0358021 3.94878e-28)
(-0.214636 0.042867 -6.12993e-28)
(-0.228581 0.0455108 0)
(-0.239985 0.0478036 1.18073e-29)
(-0.263234 0.0525164 1.08453e-29)
(-0.295194 0.0587722 7.62008e-29)
(-0.302941 0.060165 -3.52914e-28)
(-0.291479 0.0578388 0)
(-0.287407 0.0571138 -1.91015e-28)
(-0.296895 0.0590106 3.93162e-29)
(-0.297533 0.0590369 -1.19272e-28)
(-0.281032 0.0557037 -5.34883e-34)
(-0.262407 0.05207 -1.90397e-29)
(-0.265592 0.0527822 -5.7695e-29)
(-0.269557 0.0535575 -4.2113e-28)
(-0.267413 0.0530881 6.01476e-28)
(0.328733 -0.0610869 2.6368e-28)
(0.371823 -0.0690479 -1.14291e-28)
(0.392118 -0.0729495 6.13344e-29)
(0.422232 -0.0782627 0)
(0.443193 -0.081879 0)
(0.459029 -0.084486 -2.60008e-30)
(0.465096 -0.0854439 8.32198e-29)
(0.465416 -0.0857198 2.92532e-28)
(0.458162 -0.0842523 0)
(0.456654 -0.0835781 -2.757e-28)
(0.429113 -0.0780698 -8.44118e-29)
(0.416348 -0.0756433 0)
(0.385345 -0.0701059 0)
(0.359991 -0.0652191 0)
(0.316124 -0.0568348 0)
(0.294575 -0.052983 -1.12944e-27)
(0.247042 -0.0445923 1.11673e-27)
(0.2136 -0.0383544 1.57121e-29)
(0.176659 -0.0316002 -9.20496e-28)
(0.129387 -0.0227688 1.87905e-29)
(0.106586 -0.0185942 0)
(0.0591749 -0.0102016 7.27477e-28)
(0.0298086 -0.00493227 1.99489e-34)
(-0.00634016 0.00171392 4.21722e-28)
(-0.0230202 0.00479912 -2.90176e-28)
(-0.052338 0.0100238 1.69024e-29)
(-0.0704479 0.0131112 2.38267e-28)
(-0.0793068 0.0145149 -1.78819e-29)
(-0.0827552 0.0152203 -1.78802e-29)
(-0.0854304 0.0156181 -1.27671e-28)
(-0.0710535 0.0128545 -1.73057e-29)
(-0.0665005 0.0118231 0)
(-0.0380732 0.00632798 -3.27374e-29)
(-0.0192441 0.00298188 -1.77359e-29)
(0.0140089 -0.00291632 1.57915e-29)
(0.0400232 -0.00766588 -9.59264e-28)
(0.0762802 -0.0143087 0)
(0.0955625 -0.0177739 0)
(0.131896 -0.0241382 0)
(0.155531 -0.0283424 -4.88969e-28)
(0.17466 -0.031699 1.58716e-29)
(0.186487 -0.034828 0)
(0.190114 -0.0356491 7.25345e-29)
(0.193147 -0.0360984 1.67834e-30)
(0.192447 -0.0358344 1.61742e-29)
(0.16821 -0.0310694 7.4044e-29)
(0.152496 -0.0281178 1.47491e-29)
(0.129481 -0.0238709 -6.25923e-28)
(0.0999939 -0.0183021 0)
(0.0709799 -0.0128608 1.4643e-27)
(0.0188918 -0.0028616 1.64009e-29)
(-0.0125636 0.00319635 -1.98147e-28)
(-0.0612552 0.0127437 -7.27791e-28)
(-0.100887 0.020538 -1.43774e-29)
(-0.153352 0.0310608 4.90717e-28)
(-0.184053 0.0372643 1.16422e-29)
(-0.229417 0.0461247 -4.56004e-29)
(-0.261298 0.0523015 -1.25075e-27)
(-0.291853 0.0582009 0)
(-0.321159 0.0640721 -5.58032e-28)
(-0.332322 0.066422 5.95532e-34)
(-0.349001 0.0695593 1.87113e-28)
(-0.361903 0.0719116 0)
(-0.365242 0.0724538 0)
(-0.365321 0.07259 -4.13737e-29)
(-0.358003 0.0711613 0)
(-0.347685 0.0689578 0)
(-0.342214 0.0677747 0)
(-0.337089 0.0668518 -9.39785e-29)
(-0.330969 0.0657513 8.03866e-28)
(-0.319616 0.0635059 1.93396e-29)
(-0.320082 0.0635379 4.611e-28)
(0.393643 -0.0741345 7.08675e-29)
(0.44153 -0.082926 1.31063e-28)
(0.46192 -0.0867292 1.05776e-30)
(0.495924 -0.0924384 0)
(0.516329 -0.0958119 -1.89355e-28)
(0.533101 -0.0984405 -2.41147e-28)
(0.536016 -0.0983966 2.83717e-28)
(0.537315 -0.0987435 5.94572e-28)
(0.527292 -0.0966528 -5.60346e-30)
(0.518721 -0.0944502 -7.26402e-30)
(0.483501 -0.0872052 1.28055e-29)
(0.469855 -0.0845749 7.1825e-30)
(0.43226 -0.0777784 0)
(0.397853 -0.0710912 -8.56773e-28)
(0.345124 -0.0609158 1.15304e-29)
(0.321814 -0.056731 -4.09349e-28)
(0.266108 -0.0469026 1.11373e-29)
(0.223425 -0.0390274 8.18104e-28)
(0.178401 -0.0307395 -8.49751e-28)
(0.124185 -0.0206555 3.58838e-28)
(0.0997953 -0.0162045 3.56785e-28)
(0.0445089 -0.00650926 6.23752e-28)
(0.00983471 -0.000356126 -1.73947e-29)
(-0.0303736 0.00687134 -1.78564e-29)
(-0.0478703 0.010076 1.76231e-29)
(-0.0814579 0.015885 2.83637e-28)
(-0.101567 0.0191702 1.76751e-29)
(-0.109701 0.0202408 1.78538e-29)
(-0.112276 0.0207049 -4.69915e-29)
(-0.115433 0.0209294 1.75638e-29)
(-0.100706 0.0179969 0)
(-0.0897527 0.0156431 0)
(-0.0555365 0.00882557 -1.71209e-28)
(-0.0363932 0.00539014 -1.65059e-29)
(0.00119439 -0.00133527 -3.54913e-28)
(0.0335909 -0.00725069 1.58246e-34)
(0.0756255 -0.0149257 -1.52275e-34)
(0.0958365 -0.0185559 -1.71737e-29)
(0.136196 -0.0255403 1.72697e-29)
(0.162787 -0.0301145 3.28251e-28)
(0.185125 -0.0339707 -1.5847e-29)
(0.197705 -0.0370579 -3.03672e-28)
(0.201225 -0.037845 1.56309e-29)
(0.202275 -0.0377537 -2.91479e-28)
(0.198981 -0.0368092 -1.61541e-29)
(0.169413 -0.0308293 -3.10516e-29)
(0.152726 -0.0276803 -1.05031e-28)
(0.12406 -0.0223081 1.45841e-29)
(0.0865808 -0.0151415 -2.41844e-34)
(0.0499117 -0.00819076 -1.60855e-27)
(0.0186919 -0.00243279 -2.37005e-27)
(-0.0439305 0.0104309 5.71282e-28)
(-0.102627 0.021805 0)
(-0.150446 0.0312639 2.87649e-29)
(-0.209477 0.0430695 1.02195e-28)
(-0.241276 0.0494531 0)
(-0.295016 0.059827 -1.44882e-27)
(-0.331666 0.0668732 8.30356e-28)
(-0.366267 0.0735259 2.4055e-29)
(-0.396357 0.0793718 7.42467e-29)
(-0.409842 0.0821258 2.16543e-29)
(-0.430148 0.0858765 2.05617e-29)
(-0.441654 0.0878818 2.03545e-29)
(-0.442022 0.0876873 0)
(-0.441474 0.0876391 7.80135e-28)
(-0.435039 0.0862819 1.96254e-29)
(-0.421799 0.0835215 0)
(-0.415347 0.0821891 0)
(-0.407652 0.0807521 -1.26496e-28)
(-0.403064 0.0799087 -5.3943e-34)
(-0.393716 0.0781405 -1.93247e-29)
(-0.394289 0.0783514 0)
(0.395902 -0.0750078 -2.55036e-28)
(0.442763 -0.0836233 4.77803e-28)
(0.463205 -0.0873776 -5.4439e-28)
(0.497442 -0.0930262 3.27432e-28)
(0.528483 -0.0983498 -3.5997e-28)
(0.534794 -0.0989452 -3.75325e-28)
(0.537717 -0.0987461 -1.57123e-28)
(0.539078 -0.0990843 6.15328e-28)
(0.531563 -0.0974161 -5.59189e-30)
(0.520685 -0.0947144 0)
(0.485252 -0.0872886 -1.33725e-28)
(0.471472 -0.0846342 -7.19458e-30)
(0.433984 -0.0778722 0)
(0.399674 -0.0711402 1.37524e-29)
(0.346475 -0.0607963 -2.68463e-28)
(0.323026 -0.0565867 0)
(0.267083 -0.0467893 0)
(0.225818 -0.0389924 -1.35918e-29)
(0.179119 -0.0305365 -3.15802e-29)
(0.124767 -0.020409 -1.62894e-29)
(0.100189 -0.0159314 -1.73855e-28)
(0.0445253 -0.00620269 1.54254e-29)
(0.00994386 -9.12522e-05 1.74184e-29)
(-0.0303861 0.00708465 0)
(-0.0480178 0.010334 -1.45753e-28)
(-0.0818077 0.0161016 0)
(-0.102289 0.0194202 0)
(-0.11015 0.0203606 -1.93312e-28)
(-0.112752 0.0208146 1.77078e-29)
(-0.115978 0.0209849 1.75348e-29)
(-0.103714 0.0184296 0)
(-0.0902916 0.0156271 0)
(-0.0561337 0.00871583 5.59834e-28)
(-0.0368783 0.00526674 3.31084e-28)
(0.000951106 -0.00151294 2.00271e-29)
(0.0334752 -0.00744435 5.35307e-29)
(0.0754363 -0.0151155 -1.58251e-29)
(0.0956669 -0.0187546 6.1625e-28)
(0.136265 -0.0257375 1.72345e-29)
(0.165638 -0.0308574 9.40263e-29)
(0.185356 -0.0341181 1.58218e-29)
(0.19792 -0.0371248 -4.15477e-28)
(0.201463 -0.0379192 -1.56085e-29)
(0.202614 -0.0377973 3.29432e-29)
(0.199264 -0.0367811 0)
(0.169597 -0.030687 7.38704e-28)
(0.152918 -0.0275423 -1.31307e-27)
(0.124263 -0.0221773 0)
(0.0858591 -0.0147578 2.31642e-28)
(0.0498404 -0.00803384 -2.21961e-27)
(-0.0103348 0.00415832 3.15746e-29)
(-0.0441573 0.0109055 -1.91166e-27)
(-0.103133 0.0221685 -2.61996e-29)
(-0.1508 0.0316197 0)
(-0.20989 0.0434491 0)
(-0.241762 0.0498352 0)
(-0.295641 0.0601645 1.19798e-27)
(-0.336209 0.0679984 -2.08674e-28)
(-0.366916 0.0738249 2.40855e-29)
(-0.397072 0.0796375 -9.56268e-28)
(-0.410678 0.0824011 -2.1648e-29)
(-0.43153 0.0862302 -2.05487e-29)
(-0.442726 0.0881577 0)
(-0.442894 0.0878606 0)
(-0.442329 0.0877963 2.8271e-28)
(-0.435963 0.0864348 1.96018e-29)
(-0.429797 0.0850497 0)
(-0.416256 0.0823287 0)
(-0.408491 0.0808932 0)
(-0.40387 0.0800335 0)
(-0.394807 0.0783467 4.02908e-28)
(-0.395349 0.0785853 0)
(0.442657 -0.0847369 -2.21893e-28)
(0.491843 -0.0936939 -1.91051e-30)
(0.512314 -0.0973653 -3.30071e-30)
(0.547876 -0.10305 3.83683e-28)
(0.574274 -0.10724 3.33029e-30)
(0.584163 -0.108197 -4.64708e-28)
(0.584657 -0.107305 -5.47346e-28)
(0.585966 -0.107586 4.67648e-28)
(0.574873 -0.105063 0)
(0.560588 -0.101428 5.52849e-28)
(0.520516 -0.0928889 0)
(0.505905 -0.0900693 -1.75508e-28)
(0.463826 -0.0823784 -8.20149e-30)
(0.424192 -0.0745132 -1.42642e-29)
(0.365985 -0.0631235 1.29652e-28)
(0.341401 -0.058706 -1.02225e-29)
(0.28066 -0.0480847 0)
(0.233841 -0.0392776 0)
(0.183314 -0.0300901 8.42955e-28)
(0.125152 -0.0193112 -1.783e-34)
(0.0997062 -0.0146935 -1.48384e-29)
(0.0402141 -0.00439036 0)
(0.00299961 0.00210371 -1.7337e-29)
(-0.0392527 0.00944713 1.9766e-34)
(-0.0572175 0.012752 1.66997e-29)
(-0.0925688 0.0186109 -1.67053e-29)
(-0.11329 0.0217772 -1.48042e-28)
(-0.120589 0.0223938 2.03947e-29)
(-0.122771 0.0227228 1.1636e-28)
(-0.125352 0.0225696 -1.7489e-29)
(-0.110923 0.0194459 2.06614e-34)
(-0.095338 0.0160769 -1.77828e-28)
(-0.0580835 0.00840527 8.00605e-28)
(-0.0383852 0.00486743 -1.90286e-28)
(0.00201557 -0.00244002 2.36968e-28)
(0.037706 -0.00895828 6.45529e-29)
(0.0823917 -0.0170956 1.92547e-28)
(0.103103 -0.0208167 5.55684e-28)
(0.1456 -0.0280584 0)
(0.175246 -0.0330573 1.8697e-28)
(0.196777 -0.0365304 -7.4658e-29)
(0.20904 -0.0393224 -3.3239e-29)
(0.212395 -0.0400601 -1.7031e-28)
(0.211826 -0.039454 2.38428e-28)
(0.206299 -0.0378246 -3.21982e-29)
(0.173277 -0.0308971 -3.16964e-29)
(0.155909 -0.0276092 -3.13096e-29)
(0.123551 -0.0214591 2.90775e-29)
(0.0808424 -0.0131204 -2.0395e-30)
(0.0401557 -0.00536618 -1.49313e-27)
(-0.0246308 0.00768252 0)
(-0.0594806 0.0148566 -1.4042e-27)
(-0.123656 0.0271099 0)
(-0.175752 0.0374605 0)
(-0.238306 0.0499435 0)
(-0.270756 0.0564216 1.47842e-27)
(-0.328513 0.0674056 -1.68761e-28)
(-0.369813 0.0752708 -3.15099e-28)
(-0.403796 0.0816421 -3.97697e-28)
(-0.434187 0.0873672 -2.22166e-28)
(-0.448561 0.0902499 2.16072e-29)
(-0.470336 0.0941366 0)
(-0.480763 0.0957971 8.18272e-28)
(-0.479743 0.0951469 2.00363e-29)
(-0.478953 0.0950126 0)
(-0.47265 0.0936052 0)
(-0.462477 0.0913781 0)
(-0.451672 0.0891987 0)
(-0.443383 0.0877085 0)
(-0.439376 0.0869671 0)
(-0.431583 0.085596 4.53176e-29)
(-0.433277 0.0861789 1.92508e-29)
(0.480085 -0.0929263 0)
(0.530637 -0.102014 5.88296e-28)
(0.551229 -0.105595 0)
(0.587331 -0.111061 3.91993e-28)
(0.609616 -0.114223 -3.31333e-30)
(0.622169 -0.115379 6.06295e-28)
(0.620744 -0.113755 4.07408e-28)
(0.621796 -0.113905 -5.6774e-28)
(0.60759 -0.110586 8.55196e-28)
(0.591172 -0.10621 7.35244e-28)
(0.548031 -0.0968453 -7.97454e-35)
(0.532641 -0.0938617 3.29166e-30)
(0.487094 -0.0853989 8.12211e-30)
(0.44398 -0.0767362 -1.34562e-27)
(0.382519 -0.0646437 0)
(0.357019 -0.0600565 1.01463e-29)
(0.292985 -0.0488462 -1.26055e-34)
(0.241995 -0.0393816 1.15447e-27)
(0.189576 -0.0297649 2.4265e-27)
(0.12905 -0.0186364 0)
(0.10299 -0.0139298 0)
(0.0409653 -0.0033138 -8.65457e-28)
(0.00232968 0.00331607 0)
(-0.0409835 0.0106219 0)
(-0.0591417 0.0139529 1.66414e-29)
(-0.0952927 0.0197274 1.66444e-29)
(-0.115956 0.022638 -2.41437e-28)
(-0.122731 0.022904 -5.66811e-29)
(-0.124646 0.023132 1.76966e-28)
(-0.126493 0.0225899 -4.03878e-34)
(-0.111342 0.0191483 -3.43335e-29)
(-0.0934344 0.0151298 -3.86357e-28)
(-0.0542364 0.00691433 2.46537e-28)
(-0.0342425 0.00332283 5.40436e-29)
(0.00779127 -0.00436812 3.48626e-29)
(0.0454566 -0.0112612 -9.74935e-28)
(0.0918215 -0.0196526 -2.16062e-28)
(0.112774 -0.023401 -3.84202e-29)
(0.156278 -0.0307156 -6.43875e-28)
(0.185143 -0.0353638 4.01175e-28)
(0.208246 -0.0390042 -2.6069e-28)
(0.220009 -0.04149 6.72082e-28)
(0.223161 -0.0421491 -9.55094e-29)
(0.221146 -0.0410577 -3.62804e-28)
(0.213891 -0.0388593 -3.21222e-29)
(0.178479 -0.031265 0)
(0.160526 -0.0278454 2.4101e-28)
(0.12549 -0.0210594 2.89776e-29)
(0.0796776 -0.0120498 6.49517e-29)
(0.0361733 -0.00356551 -1.80519e-27)
(-0.0314688 0.0101593 0)
(-0.0671502 0.0175085 9.94441e-28)
(-0.134525 0.030339 -2.60223e-29)
(-0.189199 0.0412113 6.13723e-28)
(-0.253903 0.054054 0)
(-0.286759 0.0605879 1.85859e-27)
(-0.346546 0.0718371 2.18691e-29)
(-0.388201 0.0796048 8.11845e-29)
(-0.423871 0.0862132 -6.79414e-28)
(-0.454358 0.0917857 0)
(-0.469054 0.0946968 2.1571e-29)
(-0.49113 0.0984862 2.04783e-29)
(-0.501061 0.0999073 6.92435e-29)
(-0.49954 0.0990196 4.00131e-29)
(-0.498674 0.0988526 6.94997e-28)
(-0.492364 0.0973567 -9.82556e-28)
(-0.480435 0.0947656 0)
(-0.471085 0.0928924 1.88504e-29)
(-0.462911 0.0914703 1.89355e-29)
(-0.45924 0.0908016 -3.16748e-28)
(-0.452426 0.089709 -5.91106e-28)
(-0.455285 0.0906682 3.07267e-28)
(0.483201 -0.0940129 0)
(0.532789 -0.102902 9.11968e-28)
(0.553418 -0.106413 0)
(0.589685 -0.111823 1.21503e-27)
(0.618689 -0.116206 7.04498e-28)
(0.624441 -0.115958 7.31665e-28)
(0.62278 -0.114183 4.57683e-28)
(0.62385 -0.114317 -1.19896e-27)
(0.6116 -0.111258 8.66436e-28)
(0.593434 -0.106477 0)
(0.550126 -0.0970039 0)
(0.534462 -0.0939802 2.89946e-28)
(0.488956 -0.0854718 -8.127e-30)
(0.446055 -0.0767703 -1.07832e-29)
(0.384155 -0.0645913 0)
(0.358412 -0.0599624 -3.04913e-28)
(0.29415 -0.0487323 1.40837e-27)
(0.244945 -0.0392798 8.81816e-28)
(0.190634 -0.0295999 1.62824e-27)
(0.130011 -0.0184843 2.15667e-28)
(0.103723 -0.0137367 0)
(0.0416638 -0.00308377 -5.10453e-28)
(0.00291015 0.0035037 0)
(-0.0405193 0.0107272 -2.80371e-28)
(-0.0588165 0.0141083 6.65649e-29)
(-0.095085 0.0198391 3.32763e-29)
(-0.115785 0.0227161 -9.62805e-29)
(-0.122642 0.0229209 -2.22663e-28)
(-0.124594 0.0231385 0)
(-0.12645 0.0225316 1.79345e-28)
(-0.11073 0.0188605 0)
(-0.0933354 0.0149763 -3.25444e-29)
(-0.0542404 0.00671593 -3.25505e-29)
(-0.0341514 0.00312512 5.38016e-28)
(0.00815092 -0.0046771 0)
(0.0459136 -0.011571 -3.2776e-28)
(0.0920913 -0.0199053 0)
(0.113056 -0.0236524 -3.40594e-29)
(0.156778 -0.0309851 -2.61779e-28)
(0.188477 -0.0362275 1.27779e-28)
(0.208818 -0.0391974 3.14757e-29)
(0.220512 -0.0416076 3.61577e-29)
(0.223676 -0.0422605 -3.10306e-29)
(0.221796 -0.0411409 -2.67067e-28)
(0.214437 -0.0388605 0)
(0.178877 -0.031176 0)
(0.160893 -0.027754 -5.97076e-28)
(0.12586 -0.0209408 -3.5847e-28)
(0.0800937 -0.0117997 4.57479e-28)
(0.0364556 -0.00331747 -1.01572e-27)
(-0.0313542 0.0103834 -6.28586e-29)
(-0.0671821 0.0177997 1.75087e-27)
(-0.134648 0.0306418 -8.90276e-29)
(-0.189309 0.0415168 -1.40533e-28)
(-0.254153 0.0543697 -9.03356e-28)
(-0.287054 0.0609008 5.98165e-29)
(-0.346893 0.0721159 -2.18811e-29)
(-0.39003 0.0802213 -7.84823e-29)
(-0.424256 0.0864463 0)
(-0.454795 0.0919866 -5.1709e-28)
(-0.469566 0.0949055 2.15573e-29)
(-0.491873 0.0987127 2.04633e-29)
(-0.501666 0.100083 -1.32572e-27)
(-0.500071 0.0991301 -1.99862e-29)
(-0.4992 0.0989579 1.24109e-27)
(-0.492913 0.0974455 -8.70412e-28)
(-0.483328 0.0952701 -1.83747e-28)
(-0.471639 0.0929663 -1.88277e-29)
(-0.463459 0.0915559 0)
(-0.459783 0.0908874 -2.46214e-28)
(-0.453114 0.0898482 5.51337e-28)
(-0.456016 0.0908486 1.08675e-28)
(0.515056 -0.101666 0)
(0.565615 -0.110539 1.19097e-27)
(0.586284 -0.113919 3.25811e-30)
(0.622742 -0.11898 8.0196e-28)
(0.647226 -0.12203 -6.11608e-30)
(0.656238 -0.121931 -3.77144e-30)
(0.653091 -0.119455 5.51365e-28)
(0.653895 -0.119458 -1.40105e-27)
(0.638699 -0.115463 -5.46028e-30)
(0.619672 -0.110018 6.61235e-28)
(0.574104 -0.0998013 2.01725e-29)
(0.557748 -0.0966239 1.85609e-28)
(0.509738 -0.0874518 -1.62543e-29)
(0.464475 -0.0781017 8.58421e-28)
(0.400143 -0.065339 0)
(0.373659 -0.060574 -6.79013e-29)
(0.307129 -0.048935 1.23109e-27)
(0.254542 -0.0391462 0)
(0.19948 -0.0290837 5.96359e-28)
(0.136974 -0.0177662 -1.87714e-29)
(0.110143 -0.012954 -5.90983e-29)
(0.0464663 -0.0022446 3.37183e-34)
(0.00690314 0.00433028 -3.8421e-34)
(-0.0373981 0.0113848 -2.07758e-28)
(-0.0559417 0.0147863 -9.5903e-29)
(-0.092644 0.0202727 0)
(-0.113237 0.0227669 -5.10088e-29)
(-0.119782 0.0225581 -2.7599e-28)
(-0.121629 0.0226811 -1.69387e-28)
(-0.122889 0.0216034 -2.27448e-29)
(-0.106943 0.0176486 -2.91945e-29)
(-0.0877795 0.0130883 7.59874e-29)
(-0.0475552 0.00437674 3.24562e-29)
(-0.027159 0.000715798 4.26029e-28)
(0.0163943 -0.00743147 0)
(0.0553916 -0.0145764 3.23221e-29)
(0.102463 -0.0229917 -6.95226e-28)
(0.123603 -0.0267489 0)
(0.168061 -0.0340812 0)
(0.198448 -0.0387033 -7.04135e-30)
(0.220445 -0.0418453 -2.35697e-28)
(0.23162 -0.0438448 -2.16421e-28)
(0.234615 -0.0443997 3.09901e-29)
(0.231601 -0.0427551 3.16236e-29)
(0.222875 -0.0398645 3.209e-29)
(0.185454 -0.0315363 3.15904e-29)
(0.167076 -0.0280083 -8.77909e-28)
(0.130146 -0.0206271 -3.58604e-29)
(0.0821767 -0.0109888 0)
(0.0365591 -0.00181625 0)
(-0.03347 0.0123674 0)
(-0.0698971 0.0199457 -2.20856e-27)
(-0.139438 0.0331301 3.49756e-28)
(-0.195843 0.0443615 0)
(-0.262186 0.0574009 -1.41849e-27)
(-0.295366 0.0639486 -3.1946e-27)
(-0.356395 0.0752272 0)
(-0.399381 0.0830195 -5.2556e-28)
(-0.434928 0.089383 -5.29832e-28)
(-0.465546 0.0947018 -9.65844e-28)
(-0.480467 0.0976018 -2.154e-29)
(-0.502847 0.101195 1.35002e-27)
(-0.512371 0.102301 1.52534e-27)
(-0.510625 0.10114 -1.99714e-29)
(-0.509744 0.100943 3.34877e-29)
(-0.503495 0.0993249 5.41235e-34)
(-0.492539 0.0968631 -1.01807e-28)
(-0.482408 0.0948726 6.56587e-28)
(-0.474553 0.0936005 -1.88952e-29)
(-0.471101 0.0929912 -1.24172e-28)
(-0.465176 0.0922205 6.3305e-28)
(-0.469081 0.0936338 -1.42683e-28)
(0.518643 -0.102875 -4.02014e-30)
(0.568107 -0.111507 1.50522e-27)
(0.588744 -0.114805 0)
(0.625382 -0.119848 0)
(0.65595 -0.123969 -1.00346e-27)
(0.658737 -0.122514 7.52979e-30)
(0.655435 -0.119901 5.76189e-28)
(0.656255 -0.119921 -1.45475e-27)
(0.643123 -0.116182 0)
(0.622139 -0.110293 5.85179e-28)
(0.576283 -0.0999554 -6.52457e-30)
(0.559633 -0.0967396 -1.01744e-29)
(0.511788 -0.0875351 0)
(0.466683 -0.0781205 5.11959e-28)
(0.401729 -0.0652521 -2.30033e-29)
(0.375028 -0.0604596 -2.03223e-29)
(0.308392 -0.0488241 0)
(0.258082 -0.0390472 5.45421e-28)
(0.200712 -0.0289114 1.78019e-28)
(0.137902 -0.0175875 -4.14307e-28)
(0.110902 -0.0127561 -2.95442e-29)
(0.0475146 -0.00204649 0)
(0.00763508 0.00451222 3.45931e-29)
(-0.0368713 0.0114871 3.54544e-29)
(-0.0554958 0.0149253 -3.42904e-28)
(-0.0922103 0.0203466 -8.25821e-29)
(-0.112684 0.0227797 -3.84755e-34)
(-0.119413 0.0225234 -2.77432e-28)
(-0.121297 0.0226394 -1.42971e-28)
(-0.122554 0.0214793 2.37165e-29)
(-0.105303 0.0171422 2.33369e-29)
(-0.0874807 0.012897 -1.04644e-28)
(-0.0473183 0.00413087 -3.23567e-29)
(-0.0267528 0.000443086 -3.49437e-29)
(0.0170421 -0.00780512 4.24344e-28)
(0.0560164 -0.0149252 0)
(0.10286 -0.0232673 -2.46858e-27)
(0.124041 -0.0270347 0)
(0.168682 -0.034395 0)
(0.202149 -0.0396699 0)
(0.221152 -0.0420478 -7.63669e-28)
(0.232261 -0.0439882 -4.53005e-34)
(0.235284 -0.0445369 -3.09522e-29)
(0.232463 -0.0428688 -1.65603e-28)
(0.223553 -0.0398716 0)
(0.185966 -0.0314602 0)
(0.167571 -0.0279375 2.92435e-29)
(0.130601 -0.0205088 2.89786e-29)
(0.0830692 -0.0107796 -1.74996e-28)
(0.036959 -0.00156366 -3.26899e-29)
(-0.0332306 0.0125791 -3.14353e-29)
(-0.0698334 0.020225 -5.89563e-27)
(-0.139571 0.0334586 0)
(-0.195994 0.0446935 -2.8655e-29)
(-0.262325 0.0577026 -2.75986e-29)
(-0.295513 0.0642369 4.46705e-27)
(-0.356661 0.0755023 0)
(-0.400471 0.0835137 0)
(-0.435232 0.089603 -1.46017e-27)
(-0.465828 0.0948761 -1.53459e-27)
(-0.480783 0.0977766 -2.15267e-29)
(-0.503318 0.101372 1.79739e-27)
(-0.512741 0.102432 1.92099e-27)
(-0.510956 0.101211 -2.2377e-28)
(-0.510073 0.101004 -7.03657e-28)
(-0.503839 0.0993784 0)
(-0.49412 0.0971014 0)
(-0.482772 0.0949067 -5.26492e-29)
(-0.474924 0.0936519 0)
(-0.471479 0.0930476 -7.943e-30)
(-0.465671 0.092328 -6.45301e-28)
(-0.469657 0.0937888 -2.5061e-28)
(0.549627 -0.110151 -4.03381e-30)
(0.599973 -0.118753 4.97938e-35)
(0.620573 -0.121918 6.48014e-30)
(0.657151 -0.126652 0)
(0.681937 -0.129264 6.54497e-30)
(0.689286 -0.128192 1.05574e-27)
(0.684642 -0.125047 8.23547e-28)
(0.685056 -0.124926 -1.98841e-27)
(0.668463 -0.120167 -1.26476e-34)
(0.647117 -0.11377 -9.87529e-28)
(0.598884 -0.102731 -6.85204e-28)
(0.58145 -0.0993699 1.38631e-29)
(0.531433 -0.0895807 1.60252e-29)
(0.484295 -0.0795762 0)
(0.417276 -0.0662452 0)
(0.389928 -0.0613502 -2.00011e-29)
(0.321523 -0.0494045 -2.16926e-29)
(0.26767 -0.0390824 1.17047e-27)
(0.210555 -0.0288783 2.23994e-27)
(0.146266 -0.0174371 0)
(0.119019 -0.0126015 0)
(0.0541388 -0.00178441 0)
(0.013855 0.00469636 -5.54853e-28)
(-0.0310859 0.0114596 -4.0163e-34)
(-0.0496899 0.014869 -2.47736e-28)
(-0.0866169 0.0200558 -4.75307e-28)
(-0.106844 0.022146 -1.14581e-28)
(-0.11304 0.021496 7.03597e-29)
(-0.114695 0.0214969 -4.03387e-34)
(-0.115339 0.0199119 2.22407e-28)
(-0.098678 0.0154477 -3.64264e-29)
(-0.0786045 0.0105512 0)
(-0.0372373 0.00136227 -3.2355e-29)
(-0.0164149 -0.00237917 3.46066e-34)
(0.0278691 -0.0108307 1.25412e-29)
(0.0676666 -0.0181122 0)
(0.115473 -0.0265482 -3.89347e-28)
(0.136877 -0.0303389 -3.38848e-29)
(0.181747 -0.0376455 -3.41355e-29)
(0.212572 -0.0421489 -7.58408e-29)
(0.23399 -0.0447916 1.16144e-28)
(0.244557 -0.0464028 0)
(0.247326 -0.0468517 3.0876e-29)
(0.24325 -0.044681 -7.97385e-28)
(0.233066 -0.0411412 -6.39314e-29)
(0.194046 -0.0322279 6.95871e-28)
(0.175201 -0.0285984 3.72811e-28)
(0.136258 -0.020614 -2.88162e-29)
(0.0865041 -0.0103447 1.26229e-27)
(0.039138 -0.000667337 0)
(-0.0323959 0.0137167 -3.13217e-29)
(-0.0693119 0.0214702 -1.65704e-27)
(-0.140901 0.0350291 2.54472e-28)
(-0.198537 0.0465038 0)
(-0.265754 0.059583 -1.00014e-27)
(-0.299108 0.0661164 4.69839e-27)
(-0.361152 0.0774193 0)
(-0.404776 0.0851918 0)
(-0.440409 0.0913111 0)
(-0.470981 0.0963837 -1.50895e-27)
(-0.485973 0.0992536 -4.29678e-29)
(-0.508534 0.102666 -4.07928e-29)
(-0.517794 0.103521 0)
(-0.516018 0.102156 -6.56984e-28)
(-0.515153 0.101938 -1.06108e-27)
(-0.509016 0.100234 3.89322e-29)
(-0.498391 0.0977478 3.80369e-29)
(-0.488325 0.095822 -1.28824e-27)
(-0.480867 0.0947072 3.77136e-29)
(-0.47762 0.0941568 7.68414e-29)
(-0.472466 0.0936741 2.06058e-29)
(-0.477439 0.0955092 6.12894e-29)
(0.578574 -0.117201 -4.13252e-35)
(0.630003 -0.125809 -3.6825e-30)
(0.650604 -0.128818 1.08929e-27)
(0.687063 -0.133101 7.81879e-35)
(0.706538 -0.134319 1.17097e-27)
(0.718096 -0.133596 1.20705e-27)
(0.712295 -0.129795 1.07093e-27)
(0.712308 -0.129473 3.9296e-30)
(0.692263 -0.123708 0)
(0.670839 -0.116813 6.53713e-30)
(0.620705 -0.10511 -7.73314e-28)
(0.602745 -0.101651 -9.47934e-28)
(0.550686 -0.0912794 0)
(0.50173 -0.0807357 2.11427e-29)
(0.433311 -0.0670378 2.24094e-29)
(0.405453 -0.0620659 0)
(0.335585 -0.0498284 0)
(0.278001 -0.0390421 0)
(0.22192 -0.028883 -2.6398e-29)
(0.156562 -0.0173988 1.5784e-27)
(0.129049 -0.0125556 -2.89818e-29)
(0.0626539 -0.00169872 -3.00494e-29)
(0.0224325 0.00460699 -1.26762e-27)
(-0.0227872 0.0111081 0)
(-0.0413717 0.0144761 -7.3534e-28)
(-0.0785183 0.0193912 -9.36528e-28)
(-0.0987371 0.0211269 -8.15521e-28)
(-0.104257 0.02001 -3.50637e-29)
(-0.105686 0.0199107 -3.48774e-29)
(-0.10585 0.017895 -1.74174e-28)
(-0.0907259 0.0134621 -3.40684e-29)
(-0.0677839 0.00770006 6.34306e-28)
(-0.0254426 -0.00185767 9.21271e-29)
(-0.00454552 -0.0056198 -3.49856e-29)
(0.0399386 -0.0142074 5.42691e-28)
(0.0804091 -0.021641 6.30546e-29)
(0.129135 -0.0301624 9.2681e-28)
(0.150659 -0.0339415 6.43715e-28)
(0.195535 -0.0410953 1.1051e-27)
(0.223571 -0.0447956 -4.56291e-28)
(0.247448 -0.047719 0)
(0.257546 -0.048943 0)
(0.260051 -0.0492658 0)
(0.254739 -0.0465484 -5.81954e-28)
(0.243566 -0.0424827 -8.89339e-28)
(0.203462 -0.0331052 5.64863e-30)
(0.18412 -0.0293449 -3.85423e-28)
(0.143451 -0.0208123 0)
(0.0912983 -0.010038 1.39849e-27)
(0.0436309 -8.69144e-06 -3.23533e-29)
(-0.0288616 0.0145383 0)
(-0.066149 0.0224118 0)
(-0.139299 0.0362138 1.46666e-27)
(-0.197608 0.047815 1.10071e-27)
(-0.265495 0.0609063 2.67154e-28)
(-0.299068 0.0674462 1.89091e-28)
(-0.361782 0.0787159 -2.03427e-27)
(-0.405751 0.0862725 9.28452e-29)
(-0.441486 0.0922987 -1.32644e-33)
(-0.472077 0.097148 1.36974e-29)
(-0.487114 0.0999835 7.96131e-28)
(-0.509829 0.103211 0)
(-0.518927 0.10384 0)
(-0.517219 0.102326 1.04488e-27)
(-0.516387 0.102101 -1.00389e-28)
(-0.510409 0.100316 1.07503e-33)
(-0.499873 0.0978324 7.60115e-29)
(-0.490171 0.0959982 -2.37219e-28)
(-0.483095 0.0950259 0)
(-0.480021 0.0945295 0)
(-0.475503 0.0943008 9.20277e-28)
(-0.481318 0.0965138 0)
(0.583078 -0.118652 4.02083e-30)
(0.63312 -0.126909 3.6501e-30)
(0.653666 -0.129812 1.31767e-27)
(0.690336 -0.134008 7.41361e-30)
(0.71468 -0.13615 1.30351e-27)
(0.721187 -0.13436 1.3388e-27)
(0.715151 -0.13038 1.15735e-27)
(0.71517 -0.130035 -1.26035e-29)
(0.697068 -0.12443 3.21129e-27)
(0.673587 -0.117125 1.3547e-27)
(0.623134 -0.105325 -7.44904e-28)
(0.605079 -0.101896 2.00611e-29)
(0.553121 -0.0914177 1.57334e-29)
(0.504327 -0.0807731 0)
(0.435211 -0.0670476 1.50505e-27)
(0.407192 -0.0620766 0)
(0.337251 -0.0497888 0)
(0.282003 -0.0389083 -2.63813e-29)
(0.223477 -0.0288066 -3.22645e-30)
(0.158006 -0.0173628 2.88167e-27)
(0.130341 -0.012495 0)
(0.0644542 -0.00160563 -3.00375e-29)
(0.0237284 0.0046618 1.10686e-27)
(-0.0216504 0.0110694 3.49748e-29)
(-0.0402894 0.0144609 7.52918e-28)
(-0.0773986 0.0193241 -9.08314e-28)
(-0.0972263 0.0209559 -3.38453e-28)
(-0.103234 0.0198533 3.50269e-29)
(-0.104684 0.0197384 0)
(-0.104813 0.0176588 -1.84414e-28)
(-0.0876722 0.012645 8.98914e-29)
(-0.0666694 0.00733611 5.52012e-28)
(-0.0243896 -0.00222426 2.21682e-28)
(-0.00346015 -0.00598658 0)
(0.0412625 -0.0146677 0)
(0.0818511 -0.0221362 0)
(0.130291 -0.0305482 -3.12329e-29)
(0.15179 -0.0343073 3.98938e-28)
(0.196753 -0.0414563 4.7446e-29)
(0.227522 -0.0458075 0)
(0.248619 -0.0480042 -3.25903e-28)
(0.258595 -0.049156 1.60477e-28)
(0.261098 -0.0494627 3.07679e-29)
(0.256019 -0.0467245 0)
(0.244681 -0.0425707 -6.92512e-28)
(0.204378 -0.0331399 0)
(0.184894 -0.0293504 2.4062e-28)
(0.144164 -0.0207453 1.20956e-27)
(0.0929795 -0.00989055 1.20722e-27)
(0.0443159 0.000139474 -1.18754e-27)
(-0.0282244 0.0146042 6.248e-29)
(-0.0657378 0.0225699 0)
(-0.138851 0.0364214 5.15223e-29)
(-0.197155 0.0479897 7.50658e-28)
(-0.265141 0.0610562 -2.16365e-28)
(-0.298814 0.0676056 7.38682e-29)
(-0.361586 0.0788648 -1.45598e-27)
(-0.405429 0.086528 4.64354e-29)
(-0.441303 0.0923977 4.76562e-29)
(-0.471927 0.0972185 2.2254e-28)
(-0.487026 0.100065 1.19081e-27)
(-0.509762 0.10328 -4.07038e-29)
(-0.518855 0.103885 -4.02904e-29)
(-0.517175 0.102335 2.30103e-29)
(-0.516353 0.102103 3.23686e-27)
(-0.510381 0.100306 -1.64038e-27)
(-0.499886 0.0977576 3.79853e-29)
(-0.490186 0.0959775 4.75901e-28)
(-0.483141 0.0950176 3.76574e-29)
(-0.480086 0.0945298 -1.09517e-33)
(-0.475654 0.0943499 -1.01042e-27)
(-0.481663 0.0966327 -3.78741e-29)
(0.610213 -0.125996 4.01446e-30)
(0.661543 -0.134219 3.63158e-30)
(0.682121 -0.136937 -1.47156e-27)
(0.718661 -0.140522 -7.40136e-30)
(0.737899 -0.141059 7.56953e-35)
(0.748734 -0.139446 2.9995e-27)
(0.74177 -0.134687 1.30249e-27)
(0.741394 -0.134121 -1.44062e-27)
(0.71977 -0.127377 1.70733e-27)
(0.697195 -0.119508 0)
(0.645657 -0.107086 -8.0604e-28)
(0.627227 -0.10358 -6.76017e-30)
(0.573346 -0.0924651 0)
(0.523095 -0.0813012 0)
(0.453096 -0.0672196 1.59485e-27)
(0.424651 -0.0621954 0)
(0.35349 -0.049656 3.1934e-27)
(0.294477 -0.0386089 2.63439e-29)
(0.237633 -0.0284094 1.9932e-30)
(0.171196 -0.0170039 1.52884e-27)
(0.143212 -0.0121412 -2.89097e-29)
(0.0757443 -0.00137911 3.40807e-34)
(0.035272 0.00465096 4.03569e-29)
(-0.0104661 0.0107134 3.49334e-29)
(-0.0292133 0.0140402 1.58424e-27)
(-0.0666701 0.0185262 -3.82338e-34)
(-0.0868086 0.0196927 -4.65285e-28)
(-0.0922002 0.0180079 -4.54125e-28)
(-0.0935728 0.0177813 0)
(-0.0934467 0.0151717 0)
(-0.0784201 0.0102403 4.08112e-29)
(-0.0545508 0.0038529 4.825e-28)
(-0.0117476 -0.00607251 0)
(0.00921832 -0.00987145 3.49161e-29)
(0.0540985 -0.0186792 3.56113e-28)
(0.0952158 -0.026306 0)
(0.144342 -0.0347375 0)
(0.165886 -0.0384543 0)
(0.210923 -0.0454008 -8.50732e-28)