/*--------------------------------*- C++ -*----------------------------------*\
| =========                 |                                                 |
| \\      /  F ield         | OpenFOAM: The Open Source CFD Toolbox           |
|  \\    /   O peration     | Version:  v2012                                 |
|   \\  /    A nd           | Website:  www.openfoam.com                      |
|    \\/     M anipulation  |                                                 |
\*---------------------------------------------------------------------------*/
FoamFile
{
    version     2.0;
    format      ascii;
    class       volSymmTensorField;
    location    "1e-06";
    object      UPrime2Mean;
}
// * * * * * * * * * * * * * * * * * * * * * * * * * * * * * * * * * * * * * //

dimensions      [0 2 -2 0 0 0 0];


internalField   nonuniform List<symmTensor> 
10203
(
(0.00012238 -2.26022e-05 0 4.17438e-06 0 0)
(0.000121637 -2.24404e-05 -1.27013e-30 4.13995e-06 2.3423e-31 1.95945e-56)
(0.000102544 -1.88157e-05 1.27759e-31 3.45245e-06 -2.34441e-32 3.11102e-58)
(0.000103852 -1.90645e-05 7.41604e-31 3.49974e-06 -1.36128e-31 7.84865e-57)
(0.000118157 -2.17385e-05 0 3.99942e-06 0 0)
(0.000109738 -2.03005e-05 2.35624e-31 3.75543e-06 -4.3611e-32 9.83403e-58)
(0.000109479 -2.01342e-05 1.51695e-31 3.70285e-06 -2.78876e-32 4.03837e-58)
(0.000117605 -2.14813e-05 1.65018e-31 3.92367e-06 -3.01533e-32 4.46519e-58)
(0.000115143 -2.11044e-05 1.88151e-31 3.8682e-06 -3.44767e-32 5.7302e-58)
(0.000100306 -1.8437e-05 -1.546e-30 3.38886e-06 2.84077e-31 3.57228e-56)
(9.95743e-05 -1.83067e-05 0 3.36571e-06 0 0)
(0.000121286 -2.22048e-05 0 4.0652e-06 0 0)
(0.000118494 -2.16157e-05 0 3.94312e-06 0 0)
(9.01168e-05 -1.64286e-05 0 2.99498e-06 0 0)
(8.99528e-05 -1.64499e-05 0 3.00823e-06 0 0)
(0.000121012 -2.21083e-05 -3.38004e-31 4.03909e-06 6.17521e-32 1.64529e-57)
(0.000116553 -2.11824e-05 9.23266e-30 3.84971e-06 -1.67834e-30 1.09943e-54)
(9.95614e-05 -1.80975e-05 -6.96829e-30 3.28964e-06 1.26697e-30 7.17599e-55)
(8.66561e-05 -1.57741e-05 -6.19575e-30 2.87139e-06 1.12795e-30 6.49896e-55)
(8.64434e-05 -1.58001e-05 -7.83214e-31 2.88795e-06 1.43128e-31 1.13825e-56)
(0.000116924 -2.1357e-05 2.79238e-30 3.90101e-06 -5.10085e-31 1.01561e-55)
(0.000113086 -2.0583e-05 -6.00547e-30 3.74635e-06 1.09343e-30 4.84855e-55)
(8.21806e-05 -1.49144e-05 0 2.70673e-06 0 0)
(8.056e-05 -1.47123e-05 5.52563e-30 2.68684e-06 -1.00959e-30 6.13224e-55)
(0.000105943 -1.93247e-05 1.87386e-30 3.52501e-06 -3.41727e-31 3.41599e-56)
(0.000101947 -1.8629e-05 -1.28842e-30 3.40417e-06 2.36525e-31 5.71404e-56)
(8.6294e-05 -1.57337e-05 7.78926e-31 2.86869e-06 -1.42038e-31 1.14932e-56)
(8.92207e-05 -1.62076e-05 4.07596e-31 2.94424e-06 -7.39832e-32 3.05192e-57)
(9.12455e-05 -1.66799e-05 1.56465e-30 3.04914e-06 -2.86002e-31 4.19106e-56)
(8.96284e-05 -1.64406e-05 7.90709e-31 3.01572e-06 -1.45107e-31 1.14495e-56)
(8.75133e-05 -1.6024e-05 7.83546e-31 2.93404e-06 -1.43442e-31 1.14887e-56)
(0.000101383 -1.83997e-05 4.06796e-31 3.33933e-06 -7.38121e-32 2.71463e-57)
(0.000104252 -1.87244e-05 1.2314e-30 3.36305e-06 -2.21349e-31 2.6712e-56)
(7.77044e-05 -1.4001e-05 -3.74758e-31 2.52277e-06 6.74553e-32 2.9366e-57)
(7.73556e-05 -1.39643e-05 -6.88547e-31 2.52085e-06 1.24331e-31 1.00008e-56)
(0.000103034 -1.85771e-05 -6.26674e-30 3.34944e-06 1.12965e-30 5.90177e-55)
(0.000102918 -1.85289e-05 -3.90146e-36 3.33586e-06 7.02313e-37 2.5047e-67)
(8.1865e-05 -1.47362e-05 -7.48195e-31 2.6526e-06 1.34662e-31 1.1212e-56)
(8.19429e-05 -1.47807e-05 3.86528e-36 2.66612e-06 -6.96996e-37 3.00157e-67)
(9.2262e-05 -1.66358e-05 -3.26374e-30 2.99962e-06 5.88407e-31 1.75153e-55)
(8.89668e-05 -1.60196e-05 -2.8947e-30 2.88452e-06 5.21165e-31 1.48258e-55)
(8.92173e-05 -1.66376e-05 3.56908e-31 3.10264e-06 -6.65442e-32 2.39849e-57)
(8.57293e-05 -1.60153e-05 -6.37314e-31 2.99186e-06 1.19038e-31 7.94074e-57)
(8.26591e-05 -1.54487e-05 6.4692e-31 2.88731e-06 -1.20885e-31 7.04594e-57)
(7.87453e-05 -1.47046e-05 -3.43889e-31 2.74589e-06 6.42068e-32 2.51103e-57)
(7.65047e-05 -1.4298e-05 -2.02291e-31 2.67216e-06 3.77933e-32 1.55301e-57)
(8.87449e-05 -1.65832e-05 -3.91136e-31 3.0988e-06 7.30726e-32 3.64487e-57)
(8.69982e-05 -1.62369e-05 -4.21547e-30 3.03037e-06 7.86676e-31 3.23289e-55)
(7.70563e-05 -1.43672e-05 -5.6908e-30 2.67879e-06 1.06092e-30 6.56863e-55)
(5.86588e-05 -1.08646e-05 2.32621e-31 2.01235e-06 -4.30942e-32 1.56846e-57)
(5.60608e-05 -1.11437e-05 3.75519e-30 2.21512e-06 -7.46215e-31 4.18538e-55)
(8.36091e-05 -1.66126e-05 4.27655e-31 3.30092e-06 -8.20746e-32 1.49107e-55)
(7.65309e-05 -1.52021e-05 -4.01739e-30 3.01983e-06 8.02417e-31 6.57574e-55)
(5.04441e-05 -9.98816e-06 -2.28674e-31 1.97771e-06 4.52634e-32 1.90237e-57)
(5.15898e-05 -1.02338e-05 2.22785e-30 2.03007e-06 -4.41744e-31 1.53834e-55)
(7.20094e-05 -1.43197e-05 6.35105e-36 2.84759e-06 -1.2624e-36 1.09881e-66)
(6.91184e-05 -1.37282e-05 6.15111e-30 2.7267e-06 -1.22114e-30 8.29163e-55)
(5.55197e-05 -1.09978e-05 -7.35465e-30 2.17854e-06 1.45564e-30 1.7402e-54)
(5.292e-05 -1.04341e-05 0 2.0573e-06 0 0)
(5.06492e-05 -1.00597e-05 1.70142e-31 1.99803e-06 -3.37591e-32 1.33537e-57)
(5.4196e-05 -1.08026e-05 1.59927e-31 2.15325e-06 -3.18577e-32 1.1728e-57)
(5.21846e-05 -1.03733e-05 2.96569e-31 2.06202e-06 -5.858e-32 6.59851e-56)
(4.96403e-05 -9.81045e-06 -3.32073e-30 1.93889e-06 6.55508e-31 2.37559e-55)
(5.13047e-05 -1.01584e-05 0 2.01142e-06 0 0)
(5.23235e-05 -1.0421e-05 -4.83766e-31 2.07551e-06 9.62173e-32 1.56124e-55)
(5.65546e-05 -1.12951e-05 4.49919e-31 2.25588e-06 -9.00949e-32 1.50797e-56)
(6.22049e-05 -1.23785e-05 1.94684e-31 2.46329e-06 -3.90458e-32 1.01663e-55)
(7.04362e-05 -1.39831e-05 -6.4596e-36 2.77596e-06 1.27798e-36 2.86258e-66)
(7.95932e-05 -1.58353e-05 -2.40814e-31 3.15047e-06 4.78697e-32 3.669e-57)
(9.09205e-05 -1.81648e-05 -7.86262e-31 3.62918e-06 1.58316e-31 3.40653e-56)
(0.000112644 -2.24903e-05 -4.05295e-30 4.49047e-06 8.1141e-31 2.83089e-55)
(0.000148736 -2.96177e-05 8.63922e-30 5.89778e-06 -1.73141e-30 5.81783e-54)
(0.000111738 -2.06616e-05 4.46009e-30 3.82059e-06 -8.24478e-31 2.61603e-55)
(0.000112092 -2.0687e-05 -1.39085e-30 3.81787e-06 2.56524e-31 2.67843e-56)
(9.43302e-05 -1.73198e-05 1.76679e-30 3.18006e-06 -3.24287e-31 4.7414e-56)
(9.34219e-05 -1.72003e-05 0 3.16685e-06 0 0)
(0.000106059 -1.95143e-05 0 3.59053e-06 0 0)
(9.9098e-05 -1.82892e-05 -9.11205e-32 3.3754e-06 1.68287e-32 1.58725e-58)
(0.00010054 -1.84757e-05 1.98589e-30 3.39518e-06 -3.6478e-31 5.70487e-56)
(0.000106447 -1.94423e-05 5.91696e-30 3.55109e-06 -1.08044e-30 4.85547e-55)
(0.000102619 -1.87062e-05 0 3.40995e-06 0 0)
(9.01463e-05 -1.64127e-05 -4.58713e-30 2.98825e-06 8.35081e-31 3.34253e-55)
(9.12238e-05 -1.67243e-05 -1.44315e-30 3.06611e-06 2.64516e-31 3.20239e-56)
(0.000111842 -2.04192e-05 0 3.72797e-06 0 0)
(0.000108635 -1.96781e-05 0 3.56453e-06 0 0)
(8.2499e-05 -1.49168e-05 0 2.69721e-06 0 0)
(8.38161e-05 -1.52892e-05 0 2.78898e-06 0 0)
(0.00011449 -2.08494e-05 -2.19828e-29 3.79684e-06 4.00317e-30 6.3782e-54)
(0.000110574 -1.99445e-05 2.06986e-29 3.59753e-06 -3.73462e-30 5.72702e-54)
(9.483e-05 -1.72066e-05 3.87567e-31 3.1221e-06 -7.03342e-32 2.59376e-57)
(8.30287e-05 -1.50085e-05 -1.50766e-29 2.71303e-06 2.72561e-30 3.97637e-54)
(8.33659e-05 -1.51904e-05 4.21033e-31 2.76789e-06 -7.66906e-32 3.39258e-57)
(0.000114166 -2.07937e-05 0 3.7873e-06 0 0)
(0.000111899 -2.02846e-05 1.33954e-29 3.67717e-06 -2.42968e-30 2.43582e-54)
(8.13968e-05 -1.47097e-05 4.33276e-36 2.65832e-06 -7.81081e-37 3.70069e-67)
(7.96853e-05 -1.45449e-05 6.67235e-30 2.65494e-06 -1.21991e-30 9.33959e-55)
(0.000105441 -1.91483e-05 -5.64771e-30 3.47753e-06 1.0238e-30 3.21514e-55)
(0.000102862 -1.87496e-05 4.19287e-31 3.41784e-06 -7.68199e-32 2.82989e-57)
(8.76819e-05 -1.59836e-05 4.20364e-30 2.91367e-06 -7.663e-31 2.99857e-55)
(8.99313e-05 -1.63393e-05 -4.07725e-31 2.96862e-06 7.39965e-32 3.03569e-57)
(9.13973e-05 -1.66975e-05 -4.11841e-31 3.05048e-06 7.5227e-32 3.05199e-57)
(9.06618e-05 -1.66042e-05 -2.34087e-30 3.04097e-06 4.28831e-31 8.56343e-56)
(8.89366e-05 -1.63003e-05 -3.93681e-31 2.98753e-06 7.21234e-32 2.86293e-57)
(0.000101858 -1.85634e-05 0 3.38315e-06 0 0)
(0.00010352 -1.86218e-05 -8.17072e-31 3.3498e-06 1.47124e-31 1.07437e-56)
(7.70494e-05 -1.39577e-05 -3.72694e-31 2.52858e-06 6.72797e-32 2.92602e-57)
(7.67271e-05 -1.38214e-05 3.30886e-31 2.48978e-06 -5.97008e-32 2.32655e-57)
(0.000101641 -1.8369e-05 -1.73365e-29 3.31975e-06 3.13147e-30 4.63689e-54)
(0.000100583 -1.81461e-05 0 3.27375e-06 0 0)
(7.94321e-05 -1.43231e-05 0 2.58273e-06 0 0)
(7.92235e-05 -1.43302e-05 0 2.5921e-06 0 0)
(8.91034e-05 -1.60701e-05 -8.22083e-30 2.89829e-06 1.48218e-30 1.18819e-54)
(8.55801e-05 -1.54333e-05 3.57283e-31 2.78319e-06 -6.43914e-32 2.47739e-57)
(8.58002e-05 -1.60043e-05 0 2.98528e-06 0 0)
(8.2344e-05 -1.53801e-05 1.26133e-30 2.87266e-06 -2.35439e-31 4.02086e-56)
(7.93532e-05 -1.48111e-05 3.60926e-32 2.76448e-06 -6.73355e-33 2.73045e-59)
(7.56831e-05 -1.40912e-05 3.37569e-31 2.62361e-06 -6.28376e-32 2.50176e-57)
(7.38631e-05 -1.37896e-05 9.82991e-31 2.57439e-06 -1.83464e-31 1.64993e-56)
(8.61057e-05 -1.60634e-05 3.31157e-31 2.99671e-06 -6.17549e-32 2.19345e-57)
(8.48857e-05 -1.57771e-05 -9.54032e-30 2.93237e-06 1.77289e-30 1.63783e-54)
(7.56413e-05 -1.40803e-05 0 2.62099e-06 0 0)
(5.76085e-05 -1.06166e-05 1.88531e-29 1.95661e-06 -3.47129e-30 9.28847e-54)
(5.38341e-05 -1.07578e-05 2.7692e-31 2.14975e-06 -5.52749e-32 2.44516e-57)
(8.34523e-05 -1.64036e-05 4.33452e-31 3.22464e-06 -5.92061e-32 2.50106e-54)
(7.76807e-05 -1.53908e-05 -9.05365e-30 3.04964e-06 1.81216e-30 3.03042e-54)
(5.15791e-05 -1.01848e-05 -2.30191e-31 2.01112e-06 4.54087e-32 1.89074e-57)
(5.27116e-05 -1.04343e-05 5.83234e-30 2.0655e-06 -1.15319e-30 1.03796e-54)
(7.37112e-05 -1.46182e-05 2.30746e-31 2.89904e-06 -4.57193e-32 1.4222e-57)
(7.20718e-05 -1.42467e-05 -8.86727e-31 2.81623e-06 1.74965e-31 2.20801e-56)
(5.87279e-05 -1.16222e-05 -1.59861e-29 2.30004e-06 3.15732e-30 7.59166e-54)
(5.56547e-05 -1.09658e-05 0 2.16069e-06 0 0)
(5.27098e-05 -1.04636e-05 -7.13437e-30 2.07718e-06 1.41355e-30 1.66175e-54)
(5.71379e-05 -1.13731e-05 9.03262e-36 2.26377e-06 -1.79322e-36 3.5407e-66)
(5.60307e-05 -1.11304e-05 1.4689e-30 2.21107e-06 -2.87423e-31 7.11327e-55)
(5.306e-05 -1.0522e-05 0 2.08664e-06 0 0)
(5.38982e-05 -1.07084e-05 0 2.12758e-06 0 0)
(5.46077e-05 -1.08993e-05 -4.91559e-31 2.17543e-06 9.77011e-32 1.65379e-56)
(5.95802e-05 -1.19272e-05 0 2.38769e-06 0 0)
(6.5554e-05 -1.30945e-05 0 2.61565e-06 0 0)
(7.3341e-05 -1.46298e-05 0 2.91835e-06 0 0)
(8.17146e-05 -1.63307e-05 3.33943e-30 3.26369e-06 -6.68292e-31 5.08102e-55)
(9.35211e-05 -1.8756e-05 4.17598e-30 3.76164e-06 -8.45447e-31 2.10679e-54)
(0.000116268 -2.33568e-05 3.32732e-31 4.6923e-06 -6.76769e-32 4.05998e-57)
(0.000152611 -3.06592e-05 9.90996e-30 6.15964e-06 -2.04208e-30 9.68389e-54)
(0.000125121 -2.3094e-05 9.20191e-31 4.26258e-06 -1.69695e-31 1.10763e-56)
(0.000125846 -2.31643e-05 3.68151e-30 4.26385e-06 -6.76799e-31 1.59272e-55)
(0.000105986 -1.94851e-05 3.97685e-32 3.58225e-06 -7.29882e-33 2.95688e-59)
(0.000105708 -1.95401e-05 0 3.61209e-06 0 0)
(0.000117465 -2.15467e-05 -4.62706e-30 3.95236e-06 8.48411e-31 2.73655e-55)
(0.000112131 -2.04883e-05 -4.86772e-30 3.74357e-06 8.89181e-31 3.10813e-55)
(0.000112118 -2.05741e-05 6.66392e-30 3.77543e-06 -1.22211e-30 5.75267e-55)
(0.000118702 -2.17608e-05 1.35985e-29 3.98926e-06 -2.492e-30 2.37885e-54)
(0.000113943 -2.07929e-05 -1.84812e-31 3.79443e-06 3.36573e-32 5.58702e-58)
(9.98444e-05 -1.80685e-05 -2.04835e-31 3.26998e-06 3.71103e-32 7.42772e-58)
(9.93452e-05 -1.81559e-05 3.55036e-31 3.3181e-06 -6.48661e-32 2.21903e-57)
(0.000120997 -2.20086e-05 2.30009e-31 4.00326e-06 -4.18468e-32 7.94186e-58)
(0.000116817 -2.10583e-05 0 3.79624e-06 0 0)
(8.79406e-05 -1.5817e-05 -1.43196e-29 2.84506e-06 2.57712e-30 3.39617e-54)
(8.76969e-05 -1.59408e-05 2.7732e-31 2.89758e-06 -5.04055e-32 1.44486e-57)
(0.00011876 -2.15579e-05 -8.12462e-30 3.91333e-06 1.47541e-30 8.31161e-55)
(0.000113644 -2.04324e-05 3.13256e-31 3.67378e-06 -5.6407e-32 1.47598e-57)
(9.59523e-05 -1.74337e-05 1.63281e-29 3.16756e-06 -2.96695e-30 4.13738e-54)
(8.31475e-05 -1.49677e-05 -1.40458e-29 2.69459e-06 2.5298e-30 3.43562e-54)
(8.26201e-05 -1.50004e-05 6.23014e-30 2.72347e-06 -1.13101e-30 6.66779e-55)
(0.000112934 -2.04902e-05 6.42048e-30 3.71771e-06 -1.1658e-30 5.58305e-55)
(0.00010925 -1.97806e-05 1.16103e-29 3.58155e-06 -2.10474e-30 1.90631e-54)
(7.84297e-05 -1.42104e-05 -3.73247e-31 2.57479e-06 6.73822e-32 2.8404e-57)
(7.66119e-05 -1.39199e-05 -3.76035e-31 2.52931e-06 6.84997e-32 2.96529e-57)
(0.000101815 -1.84325e-05 4.37756e-31 3.33716e-06 -7.88346e-32 3.09501e-57)
(9.84755e-05 -1.78632e-05 3.77442e-30 3.24055e-06 -6.88425e-31 3.18972e-55)
(8.33045e-05 -1.52198e-05 3.89083e-31 2.78066e-06 -7.10834e-32 2.95565e-57)
(8.58178e-05 -1.56608e-05 3.99176e-31 2.85791e-06 -7.28271e-32 3.02549e-57)
(8.77854e-05 -1.60325e-05 -9.13272e-31 2.92808e-06 1.66756e-31 1.17122e-56)
(8.69709e-05 -1.58508e-05 3.96198e-31 2.88888e-06 -7.21561e-32 2.94872e-57)
(8.55402e-05 -1.56602e-05 0 2.86699e-06 0 0)
(9.84867e-05 -1.80422e-05 0 3.3053e-06 0 0)
(0.000101231 -1.82381e-05 -3.69887e-30 3.28583e-06 6.66528e-31 2.19495e-55)
(7.52137e-05 -1.36859e-05 1.36206e-30 2.49045e-06 -2.47563e-31 4.91017e-56)
(7.5391e-05 -1.35181e-05 -6.32369e-30 2.42396e-06 1.13171e-30 9.24779e-55)
(0.000100976 -1.82458e-05 3.90456e-36 3.29696e-06 -7.04602e-37 2.54531e-67)
(0.000100708 -1.82026e-05 -3.74858e-36 3.29008e-06 6.76644e-37 2.35416e-67)
(7.96672e-05 -1.43857e-05 -3.68468e-31 2.59768e-06 6.64379e-32 2.78284e-57)
(7.98361e-05 -1.44561e-05 3.70094e-31 2.61766e-06 -6.68976e-32 2.81257e-57)
(8.97365e-05 -1.61668e-05 5.7948e-30 2.91257e-06 -1.04325e-30 6.2352e-55)
(8.68109e-05 -1.56439e-05 -3.58832e-31 2.81916e-06 6.45939e-32 2.46994e-57)
(8.70227e-05 -1.62203e-05 -5.30248e-30 3.02334e-06 9.87351e-31 5.61335e-55)
(8.34542e-05 -1.55824e-05 3.46341e-31 2.90953e-06 -6.46132e-32 2.39845e-57)
(8.01556e-05 -1.49662e-05 -5.83625e-30 2.79439e-06 1.08928e-30 6.03605e-55)
(7.61544e-05 -1.41688e-05 -3.37972e-31 2.63618e-06 6.28565e-32 2.49485e-57)
(7.37651e-05 -1.37679e-05 -6.37879e-31 2.56973e-06 1.18954e-31 9.20456e-57)
(8.58953e-05 -1.601e-05 -2.58228e-30 2.98411e-06 4.80882e-31 1.46171e-55)
(8.40489e-05 -1.55988e-05 3.22516e-31 2.89504e-06 -5.98474e-32 2.14064e-57)
(7.42063e-05 -1.38416e-05 -4.93045e-36 2.58187e-06 9.18833e-37 5.62453e-67)
(5.5821e-05 -1.02646e-05 -2.12738e-29 1.8876e-06 3.90756e-30 1.22308e-53)
(5.55749e-05 -1.13034e-05 -3.11365e-29 2.29917e-06 6.32248e-30 2.84429e-53)
(8.04499e-05 -1.5783e-05 1.2055e-29 3.09667e-06 -2.33185e-30 5.40053e-54)
(7.40152e-05 -1.46383e-05 0 2.89541e-06 0 0)
(4.82748e-05 -9.55072e-06 4.468e-31 1.88956e-06 -8.82641e-32 7.56396e-57)
(4.91321e-05 -9.74282e-06 1.30825e-30 1.932e-06 -2.59424e-31 4.68491e-56)
(6.9266e-05 -1.37214e-05 0 2.71818e-06 0 0)
(6.69969e-05 -1.3196e-05 -1.43278e-29 2.59922e-06 2.82201e-30 3.9756e-54)
(5.41472e-05 -1.07425e-05 1.19641e-29 2.13128e-06 -2.36793e-30 4.19848e-54)
(5.09466e-05 -1.01061e-05 3.60051e-31 2.00475e-06 -7.10944e-32 5.5811e-57)
(4.84737e-05 -9.63743e-06 1.04569e-30 1.91613e-06 -2.06959e-31 5.2759e-56)
(5.24667e-05 -1.04285e-05 3.13876e-31 2.07284e-06 -6.20822e-32 4.6727e-57)
(5.10734e-05 -1.01535e-05 2.82516e-31 2.01861e-06 -5.57506e-32 4.23038e-57)
(4.83781e-05 -9.66598e-06 2.5439e-31 1.93132e-06 -5.04584e-32 4.06231e-57)
(4.96354e-05 -9.91767e-06 0 1.98171e-06 0 0)
(5.06242e-05 -1.01202e-05 -1.57467e-30 2.02319e-06 3.34672e-31 7.34482e-54)
(5.53017e-05 -1.10523e-05 2.21391e-31 2.20892e-06 -4.38758e-32 3.75463e-57)
(6.1608e-05 -1.23531e-05 0 2.47698e-06 0 0)
(6.88703e-05 -1.38367e-05 0 2.77993e-06 0 0)
(7.7519e-05 -1.55766e-05 6.00158e-30 3.12993e-06 -1.20731e-30 1.49822e-54)
(8.89296e-05 -1.78885e-05 -7.26632e-36 3.59835e-06 1.46822e-36 2.99811e-66)
(0.000110536 -2.23411e-05 -3.19736e-31 4.51585e-06 6.56751e-32 4.04927e-57)
(0.000145532 -2.95636e-05 0 6.00664e-06 0 0)
(0.000109063 -1.97947e-05 -5.27494e-30 3.59281e-06 9.57942e-31 3.72954e-55)
(0.000108506 -1.96593e-05 9.84907e-30 3.56201e-06 -1.78439e-30 1.29581e-54)
(9.05022e-05 -1.63557e-05 -1.0148e-29 2.95603e-06 1.83384e-30 1.62973e-54)
(9.00599e-05 -1.64646e-05 7.11066e-30 3.01003e-06 -1.29911e-30 8.06978e-55)
(0.000104604 -1.91007e-05 -7.83046e-30 3.48781e-06 1.42945e-30 8.6351e-55)
(9.5691e-05 -1.74546e-05 -7.48959e-30 3.18384e-06 1.36522e-30 8.46137e-55)
(9.6013e-05 -1.77325e-05 -4.21694e-30 3.27508e-06 7.77648e-31 2.65258e-55)
(0.000102196 -1.88248e-05 1.39925e-29 3.46759e-06 -2.57461e-30 2.85931e-54)
(9.99092e-05 -1.84693e-05 -1.75308e-31 3.41431e-06 3.23326e-32 5.55715e-58)
(8.71241e-05 -1.60075e-05 0 2.9411e-06 0 0)
(8.77571e-05 -1.63553e-05 -1.17994e-30 3.0486e-06 2.193e-31 2.74711e-56)
(0.000108047 -2.00096e-05 -2.20042e-31 3.70586e-06 4.06237e-32 7.93272e-58)
(0.000106073 -1.94867e-05 0 3.57994e-06 0 0)
(8.05781e-05 -1.48296e-05 3.21894e-31 2.72932e-06 -5.91055e-32 2.09489e-57)
(8.15177e-05 -1.52299e-05 -1.53518e-30 2.84607e-06 2.86483e-31 4.78051e-56)
(0.000111538 -2.07383e-05 0 3.85623e-06 0 0)
(0.000108557 -1.99547e-05 0 3.66806e-06 0 0)
(9.36334e-05 -1.7302e-05 -3.33104e-31 3.19732e-06 6.14037e-32 1.93646e-57)
(8.1885e-05 -1.51167e-05 -7.04595e-31 2.79082e-06 1.29758e-31 9.65228e-57)
(8.23996e-05 -1.53436e-05 -3.627e-31 2.85757e-06 6.72998e-32 2.54268e-57)
(0.000112899 -2.09109e-05 -1.8483e-30 3.87319e-06 3.42198e-31 4.41674e-56)
(0.000110505 -2.03568e-05 4.04445e-31 3.75006e-06 -7.44557e-32 2.4624e-57)
(8.0517e-05 -1.49216e-05 3.77559e-31 2.76568e-06 -6.95268e-32 2.84311e-57)
(7.95461e-05 -1.46037e-05 0 2.68115e-06 0 0)
(0.000105396 -1.93633e-05 -1.17969e-30 3.55786e-06 2.1247e-31 1.23288e-55)
(0.000102517 -1.87248e-05 0 3.42011e-06 0 0)
(8.71258e-05 -1.60184e-05 0 2.94511e-06 0 0)
(8.96961e-05 -1.63783e-05 -3.66295e-30 2.99064e-06 6.68602e-31 2.22435e-55)
(9.1635e-05 -1.67572e-05 4.08251e-31 3.06437e-06 -7.45904e-32 2.99334e-57)
(9.07355e-05 -1.64955e-05 4.02526e-31 2.99884e-06 -7.31056e-32 2.93921e-57)
(8.82538e-05 -1.60881e-05 0 2.93275e-06 0 0)
(0.00010162 -1.84413e-05 0 3.34658e-06 0 0)
(0.000103347 -1.83353e-05 9.45688e-30 3.25317e-06 -1.68009e-30 1.30954e-54)
(7.67191e-05 -1.37504e-05 5.2583e-30 2.46465e-06 -9.48033e-31 7.05836e-55)
(7.63368e-05 -1.34785e-05 1.24225e-30 2.38007e-06 -2.13091e-31 2.40586e-55)
(0.000101307 -1.80201e-05 4.06587e-30 3.2054e-06 -7.23123e-31 3.60413e-55)
(0.000100218 -1.78632e-05 -3.88407e-31 3.18409e-06 6.92456e-32 2.53856e-57)
(7.90644e-05 -1.40605e-05 9.00482e-30 2.50055e-06 -1.60112e-30 1.37807e-54)
(7.87326e-05 -1.40762e-05 3.67284e-31 2.51663e-06 -6.56124e-32 2.80302e-57)
(8.87837e-05 -1.59058e-05 2.73064e-30 2.84957e-06 -4.88779e-31 1.7972e-55)
(8.49079e-05 -1.51845e-05 3.55055e-31 2.71556e-06 -6.34599e-32 2.46328e-57)
(8.49718e-05 -1.57967e-05 -8.10908e-30 2.9367e-06 1.50525e-30 1.53964e-54)
(8.13676e-05 -1.51621e-05 -3.42221e-31 2.82533e-06 6.3707e-32 2.39129e-57)
(7.8375e-05 -1.46791e-05 7.04523e-31 2.74929e-06 -1.31804e-31 1.05109e-56)
(7.47026e-05 -1.39817e-05 0 2.6169e-06 0 0)
(7.28832e-05 -1.37386e-05 1.02385e-29 2.58982e-06 -1.92625e-30 2.38675e-54)
(8.50109e-05 -1.60004e-05 -2.02592e-29 3.01158e-06 3.80733e-30 7.97176e-54)
(8.39082e-05 -1.57634e-05 0 2.96142e-06 0 0)
(7.49226e-05 -1.41659e-05 8.02576e-30 2.67851e-06 -1.51338e-30 1.34876e-54)
(5.73524e-05 -1.06759e-05 -3.2052e-29 1.98731e-06 5.95418e-30 2.59949e-53)
(5.39219e-05 -1.1024e-05 5.32991e-31 2.25406e-06 -1.08569e-31 9.04686e-57)
(8.32763e-05 -1.66807e-05 -3.0253e-29 3.34185e-06 5.99232e-30 2.28493e-53)
(7.75229e-05 -1.5555e-05 -5.44117e-31 3.12119e-06 1.0964e-31 6.9958e-57)
(5.15746e-05 -1.03958e-05 0 2.09554e-06 0 0)
(5.28827e-05 -1.06888e-05 0 2.16063e-06 0 0)
(7.39879e-05 -1.48966e-05 0 2.99936e-06 0 0)
(7.22041e-05 -1.44064e-05 1.43264e-29 2.87447e-06 -2.83762e-30 1.13375e-53)
(5.85198e-05 -1.17343e-05 2.38819e-30 2.35303e-06 -4.78913e-31 3.54484e-55)
(5.59859e-05 -1.12101e-05 3.77204e-31 2.24469e-06 -7.51077e-32 5.58779e-57)
(5.34037e-05 -1.07124e-05 -2.26701e-30 2.14889e-06 4.45959e-31 4.25978e-54)
(5.76909e-05 -1.15637e-05 -3.29349e-31 2.3179e-06 6.56348e-32 4.66599e-57)
(5.62159e-05 -1.122e-05 -2.97336e-31 2.2395e-06 5.8798e-32 4.22269e-57)
(5.33189e-05 -1.06605e-05 0 2.13156e-06 0 0)
(5.45069e-05 -1.08644e-05 0 2.16569e-06 0 0)
(5.53712e-05 -1.10583e-05 -2.49187e-30 2.20867e-06 5.18861e-31 2.76982e-54)
(6.00725e-05 -1.20113e-05 2.35398e-31 2.40184e-06 -4.6394e-32 3.74765e-57)
(6.54335e-05 -1.31342e-05 0 2.63648e-06 0 0)
(7.3733e-05 -1.48179e-05 0 2.97802e-06 0 0)
(8.23642e-05 -1.65905e-05 0 3.34185e-06 0 0)
(9.37979e-05 -1.89605e-05 0 3.83276e-06 0 0)
(0.000115807 -2.35774e-05 -4.17865e-30 4.80087e-06 9.0524e-31 7.3376e-54)
(0.000151583 -3.10875e-05 0 6.37776e-06 0 0)
(0.000115197 -2.10737e-05 -5.9459e-30 3.85514e-06 1.08723e-30 4.51504e-55)
(0.000115199 -2.09785e-05 -1.06015e-31 3.82037e-06 1.92893e-32 2.1078e-58)
(9.64847e-05 -1.75241e-05 -1.20917e-31 3.18289e-06 2.19508e-32 2.93576e-58)
(9.62748e-05 -1.76558e-05 8.93949e-30 3.23793e-06 -1.6373e-30 1.19931e-54)
(0.000110069 -2.01376e-05 1.33348e-31 3.68427e-06 -2.43735e-32 3.20049e-58)
(0.000102239 -1.86681e-05 -9.74554e-30 3.40871e-06 1.77759e-30 1.34732e-54)
(0.000102551 -1.88071e-05 -1.30949e-29 3.44911e-06 2.39784e-30 2.36649e-54)
(0.000109037 -1.99029e-05 9.86003e-30 3.63296e-06 -1.79807e-30 1.31944e-54)
(0.000105804 -1.93618e-05 0 3.54316e-06 0 0)
(9.21831e-05 -1.67331e-05 9.65411e-30 3.03752e-06 -1.75125e-30 1.47142e-54)
(9.21805e-05 -1.7037e-05 0 3.14903e-06 0 0)
(0.000113198 -2.07683e-05 -4.23902e-30 3.81037e-06 7.76515e-31 2.31025e-55)
(0.000110279 -1.99861e-05 -2.42933e-31 3.62215e-06 4.39928e-32 9.39692e-58)
(8.31768e-05 -1.50776e-05 -3.38377e-31 2.73318e-06 6.1287e-32 2.25734e-57)
(8.35176e-05 -1.54235e-05 3.66078e-30 2.84861e-06 -6.74698e-31 2.12741e-55)
(0.000114053 -2.09667e-05 -2.94103e-31 3.85443e-06 5.39547e-32 1.30808e-57)
(0.000110105 -1.99247e-05 0 3.60567e-06 0 0)
(9.4058e-05 -1.72203e-05 0 3.15275e-06 0 0)
(8.16797e-05 -1.48691e-05 1.42988e-29 2.70682e-06 -2.60034e-30 3.62549e-54)
(8.16713e-05 -1.50385e-05 -3.9566e-36 2.76925e-06 7.26659e-37 3.04699e-67)
(0.00011199 -2.05152e-05 -3.94705e-31 3.75815e-06 7.22354e-32 2.32513e-57)
(0.000109017 -1.98973e-05 0 3.63158e-06 0 0)
(7.88231e-05 -1.44806e-05 -3.72558e-31 2.66031e-06 6.82252e-32 2.81896e-57)
(7.75061e-05 -1.40867e-05 4.1747e-36 2.56035e-06 -7.57028e-37 3.61438e-67)
(0.000102953 -1.88087e-05 4.16611e-31 3.43645e-06 -7.56814e-32 2.77839e-57)
(9.99754e-05 -1.81036e-05 -4.09602e-31 3.27826e-06 7.4275e-32 2.76394e-57)
(8.47451e-05 -1.5534e-05 -3.72817e-30 2.84745e-06 6.83072e-31 2.49295e-55)
(8.71924e-05 -1.58942e-05 4.58857e-31 2.89733e-06 -8.36069e-32 3.94696e-57)
(8.90858e-05 -1.62715e-05 2.70015e-30 2.97198e-06 -4.92818e-31 1.10487e-55)
(8.81931e-05 -1.60466e-05 -3.96704e-31 2.91966e-06 7.20611e-32 2.92323e-57)
(8.63121e-05 -1.57699e-05 4.64556e-36 2.88128e-06 -8.47837e-37 4.08782e-67)
(9.92022e-05 -1.81277e-05 -1.47792e-30 3.31261e-06 2.69767e-31 4.15017e-56)
(0.000101422 -1.80546e-05 1.41733e-29 3.21411e-06 -2.52442e-30 2.87743e-54)
(7.51771e-05 -1.35531e-05 -3.3016e-30 2.44382e-06 6.07913e-31 5.78553e-55)
(7.50434e-05 -1.33567e-05 2.7101e-30 2.37815e-06 -4.59485e-31 8.12687e-55)
(0.000100182 -1.79375e-05 1.58332e-30 3.21172e-06 -2.83205e-31 4.21229e-56)
(9.957e-05 -1.78663e-05 5.29647e-30 3.20586e-06 -9.49861e-31 3.73053e-55)
(7.8624e-05 -1.40764e-05 1.11466e-29 2.52019e-06 -1.99419e-30 1.93618e-54)
(7.85749e-05 -1.41407e-05 0 2.54487e-06 0 0)
(8.8767e-05 -1.59454e-05 3.03464e-30 2.8643e-06 -5.44222e-31 2.25101e-55)
(8.51661e-05 -1.52836e-05 -1.2159e-30 2.74275e-06 2.1728e-31 8.3762e-56)
(8.53118e-05 -1.58787e-05 -7.48779e-31 2.95544e-06 1.39121e-31 1.09589e-56)
(8.17778e-05 -1.52459e-05 -3.23154e-30 2.84233e-06 6.02128e-31 1.61532e-55)
(7.87801e-05 -1.47151e-05 5.03619e-30 2.74861e-06 -9.39742e-31 4.35493e-55)
(7.50069e-05 -1.39786e-05 -6.69207e-31 2.60513e-06 1.24561e-31 9.90842e-57)
(7.28715e-05 -1.36846e-05 -6.47506e-31 2.56988e-06 1.21295e-31 9.58404e-57)
(8.49912e-05 -1.5929e-05 -6.98696e-31 2.98543e-06 1.30711e-31 9.87265e-57)
(8.35742e-05 -1.5595e-05 6.41163e-31 2.91007e-06 -1.19462e-31 8.50334e-57)
(7.42855e-05 -1.39715e-05 -4.1635e-32 2.62778e-06 7.81e-33 4.01085e-59)
(5.63771e-05 -1.04301e-05 -2.01695e-29 1.92969e-06 3.7214e-30 1.04112e-53)
(5.3913e-05 -1.08808e-05 0 2.19605e-06 0 0)
(8.17787e-05 -1.62022e-05 -2.59182e-29 3.21037e-06 5.07999e-30 1.76081e-53)
(7.56017e-05 -1.50129e-05 0 2.98137e-06 0 0)
(4.97071e-05 -9.92176e-06 0 1.98046e-06 0 0)
(5.07583e-05 -1.01952e-05 0 2.04785e-06 0 0)
(7.13866e-05 -1.4286e-05 2.10495e-29 2.85896e-06 -4.20094e-30 1.27826e-53)
(6.93874e-05 -1.37347e-05 1.9444e-31 2.71882e-06 -2.72051e-32 1.07543e-54)
(5.60811e-05 -1.11981e-05 -7.51139e-30 2.23607e-06 1.49738e-30 1.42559e-54)
(5.3226e-05 -1.06112e-05 -7.26866e-30 2.11558e-06 1.44846e-30 1.50134e-54)
(5.0675e-05 -1.01502e-05 1.48084e-30 2.03317e-06 -3.0275e-31 1.0484e-54)
(5.48077e-05 -1.09728e-05 3.20239e-31 2.19692e-06 -6.35986e-32 4.6485e-57)
(5.33816e-05 -1.06498e-05 0 2.1249e-06 0 0)
(5.05767e-05 -1.01313e-05 2.85227e-30 2.02965e-06 -5.39077e-31 6.3495e-54)
(5.1807e-05 -1.03796e-05 2.46746e-31 2.07979e-06 -4.86938e-32 3.9239e-57)
(5.27422e-05 -1.05936e-05 0 2.12802e-06 0 0)
(5.74117e-05 -1.15544e-05 0 2.32561e-06 0 0)
(6.32443e-05 -1.2766e-05 0 2.57701e-06 0 0)
(7.1023e-05 -1.4347e-05 0 2.89832e-06 0 0)
(7.95529e-05 -1.61235e-05 0 3.26788e-06 0 0)
(9.07707e-05 -1.84705e-05 0 3.75854e-06 0 0)
(0.00011227 -2.30466e-05 7.58613e-31 4.73221e-06 -1.60232e-31 2.22288e-56)
(0.000147142 -3.04628e-05 4.28023e-31 6.31014e-06 -9.18117e-32 4.38768e-57)
(0.000126818 -2.3561e-05 0 4.37755e-06 0 0)
(0.000127669 -2.355e-05 1.49336e-29 4.34422e-06 -2.74665e-30 2.61089e-54)
(0.000107513 -1.97819e-05 0 3.63986e-06 0 0)
(0.000106939 -1.98276e-05 1.04038e-29 3.67657e-06 -1.92349e-30 1.4858e-54)
(0.000117515 -2.153e-05 -1.35924e-31 3.94453e-06 2.48572e-32 3.17348e-58)
(0.000112956 -2.05727e-05 1.33286e-29 3.74695e-06 -2.42474e-30 2.32973e-54)
(0.000112793 -2.06174e-05 9.57558e-30 3.76865e-06 -1.7472e-30 1.17781e-54)
(0.00011947 -2.17641e-05 -1.24735e-29 3.96485e-06 2.27089e-30 1.96632e-54)
(0.000114191 -2.07014e-05 1.8261e-29 3.75295e-06 -3.30813e-30 4.37316e-54)
(0.000100219 -1.78904e-05 1.29851e-29 3.19436e-06 -2.31986e-30 2.46397e-54)
(9.95445e-05 -1.80868e-05 -2.20086e-36 3.28632e-06 3.99493e-37 8.48147e-68)
(0.000121493 -2.19045e-05 1.05727e-31 3.94936e-06 -1.90785e-32 1.67485e-58)
(0.000117305 -2.08148e-05 2.47046e-31 3.69405e-06 -4.39468e-32 9.26695e-58)
(8.81534e-05 -1.5589e-05 -2.16696e-29 2.75767e-06 3.83659e-30 7.65809e-54)
(8.79253e-05 -1.58509e-05 0 2.85762e-06 0 0)
(0.000119334 -2.14416e-05 2.97701e-31 3.85276e-06 -5.35744e-32 1.29335e-57)
(0.000114407 -2.01852e-05 -3.48231e-36 3.56235e-06 6.16501e-37 1.80521e-67)
(9.62037e-05 -1.73305e-05 2.23117e-29 3.12208e-06 -4.02067e-30 7.64599e-54)
(8.39153e-05 -1.48771e-05 3.85999e-29 2.63827e-06 -6.8519e-30 2.55345e-53)
(8.34041e-05 -1.50051e-05 0 2.69964e-06 0 0)
(0.000113983 -2.04343e-05 0 3.66377e-06 0 0)
(0.000110268 -1.97851e-05 -1.53487e-29 3.55049e-06 2.76268e-30 3.39035e-54)
(7.9546e-05 -1.4324e-05 0 2.57978e-06 0 0)
(7.79807e-05 -1.39525e-05 0 2.49666e-06 0 0)
(0.00010357 -1.86975e-05 4.16286e-31 3.37554e-06 -7.49042e-32 2.76073e-57)
(0.000100532 -1.79575e-05 4.09193e-31 3.20796e-06 -7.31967e-32 2.74592e-57)
(8.52299e-05 -1.5539e-05 -5.1445e-30 2.83304e-06 9.37835e-31 4.636e-55)
(8.77646e-05 -1.59489e-05 -1.27879e-30 2.89833e-06 2.32327e-31 3.04962e-56)
(8.96616e-05 -1.63586e-05 3.82712e-30 2.98462e-06 -6.97629e-31 2.22965e-55)
(8.88433e-05 -1.61876e-05 -9.18308e-36 2.94947e-06 1.66914e-36 1.55519e-66)
(8.65328e-05 -1.58695e-05 -7.71619e-31 2.91039e-06 1.41224e-31 1.12593e-56)
(0.000100271 -1.85157e-05 -4.90232e-30 3.41929e-06 9.03427e-31 3.87908e-55)
(0.000103058 -1.85143e-05 4.52388e-30 3.32609e-06 -8.11992e-31 2.67687e-55)
(7.64842e-05 -1.39949e-05 1.12975e-30 2.56137e-06 -2.09171e-31 2.71406e-56)
(7.66343e-05 -1.37972e-05 7.29699e-31 2.48637e-06 -1.28628e-31 1.13311e-56)
(0.000102489 -1.85772e-05 -1.73916e-29 3.36744e-06 3.14247e-30 5.14798e-54)
(0.000102161 -1.85532e-05 -7.9431e-31 3.36952e-06 1.43757e-31 5.61218e-56)
(8.08168e-05 -1.4657e-05 2.14377e-30 2.65832e-06 -3.88132e-31 7.07847e-56)
(8.07705e-05 -1.47185e-05 -6.73075e-30 2.68239e-06 1.22144e-30 1.11434e-54)
(9.00488e-05 -1.62561e-05 6.42473e-30 2.93466e-06 -1.15722e-30 8.69959e-55)
(8.74606e-05 -1.57816e-05 -3.88919e-30 2.84769e-06 6.99369e-31 4.18289e-55)
(8.75333e-05 -1.63214e-05 1.06721e-29 3.0433e-06 -1.98403e-30 2.74882e-54)
(8.39418e-05 -1.56682e-05 -2.17406e-30 2.92458e-06 4.05762e-31 7.45439e-56)
(8.06166e-05 -1.50392e-05 -7.54785e-30 2.8056e-06 1.4063e-30 9.82604e-55)
(7.65164e-05 -1.41861e-05 -6.73185e-31 2.63018e-06 1.24694e-31 9.86271e-57)
(7.3978e-05 -1.37922e-05 0 2.57138e-06 0 0)
(8.61782e-05 -1.6028e-05 5.57645e-30 2.98105e-06 -1.03479e-30 6.96868e-55)
(8.42515e-05 -1.55611e-05 6.41283e-31 2.8743e-06 -1.18383e-31 8.45104e-57)
(7.4374e-05 -1.38724e-05 1.32689e-30 2.58752e-06 -2.46981e-31 4.07144e-56)
(5.61221e-05 -1.0272e-05 -2.36755e-29 1.88037e-06 4.3202e-30 1.43827e-53)
(5.34243e-05 -1.0654e-05 0 2.12471e-06 0 0)
(8.11618e-05 -1.58775e-05 2.06181e-29 3.10642e-06 -3.99223e-30 1.1841e-53)
(7.46883e-05 -1.46018e-05 -5.32669e-31 2.85517e-06 1.04489e-31 6.91699e-57)
(4.8739e-05 -9.57642e-06 6.74782e-30 1.88185e-06 -1.32429e-30 1.36448e-54)
(4.95463e-05 -9.83084e-06 0 1.95067e-06 0 0)
(6.98482e-05 -1.3823e-05 3.09008e-29 2.73568e-06 -6.08882e-30 3.15919e-53)
(6.76982e-05 -1.32292e-05 4.13377e-31 2.58563e-06 -8.02374e-32 5.07377e-57)
(5.47847e-05 -1.08622e-05 1.30671e-30 2.1538e-06 -2.57103e-31 6.48463e-56)
(5.15826e-05 -1.02123e-05 -9.47991e-30 2.02209e-06 1.87883e-30 2.51051e-54)
(4.90678e-05 -9.79079e-06 0 1.95378e-06 0 0)
(5.3112e-05 -1.06029e-05 3.14526e-31 2.11688e-06 -6.21257e-32 4.63253e-57)
(5.17591e-05 -1.03159e-05 2.83517e-31 2.05641e-06 -5.5582e-32 4.19315e-57)