/*--------------------------------*- C++ -*----------------------------------*\
| =========                 |                                                 |
| \\      /  F ield         | OpenFOAM: The Open Source CFD Toolbox           |
|  \\    /   O peration     | Version:  v2012                                 |
|   \\  /    A nd           | Website:  www.openfoam.com                      |
|    \\/     M anipulation  |                                                 |
\*---------------------------------------------------------------------------*/
FoamFile
{
    version     2.0;
    format      ascii;
    class       volScalarField;
    location    "1e-06";
    object      yPlus;
}
// * * * * * * * * * * * * * * * * * * * * * * * * * * * * * * * * * * * * * //

dimensions      [0 0 0 0 0 0 0];


internalField   uniform 0;

boundaryField
{
    inlet
    {
        type            calculated;
        value           nonuniform List<scalar> 0();
    }
    outlet
    {
        type            calculated;
        value           nonuniform List<scalar> 0();
    }
    front
    {
        type            empty;
    }
    back
    {
        type            empty;
    }
    hub
    {
        type            calculated;
        value           nonuniform List<scalar> 
72
(
1.64737
1.73122
1.78113
1.88909
1.95682
1.97798
1.96913
2.00237
2.0296
2.0208
1.94387
1.91762
1.87958
1.83659
1.7167
1.64136
1.53037
1.44787
1.33904
1.17929
1.05587
0.808785
0.659531
0.394215
0.219774
0.627359
0.762361
0.77515
0.766741
0.837503
0.800543
0.757346
0.502983
0.233837
0.459051
0.658946
0.903688
1.03165
1.18762
1.28036
1.3546
1.39713
1.42027
1.44555
1.45196
1.37402
1.30874
1.22178
1.10188
0.998236
0.734064
0.312533
0.696281
0.907752
1.12318
1.27681
1.50422
1.64418
1.6998
1.74515
1.83283
1.94366
1.97304
1.94169
1.93356
1.97089
1.97931
1.93121
1.87378
1.89107
1.91292
1.91446
)
;
    }
    tip
    {
        type            calculated;
        value           nonuniform List<scalar> 
65
(
71.9528
72.4285
72.9602
73.086
73.6057
73.0559
73.7103
73.0813
73.375
73.671
74.609
75.1441
75.3513
75.483
75.5602
75.6741
75.7477
75.7398
74.9596
75.5278
74.9143
75.1668
75.6014
76.2361
76.5955
76.8526
77.3297
77.0863
78.3385
78.9563
79.387
79.9934
80.7084
81.7109
82.2963
83.2784
83.6008
84.9602
85.7994
86.4159
87.0962
87.6919
88.0049
88.3382
88.4333
87.8001
88.0435
87.344
87.409
86.7566
86.4055
85.7327
85.4143
84.5779
83.2275
83.5948
83.1851
83.0746
82.8334
83.1009
83.5512
83.8569
84.2645
84.1065
85.3734
)
;
    }
    procBoundary7to5
    {
        type            processor;
        value           uniform 0;
    }
    procBoundary7to6
    {
        type            processor;
        value           uniform 0;
    }
    procBoundary7to8
    {
        type            processor;
        value           uniform 0;
    }
    procBoundary7to9
    {
        type            processor;
        value           uniform 0;
    }
}


// ************************************************************************* //
