/*--------------------------------*- C++ -*----------------------------------*\
| =========                 |                                                 |
| \\      /  F ield         | OpenFOAM: The Open Source CFD Toolbox           |
|  \\    /   O peration     | Version:  v2012                                 |
|   \\  /    A nd           | Website:  www.openfoam.com                      |
|    \\/     M anipulation  |                                                 |
\*---------------------------------------------------------------------------*/
FoamFile
{
    version     2.0;
    format      ascii;
    class       volScalarField;
    location    "1e-06";
    object      k;
}
// * * * * * * * * * * * * * * * * * * * * * * * * * * * * * * * * * * * * * //

dimensions      [0 2 -2 0 0 0 0];


internalField   nonuniform List<scalar> 
10123
(
0.699463
0.690864
0.685592
0.681914
0.68033
0.671591
0.65939
0.661754
0.65582
0.635654
0.636515
0.583238
0.618206
0.608229
0.610176
0.600396
0.576257
0.580512
0.517256
0.558645
0.549068
0.552416
0.542922
0.518213
0.522864
0.456568
0.505673
0.493369
0.500147
0.495855
0.473204
0.474302
0.476544
0.468659
0.447399
0.460862
0.460861
0.448332
0.441465
0.453135
0.452635
0.435037
0.438393
0.445618
0.435906
0.413831
0.424865
0.360185
0.421985
0.410946
0.426174
0.433233
0.418281
0.414228
0.428235
0.429495
0.413127
0.414906
0.427209
0.422477
0.403872
0.409631
0.414847
0.406325
0.385956
0.394805
0.383688
0.382372
0.360395
0.371242
0.304972
0.355298
0.339596
0.344203
0.322927
0.321607
0.307894
0.313186
0.303835
0.295176
0.282565
0.286079
0.277006
0.269403
0.258131
0.264363
0.253322
0.255688
0.244793
0.252245
0.206518
0.248426
0.236819
0.245421
0.243801
0.241641
0.228706
0.23481
0.239693
0.234114
0.222515
0.226691
0.234613
0.231844
0.22086
0.222511
0.231926
0.231284
0.220391
0.218477
0.22547
0.220898
0.204714
0.197965
0.200722
0.199361
0.185071
0.174395
0.177053
0.172374
0.165741
0.152013
0.155488
0.158204
0.153569
0.14353
0.143333
0.147007
0.76761
0.754584
0.760884
0.758422
0.745917
0.74915
0.745482
0.738553
0.733219
0.72604
0.723337
0.70909
0.708418
0.705066
0.693441
0.688001
0.678451
0.674996
0.662497
0.65719
0.653965
0.640897
0.635596
0.626708
0.623119
0.613528
0.607143
0.604387
0.593541
0.58814
0.582002
0.579029
0.560421
0.567575
0.562692
0.558872
0.548422
0.552502
0.550705
0.543948
0.54505
0.543619
0.541514
0.52829
0.533413
0.528211
0.524687
0.526337
0.524262
0.523469
0.520904
0.521578
0.523289
0.522081
0.518026
0.520693
0.520066
0.518439
0.511737
0.515061
0.511701
0.509279
0.494365
0.499628
0.493964
0.490776
0.463634
0.47494
0.466887
0.462963
0.456481
0.445106
0.442668
0.430933
0.406241
0.408293
0.406053
0.395092
0.376317
0.37653
0.374062
0.362111
0.344201
0.344776
0.343114
0.335373
0.320134
0.325721
0.32462
0.31949
0.319079
0.314551
0.312807
0.311036
0.298089
0.305098
0.302003
0.300145
0.29186
0.296441
0.295348
0.294063
0.290038
0.29358
0.293041
0.292106
0.290089
0.291345
0.290806
0.289936
0.285691
0.277908
0.270853
0.269045
0.260219
0.251689
0.246051
0.244412
0.235709
0.21773
0.22071
0.214711
0.212361
0.20358
0.202015
0.198505
0.19555
0.190547
0.882071
0.861704
0.881507
0.8792
0.862376
0.874147
0.872043
0.864888
0.860278
0.858704
0.855237
0.813376
0.844249
0.841535
0.828864
0.82546
0.819076
0.814839
0.77491
0.799461
0.796572
0.7822
0.778033
0.771167
0.767024
0.722
0.751784
0.749298
0.737434
0.730953
0.72679
0.723634
0.70031
0.71146
0.706738
0.702431
0.685436
0.695638
0.693842
0.685708
0.686177
0.685407
0.683145
0.666067
0.675602
0.671639
0.668101
0.639197
0.667034
0.666243
0.662937
0.66053
0.66467
0.663414
0.658215
0.660128
0.659817
0.658069
0.648976
0.652819
0.649266
0.646719
0.6279
0.635525
0.629066
0.625674
0.590257
0.607748
0.598366
0.594138
0.552052
0.572729
0.569989
0.556649
0.521684
0.531035
0.528318
0.515102
0.487054
0.491885
0.48886
0.474237
0.447543
0.452289
0.450199
0.440483
0.41529
0.426812
0.425378
0.418656
0.390379
0.411125
0.408689
0.406815
0.387782
0.39915
0.395758
0.393889
0.383394
0.390135
0.3893
0.388107
0.38358
0.387873
0.387429
0.386549
0.384291
0.385321
0.384667
0.383741
0.379248
0.369464
0.361517
0.35936
0.349464
0.336542
0.332481
0.330315
0.320399
0.297735
0.301898
0.293969
0.291468
0.280564
0.277073
0.2712
0.197547
0.260572
0.897549
0.909058
0.896888
0.894307
0.893709
0.891261
0.887252
0.883101
0.884658
0.874592
0.871745
0.86413
0.861191
0.857543
0.84982
0.846246
0.835331
0.831887
0.823142
0.81634
0.812719
0.803147
0.798311
0.787238
0.783687
0.775616
0.768396
0.764999
0.755813
0.75304
0.742331
0.739261
0.73384
0.727911
0.721664
0.718377
0.724197
0.710698
0.70846
0.703536
0.704617
0.699833
0.697664
0.695199
0.690964
0.685616
0.682702
0.694064
0.681383
0.679991
0.67802
0.684088
0.678604
0.677102
0.674631
0.677105
0.673477
0.671693
0.668496
0.667831
0.662633
0.660199
0.655239
0.649485
0.641971
0.638806
0.635033
0.620727
0.610492
0.606546
0.597659
0.584564
0.581297
0.568085
0.56577
0.541692
0.538513
0.525341
0.523075
0.501191
0.49776
0.483079
0.480407
0.460275
0.457831
0.448143
0.450058
0.433935
0.432152
0.425522
0.423127
0.417765
0.414965
0.413206
0.415462
0.405522
0.401757
0.399953
0.397173
0.396544
0.395313
0.394157
0.392538
0.394568
0.39354
0.39263
0.391605
0.392511
0.390807
0.389807
0.385817
0.377772
0.367239
0.364944
0.35511
0.352309
0.337674
0.335313
0.32531
0.317254
0.306527
0.2982
0.295651
0.286187
0.281219
0.274742
0.271605
0.264214
1.03589
1.03417
1.03842
1.03574
1.02727
1.03391
1.03095
1.02537
1.02525
1.02016
1.01673
1.00923
1.00711
1.0037
0.993249
0.990569
0.981826
0.977692
0.968093
0.962136
0.958524
0.946017
0.94165
0.931973
0.927895
0.917873
0.911531
0.908132
0.896947
0.892036
0.883583
0.880197
0.865578
0.867226
0.860731
0.856829
0.851294
0.848318
0.845937
0.83886
0.839324
0.835541
0.833151
0.823326
0.82619
0.821445
0.818373
0.817215
0.816334
0.814827
0.811897
0.813545
0.812004
0.810361
0.806187
0.808088
0.80513
0.803179
0.796384
0.797435
0.792016
0.789418
0.777175
0.776973
0.768592
0.765207
0.747771
0.744856
0.733268
0.729054
0.716686
0.70376
0.700022
0.685196
0.667486
0.65536
0.651628
0.636436
0.620284
0.608116
0.604068
0.587068
0.571178
0.56
0.557045
0.545614
0.533936
0.527923
0.525709
0.517773
0.512571
0.507727
0.504137
0.502317
0.494861
0.492962
0.488638
0.486803
0.479924
0.482826
0.481499
0.480379
0.477359
0.480607
0.479541
0.478628
0.476978
0.477802
0.476016
0.474908
0.470389
0.460235
0.449189
0.446519
0.435485
0.426596
0.415284
0.412425
0.401166
0.385228
0.379126
0.369069
0.366302
0.35447
0.34844
0.340139
0.337836
0.327287
1.17001
1.15546
1.17436
1.17166
1.15484
1.16957
1.16786
1.16026
1.15723
1.15734
1.15321
1.12389
1.14353
1.14047
1.12671
1.12416
1.11776
1.11278
1.08441
1.0966
1.0931
1.07716
1.07274
1.06477
1.05999
1.02785
1.04223
1.03899
1.02542
1.01787
1.01222
1.00847
0.984888
0.993582
0.987107
0.98236
0.966233
0.973057
0.970622
0.961053
0.960697
0.958476
0.955807
0.938677
0.94808
0.943955
0.940467
0.92079
0.937725
0.936251
0.932099
0.928934
0.931934
0.930196
0.924002
0.925188
0.923388
0.921241
0.910631
0.913462
0.908143
0.905286
0.885903
0.891028
0.882109
0.878374
0.847668
0.855839
0.843234
0.838581
0.806431
0.810354
0.806346
0.789887
0.758562
0.756946
0.752869
0.735759
0.70749
0.703876
0.699417
0.680293
0.65275
0.649544
0.646252
0.633146
0.609455
0.612502
0.610023
0.600798
0.579821
0.588774
0.584593
0.582594
0.565697
0.571777
0.56706
0.565073
0.553888
0.560402
0.559056
0.557882
0.553105
0.557698
0.556738
0.555775
0.553238
0.553993
0.552377
0.55117
0.545931
0.533587
0.522605
0.519641
0.507369
0.492193
0.48474
0.481531
0.469028
0.445371
0.444097
0.43262
0.429586
0.41531
0.408606
0.398906
0.396301
0.383902
1.19805
1.20969
1.20197
1.1988
1.19925
1.1992
1.19465
1.19097
1.19444
1.18469
1.18116
1.17413
1.17183
1.16741
1.15939
1.15645
1.1445
1.14046
1.14007
1.12376
1.11925
1.10865
1.10335
1.09032
1.08616
1.07494
1.0681
1.06367
1.05308
1.04924
1.03632
1.03264
1.02546
1.01852
1.01006
1.00653
1.00927
0.996015
0.992994
0.986978
0.987211
0.9804
0.977826
0.974547
0.971029
0.965192
0.962431
0.968687
0.959335
0.957103
0.954488
0.959629
0.952913
0.950848
0.947683
0.949458
0.943907
0.941705
0.937293
0.935474
0.928178
0.92546
0.919033
0.911706
0.901457
0.897999
0.890061
0.875216
0.861512
0.857204
0.842516
0.828226
0.823526
0.807188
0.797244
0.77315
0.768461
0.751368
0.741887
0.718241
0.713237
0.694002
0.684178
0.662068
0.658289
0.645179
0.63989
0.623742
0.620804
0.611639
0.604599
0.599247
0.594547
0.592709
0.592277
0.581806
0.576539
0.574665
0.57124
0.570354
0.568485
0.567345
0.565775
0.567905
0.56621
0.565214
0.564084
0.564718
0.561848
0.560542
0.555893
0.545449
0.531527
0.528372
0.516158
0.510224
0.492919
0.489437
0.476806
0.465286
0.451427
0.439384
0.436283
0.423552
0.41515
0.404635
0.401921
0.389668
1.32492
1.32531
1.32983
1.32659
1.31824
1.32597
1.3226
1.3165
1.31669
1.31197
1.30787
1.30577
1.29783
1.29372
1.28194
1.27909
1.26938
1.26453
1.2598
1.24689
1.24249
1.22808
1.22283
1.21151
1.20673
1.19939
1.18714
1.18288
1.16968
1.16322
1.15327
1.14921
1.1328
1.13315
1.12478
1.1203
1.1126
1.1091
1.10604
1.09726
1.09681
1.09173
1.08885
1.07774
1.08108
1.0758
1.07253
1.07369
1.06872
1.06656
1.06255
1.06273
1.06082
1.05867
1.05322
1.05439
1.05015
1.04774
1.03912
1.03949
1.03242
1.02942
1.01537
1.01395
1.00334
0.999497
0.980753
0.974799
0.960316
0.955548
0.942738
0.924108
0.919241
0.901415
0.88037
0.864823
0.859913
0.841112
0.820327
0.805092
0.799808
0.77872
0.757778
0.74373
0.739712
0.725056
0.709277
0.701136
0.69802
0.687672
0.681401
0.673547
0.668354
0.666294
0.65697
0.654083
0.648484
0.646398
0.637866
0.641265
0.639373
0.638133
0.634349
0.638106
0.636545
0.635477
0.633232
0.633885
0.631283
0.629886
0.624424
0.611945
0.598437
0.595043
0.581661
0.569134
0.556378
0.552635
0.538871
0.519552
0.510996
0.497758
0.49439
0.479097
0.470462
0.458823
0.455828
0.441868
1.35936
1.3839
1.36352
1.35978
1.36865
1.36173
1.35518
1.35363
1.35999
1.345
1.34162
1.35772
1.33175
1.32614
1.32083
1.31707
1.30134
1.29757
1.31133
1.27919
1.27365
1.26527
1.25862
1.2418
1.23776
1.24815
1.21765
1.21204
1.2023
1.19929
1.18162
1.17765
1.17733
1.16232
1.15168
1.14864
1.15878
1.13593
1.1322
1.12752
1.12734
1.11728
1.11452
1.11745
1.10772
1.1005
1.09809
1.11639
1.09381
1.09078
1.08857
1.09698
1.08513
1.08261
1.08066
1.0822
1.07389
1.07144
1.06972
1.06486
1.05558
1.05275
1.05182
1.03783
1.02572
1.02222
1.02286
0.997226
0.981497
0.977155
0.97966
0.944862
0.939194
0.921544
0.919834
0.883692
0.87807
0.859334
0.856038
0.821881
0.815958
0.794791
0.790498
0.758414
0.753821
0.739188
0.740454
0.714317
0.710661
0.700374
0.706706
0.6858
0.679982
0.678113
0.683688
0.665785
0.659536
0.65759
0.657441
0.652835
0.650317
0.649125
0.64909
0.649917
0.647508
0.646406
0.645846
0.646251
0.642238
0.640727
0.63599
0.625499
0.608812
0.605199
0.591916
0.588601
0.565939
0.561873
0.547985
0.540015
0.519593
0.505693
0.502254
0.488844
0.478145
0.465568
0.462447
0.448701
1.50298
1.50397
1.50889
1.505
1.49727
1.50467
1.50075
1.49398
1.49454
1.48946
1.48454
1.47623
1.47393
1.46914
1.45627
1.45323
1.44261
1.43686
1.42482
1.41771
1.41256
1.3967
1.39085
1.37824
1.3726
1.35854
1.35082
1.34581
1.33098
1.3238
1.31243
1.30764
1.29085
1.2894
1.27969
1.27446
1.2665
1.26142
1.25773
1.2477
1.24683
1.24065
1.2372
1.22614
1.22851
1.22251
1.21874
1.21406
1.21384
1.21115
1.20627
1.20644
1.20354
1.2009
1.19461
1.19562
1.19044
1.18756
1.17818
1.17802
1.16992
1.16644
1.1523
1.14931
1.13741
1.13304
1.11442
1.10587
1.08968
1.08429
1.06572
1.04943
1.04383
1.02406
1.00151
0.983491
0.97779
0.956686
0.934601
0.916143
0.91003
0.886369
0.864074
0.846668
0.841911
0.825164
0.808261
0.797589
0.793846
0.781925
0.771709
0.76545
0.75922
0.756816
0.748372
0.743018
0.736528
0.734161
0.725879
0.728327
0.725973
0.72452
0.720636
0.724393
0.722425
0.721146
0.718635
0.719359
0.716149
0.714488
0.708476
0.695312
0.680065
0.676187
0.661426
0.648581
0.633462
0.62915
0.613888
0.594611
0.582781
0.567647
0.563788
0.546671
0.53638
0.522732
0.519237
0.503321
1.64084
1.62185
1.64813
1.6444
1.62062
1.64101
1.64047
1.62821
1.62256
1.62784
1.62139
1.58643
1.60972
1.60621
1.58567
1.58257
1.57798
1.57019
1.5335
1.55014
1.54574
1.52228
1.51653
1.50907
1.50176
1.46161
1.47819
1.47418
1.454
1.44203
1.43789
1.4323
1.39945
1.41076
1.40256
1.3949
1.37076
1.38158
1.37812
1.36243
1.36023
1.35884
1.35468
1.32986
1.34354
1.33924
1.33389
1.30727
1.32823
1.32615
1.3183
1.30984
1.31638
1.31373
1.30277
1.3027
1.30146
1.29817
1.28102
1.28518
1.27881
1.27463
1.24762
1.25508
1.24382
1.2385
1.2006
1.20913
1.19286
1.18631
1.14554
1.14906
1.14379
1.12188
1.081
1.07886
1.07329
1.04981
1.01121
1.00647
1.00037
0.974249
0.936039
0.931501
0.926761
0.907845
0.874743
0.877734
0.874087
0.860436
0.832151
0.842089
0.835625
0.832587
0.809935
0.81732
0.810812
0.807946
0.791295
0.800841
0.798859
0.797095
0.788996
0.795695
0.794465
0.792991
0.788224
0.789053
0.787126
0.785337
0.777868
0.761463
0.74863
0.744549
0.728293
0.705966
0.698593
0.694148
0.677536
0.646382
0.64383
0.627679
0.623377
0.602313
0.592575
0.578186
0.57433
0.556179
1.68533
1.6834
1.69216
1.68757
1.67794
1.68701
1.68288
1.67479
1.67471
1.67064
1.66469
1.64925
1.65336
1.64798
1.63316
1.62989
1.61911
1.61224
1.59279
1.59153
1.58568
1.56755
1.56115
1.54789
1.54119
1.51958
1.51712
1.51143
1.49442
1.48591
1.47408
1.46842
1.44884
1.4477
1.43681
1.43051
1.41965
1.41562
1.41128
1.39938
1.39791
1.39118
1.38703
1.37401
1.37703
1.37042
1.36589
1.35531
1.3598
1.35661
1.35052
1.34949
1.34688
1.34373
1.33609
1.33681
1.33119
1.32776
1.31677
1.31668
1.3078
1.30374
1.28772
1.28489
1.27187
1.26686
1.24521
1.23728
1.21953
1.2134
1.18861
1.1753
1.16904
1.14729
1.1207
1.10292
1.09646
1.07302
1.04729
1.0281
1.02118
0.994925
0.969052
0.950577
0.945082
0.926139
0.905941
0.894902
0.890537
0.876941
0.862477
0.858026
0.850724
0.847908
0.838152
0.832495
0.825124
0.822394
0.813413
0.815764
0.812938
0.81121
0.806807
0.810835
0.808508
0.806975
0.803983
0.804832
0.801154
0.799208
0.792553
0.778625
0.762062
0.757694
0.741555
0.727282
0.711115
0.706238
0.689483
0.668605
0.655204
0.638189
0.633786
0.614604
0.602816
0.58719
0.583161
0.565211
1.81219
1.79603
1.82011
1.8158
1.79229
1.81187
1.81135
1.79767
1.79204
1.79764
1.79023
1.75823
1.77773
1.77383
1.75146
1.74807
1.74343
1.73452
1.69996
1.71302
1.70808
1.68246
1.67611
1.66826
1.65987
1.62182
1.63416
1.62967
1.60722
1.59424
1.58966
1.58321
1.5495
1.55916
1.5501
1.54123
1.51708
1.5262
1.5222
1.50445
1.50161
1.49994
1.49507
1.46944
1.48237
1.47764
1.47145
1.44679
1.46454
1.4621
1.45282
1.44371
1.4501
1.447
1.43447
1.43404
1.43265
1.42882
1.4101
1.41414
1.40732
1.40252
1.37476
1.38129
1.36925
1.36324
1.32649
1.33174
1.31426
1.30693
1.2675
1.26693
1.26118
1.23742
1.19691
1.19118
1.18505
1.15937
1.12018
1.11228
1.10556
1.077
1.03786
1.03019
1.02486
1.00379
0.970442
0.970365
0.966234
0.950903
0.92346
0.930241
0.92285
0.919313
0.897095
0.902461
0.89522
0.891919
0.8743
0.8838
0.881458
0.879374
0.870278
0.877415
0.875998
0.874259
0.868683
0.86961
0.867514
0.865462
0.857212
0.83998
0.826454
0.821956
0.80439
0.781087
0.772623
0.767727
0.749731
0.717868
0.713186
0.695406
0.690574
0.667193
0.656355
0.640308
0.635955
0.615756
1.86012
1.85816
1.86742
1.86214
1.85222
1.86127
1.85673
1.84771
1.84733
1.84341
1.83658
1.8202
1.82446
1.81844
1.80233
1.79863
1.78736
1.77949
1.75868
1.75729
1.75069
1.73097
1.72381
1.70967
1.70201
1.67874
1.67579
1.66937
1.65056
1.64095
1.62823
1.62175
1.60083
1.59865
1.58651
1.57926
1.56702
1.56245
1.55743
1.54397
1.54176
1.53424
1.52941
1.51545
1.518
1.51063
1.50542
1.49492
1.498
1.49427
1.48703
1.4852
1.48231
1.47862
1.46985
1.47018
1.46397
1.46
1.44792
1.44749
1.43783
1.43321
1.41634
1.41285
1.39881
1.3932
1.37062
1.36158
1.34247
1.33566
1.30911
1.29486
1.28796
1.26451
1.23609
1.21691
1.20975
1.18424
1.15633
1.1355
1.12784
1.09928
1.07099
1.05077
1.04456
1.02355
1.00128
0.988906
0.98393
0.968712
0.95258
0.947426
0.939045
0.935792
0.92522
0.918802
0.910542
0.907416
0.897784
0.899839
0.896477
0.894449
0.889509
0.893668
0.89095
0.889149
0.885644
0.886573
0.882451
0.880225
0.872964
0.858484
0.840854
0.836029
0.818676
0.803201
0.786152
0.780751
0.762661
0.740515
0.725572
0.706814
0.701887
0.680748
0.667596
0.650125
0.645579
0.625698
1.99023
1.97296
1.99889
1.99409
1.96823
1.98886
1.98919
1.97301
1.96647
1.97416
1.96545
1.93172
1.95199
1.94808
1.9226
1.91884
1.91551
1.90498
1.86825
1.88208
1.87686
1.84783
1.84084
1.83382
1.82395
1.78332
1.79595
1.79132
1.76561
1.75088
1.74728
1.73979
1.70267
1.7126
1.70323
1.69252
1.66576
1.67584
1.6714
1.65051
1.64671
1.64577
1.64
1.61138
1.62506
1.62037
1.61288
1.58618
1.60458
1.60199
1.59059
1.57959
1.58736
1.58382
1.56884
1.56784
1.56722
1.56275
1.54126
1.54579
1.53914
1.53356
1.50318
1.51041
1.49804
1.49111
1.45209
1.45747
1.43917
1.43076
1.38881
1.38821
1.3822
1.35637
1.31292
1.30711
1.30057
1.27245
1.22997
1.22174
1.21453
1.18331
1.14061
1.13246
1.12665
1.10312
1.06657
1.06629
1.06177
1.04447
1.0145
1.02131
1.01304
1.00881
0.984499
0.99018
0.982298
0.978413
0.95858
0.968972
0.966394
0.963883
0.953044
0.96099
0.959624
0.957555
0.950711
0.95174
0.949896
0.947562
0.938293
0.919913
0.9065
0.9016
0.88264
0.857188
0.849061
0.843762
0.824324
0.789998
0.784961
0.765638
0.760192
0.733967
0.72229
0.704733
0.69983
0.67732
2.04234
2.03788
2.05033
2.04442
2.03152
2.04242
2.03843
2.02714
2.02535
2.02382
2.0157
1.99738
2.00269
1.99642
1.97741
1.97327
1.96313
1.95373
1.9307
1.93011
1.92304
1.90012
1.89228
1.87873
1.86963
1.84369
1.84113
1.83433
1.81251
1.80091
1.78907
1.78151
1.75666
1.75539
1.74259
1.73367
1.7177
1.71504
1.70942
1.69307
1.68984
1.68274
1.67701
1.65972
1.66347
1.65582
1.64942
1.63563
1.64056
1.63649
1.62734
1.62319
1.62191
1.61769
1.60671
1.60645
1.60074
1.59611
1.58145
1.58155
1.57178
1.5664
1.54662
1.54427
1.5297
1.52321
1.49754
1.48957
1.46945
1.46165
1.43263
1.41835
1.41101
1.38561
1.35352
1.33499
1.32726
1.29943
1.26743
1.247
1.2387
1.20757
1.17502
1.15493
1.14808
1.12468
1.09865
1.08652
1.08101
1.06387
1.04545
1.04002
1.03058
1.02669
1.01363
1.00794
0.998852
0.995178
0.983482
0.98636
0.982567
0.980124
0.973761
0.97858
0.975694
0.973557
0.969033
0.9701
0.965959
0.963423
0.955311
0.939907
0.922083
0.916805
0.898152
0.880228
0.863807
0.857915
0.838431
0.813674
0.798561
0.778124
0.772583
0.748886
0.734715
0.715506
0.710386
0.688302
2.17489
2.15325
2.18427
2.17915
2.14848
2.17182
2.1739
2.1542
2.14595
2.15728
2.14698
2.108
2.13235
2.12894
2.09915
2.09493
2.09416
2.08157
2.03942
2.05726
2.05215
2.01851
2.01081
2.00585
1.99409
1.94736
1.96363
1.95932
1.92934
1.91222
1.91091
1.90222
1.85918
1.87119
1.86217
1.84898
1.81718
1.83065
1.82595
1.8008
1.7957
1.79654
1.78967
1.75586
1.77172
1.76763
1.75836
1.72629
1.74847
1.74604
1.7318
1.7177
1.72829
1.72438
1.70603
1.70419
1.70531
1.70012
1.67468
1.6802
1.67444
1.66788
1.63301
1.64248
1.63038
1.62223
1.57798
1.58645
1.56781
1.558
1.51056
1.51309
1.50713
1.47898
1.42978
1.42692
1.42022
1.38939
1.34108
1.33523
1.32774
1.29356
1.24484
1.23875
1.23262
1.20628
1.16379
1.16592
1.1612
1.14157
1.1062
1.11565
1.10662
1.10145
1.07254
1.08078
1.07243
1.06777
1.0443
1.05661
1.054
1.05094
1.0375
1.04661
1.04564
1.04318
1.03452
1.0356
1.03456
1.03194
1.02135
1.00146
0.989084
0.983823
0.963356
0.934522
0.928256
0.922654
0.901697
0.863036
0.859538
0.838839
0.832686
0.802982
0.790755
0.771931
0.766429
0.74127
2.21
2.21126
2.21751
2.21079
2.20218
2.20918
2.20349
2.1933
2.19244
2.18792
2.17947
2.16991
2.16573
2.15822
2.14062
2.13557
2.12295
2.11333
2.09834
2.0882
2.08001
2.05804
2.04892
2.03283
2.02333
2.00485
1.99286
1.98485
1.96291
1.95091
1.93615
1.92792
1.90563
1.89992
1.88513
1.876
1.86217
1.85492
1.84842
1.83191
1.82769
1.81844
1.81213
1.79684
1.79726
1.78811
1.78141
1.77356
1.77085
1.76594
1.75625
1.75266
1.74895
1.74412
1.73309
1.73226
1.7249
1.71978
1.70587
1.70438
1.69324
1.68747
1.66969
1.6643
1.64846
1.64162
1.6193
1.60651
1.58501
1.57685
1.55291
1.53158
1.52343
1.49699
1.46745
1.44382
1.43529
1.40606
1.37523
1.35045
1.34135
1.30853
1.27643
1.25226
1.24463
1.21947
1.19422
1.17812
1.17192
1.1533
1.1374
1.12703
1.11641
1.11207
1.09984
1.09171
1.08164
1.07752
1.06579
1.06751
1.063
1.06022
1.05355
1.05805
1.05462
1.05219
1.04727
1.04828
1.0436
1.04078
1.03223
1.0167
0.99799
0.992269
0.972737
0.954576
0.936852
0.930459
0.909916
0.885179
0.86776
0.845764
0.839714
0.814353
0.798858
0.777939
0.772305
0.748432
2.24829
2.26884
2.25296
2.2451
2.25608
2.24901
2.23548
2.23579
2.2423
2.22065
2.21468
2.22388
2.20126
2.18986
2.18529
2.17907
2.15378
2.14779
2.15159
2.12117
2.11011
2.10068
2.0897
2.06172
2.055
2.05498
2.02398
2.0124
1.99943
1.99238
1.96311
1.95567
1.9518
1.93042
1.90966
1.9053
1.90869
1.88066
1.87252
1.8656
1.86172
1.84168
1.83621
1.83797
1.82418
1.80982
1.80618
1.81545
1.79438
1.78708
1.78263
1.78983
1.7707
1.76507
1.76229
1.7619
1.74555
1.74068
1.73898
1.72978
1.71311
1.70833
1.7064
1.68725
1.66761
1.66232
1.65706
1.62768
1.60329
1.59706
1.58886
1.55119
1.54089
1.51634
1.50345
1.46182
1.45151
1.42404
1.40919
1.36671
1.35605
1.32471
1.30797
1.26671
1.2576
1.23373
1.22331
1.19111
1.18345
1.1659
1.16304
1.13901
1.12672
1.12339
1.12467
1.10315
1.09134
1.08789
1.08747
1.07889
1.07245
1.07002
1.07094
1.06992
1.06402
1.06168
1.06114
1.06144
1.05307
1.05009
1.04392
1.03269
1.00734
1.00119
0.982763
0.976029
0.945947
0.938796
0.918726
0.90521
0.876497
0.853182
0.847301
0.827005
0.807415
0.784389
0.778659
0.756353
2.39066
2.39509
2.39816
2.3907
2.38325
2.38828
2.3824
2.37122
2.37034
2.36553
2.35602
2.34795
2.34143
2.33337
2.31477
2.3089
2.29611
2.28526
2.27186
2.25878
2.24991
2.22651
2.21627
2.19973
2.18899
2.17133
2.15635
2.14774
2.12372
2.11045
2.09503
2.08573
2.06296
2.05479
2.03903
2.02845
2.01463
2.00513
1.99792
1.97924
1.97371
1.96404
1.95678
1.94071
1.9395
1.92973
1.9219
1.91405
1.90948
1.90413
1.89266
1.88816
1.88413
1.87871
1.86602
1.86441
1.85701
1.85121
1.83601
1.83392
1.82255
1.81602
1.79785
1.79136
1.77504
1.76738
1.74572
1.73072
1.70844
1.69935
1.67544
1.6523
1.64374
1.61564
1.58648
1.56017
1.55116
1.51987
1.4884
1.46126
1.4516
1.41642
1.38306
1.35657
1.34835
1.32076
1.29442
1.27605
1.26935
1.24867
1.23122
1.21962
1.20787
1.20276
1.18948
1.18043
1.16955
1.16473
1.15127
1.15304
1.14807
1.14475
1.13653
1.14135
1.13784
1.13501
1.12886
1.12987
1.12542
1.12228
1.11284
1.09663
1.07828
1.07214
1.0515
1.03208
1.01446
1.00767
0.985887
0.959684
0.941467
0.918054
0.911361
0.883349
0.867014
0.84464
0.838415
0.8122
2.45122
2.46098
2.45704
2.44832
2.45041
2.45002
2.43813
2.43409
2.4368
2.4218
2.4137
2.41039
2.39944
2.38811
2.37785
2.37143
2.34988
2.34134
2.33239
2.31362
2.30219
2.28686
2.27553
2.2504
2.24141
2.22827
2.20799
2.19622
2.17832
2.1676
2.14216
2.13312
2.11949
2.10381
2.08294
2.07577
2.06896
2.04927
2.04041
2.0284
2.02296
2.00509
1.99823
1.99153
1.98291
1.96868
1.96303
1.96074
1.94949
1.94188
1.93434
1.93596
1.92207
1.91574
1.90907
1.90783
1.89357
1.88775
1.88074
1.87396
1.85803
1.85211
1.84291
1.82906
1.80946
1.80286
1.78817
1.76643
1.7415
1.7338
1.71487
1.68598
1.67537
1.64858
1.62536
1.59148
1.58066
1.55054
1.52567
1.4898
1.47849
1.44421
1.41742
1.38206
1.37225
1.34545
1.32512
1.29896
1.29071
1.2707
1.25835
1.2407
1.22714
1.2228
1.2165
1.20033
1.18759
1.1833
1.17781
1.17249
1.16557
1.1625
1.16041
1.16106
1.15519
1.15234
1.14999
1.15064
1.1428
1.13942
1.1321
1.1195
1.09538
1.08873
1.06898
1.05677
1.03095
1.02327
1.00178
0.982187
0.956996
0.932024
0.925346
0.901518
0.881535
0.856763
0.850295
0.82531
2.60358
2.59903
2.61246
2.60487
2.58706
2.59806
2.5967
2.57816
2.57385
2.57748
2.56505
2.54482
2.5489
2.54265
2.51539
2.5092
2.50307
2.48828
2.46309
2.46056
2.45265
2.42038
2.40962
2.39887
2.38464
2.35417
2.34904
2.34189
2.31003
2.29282
2.28358
2.27228
2.2383
2.2354
2.22187
2.20645
2.18369
2.18168
2.17452
2.14793
2.14042
2.1355
2.12639
2.10024
2.10396
2.09636
2.08513
2.06673
2.07072
2.06623
2.04958
2.03938
2.04181
2.03607
2.01708
2.01422
2.01137
2.00446
1.98169
1.98228
1.97386
1.96562
1.93881
1.93784
1.92335
1.91351
1.88216
1.87457
1.85322
1.84159
1.80724
1.79257
1.78482
1.75336
1.71476
1.69551
1.68689
1.65181
1.61129
1.59
1.5805
1.54126
1.49878
1.47736
1.46916
1.43758
1.40205
1.38885
1.38228
1.35817
1.33133
1.3256
1.31323
1.30645
1.28531
1.28126
1.27021
1.26407
1.2441
1.24963
1.2451
1.24084
1.22783
1.23483
1.23255
1.2291
1.21969
1.22086
1.21855
1.21505
1.2035
1.18501
1.16987
1.16344
1.14091
1.11635
1.10312
1.0962
1.07264
1.03968
1.02547
1.00102
0.993299
0.960152
0.943993
0.920817
0.913784
0.88392
2.66869
2.66752
2.67611
2.66697
2.65789
2.66432
2.65676
2.64526
2.64326
2.63828
2.62709
2.61107
2.61146
2.6016
2.5824
2.57544
2.56114
2.54859
2.52677
2.51979
2.50899
2.48453
2.47259
2.45365
2.44112
2.41461
2.40486
2.39418
2.36842
2.35291
2.33455
2.32338
2.29779
2.28825
2.26925
2.25731
2.23934
2.22932
2.22021
2.20021
2.19256
2.17967
2.17083
2.15341
2.15052
2.13812
2.12908
2.11518
2.11361
2.10654
2.09392
2.08848
2.08237
2.07551
2.06255
2.05995
2.05035
2.0433
2.02846
2.02486
2.01165
2.00401
1.98565
1.97809
1.96003
1.95131
1.92662
1.91281
1.88854
1.87839
1.84879
1.82877
1.81867
1.78869
1.75489
1.72931
1.71861
1.68486
1.64946
1.62094
1.60951
1.57133
1.53394
1.5051
1.49501
1.46435
1.43373
1.4138
1.40536
1.38206
1.3601
1.34848
1.33398
1.32807
1.31363
1.30282
1.28956
1.28401
1.27189
1.27061
1.2638
1.2598
1.25299
1.25603
1.25104
1.24756
1.24212
1.24311
1.23709
1.23327
1.22406
1.20916
1.18824
1.18118
1.15971
1.14114
1.12099
1.11299
1.08984
1.06363
1.04247
1.01623
1.00852
0.979762
0.960026
0.934058
0.926732
0.898254
2.82928
2.81058
2.83939
2.83226
2.79921
2.8194
2.82454
2.79624
2.78729
2.80202
2.78622
2.74912
2.7678
2.76472
2.726
2.71974
2.72245
2.70286
2.66129
2.67356
2.66776
2.62389
2.61288
2.61008
2.59161
2.54364
2.5524
2.54805
2.50611
2.48406
2.48329
2.46977
2.41981
2.42541
2.41578
2.39404
2.35814
2.36775
2.36133
2.32448
2.31469
2.31627
2.305
2.26458
2.27584
2.27182
2.25609
2.22253
2.2392
2.2366
2.21315
2.19544
2.20659
2.20089
2.17376
2.16939
2.17272
2.16461
2.13186
2.13606
2.13214
2.12177
2.08282
2.08997
2.0787
2.06604
2.02063
2.02445
2.0053
1.99033
1.94176
1.93935
1.93342
1.89776
1.84549
1.83771
1.83035
1.79062
1.73691
1.72578
1.71718
1.67304
1.61725
1.60506
1.59758
1.56109
1.51204
1.50804
1.50226
1.47382
1.43356
1.43712
1.42465
1.41562
1.38259
1.38682
1.37623
1.36832
1.33909
1.35018
1.3468
1.34135
1.32188
1.33162
1.33147
1.3273
1.31352
1.31473
1.31571
1.3119
1.29752
1.2762
1.26579
1.25926
1.23447
1.20259
1.19638
1.18974
1.16413
1.12121
1.11414
1.08928
1.08031
1.04071
1.02516
1.00197
0.994054
0.959719
2.87581
2.87676
2.88298
2.87327
2.86337
2.86818
2.86191
2.84763
2.8444
2.84145
2.82859
2.81801
2.81152
2.80183
2.77973
2.77146
2.75914
2.74446
2.72719
2.71409
2.70309
2.67535
2.66179
2.64446
2.62986
2.60755
2.59087
2.5802
2.55062
2.53263
2.51562
2.50292
2.47489
2.46326
2.44435
2.42965
2.40989
2.39908
2.38939
2.36522
2.35534
2.34368
2.33341
2.31303
2.30894
2.2968
2.28567
2.27254
2.26769
2.26062
2.24475
2.23669
2.23221
2.22478
2.20843
2.20443
2.19646
2.18848
2.17051
2.16678
2.1546
2.14575
2.12534
2.11771
2.10018
2.09005
2.06548
2.04994
2.0258
2.01406
1.98725
1.96298
1.95287
1.92084
1.88697
1.85949
1.84858
1.81233
1.77531
1.74562
1.73383
1.6928
1.65303
1.62287
1.61236
1.57856
1.546
1.52412
1.51537
1.48921
1.46732
1.45205
1.43652
1.42923
1.41267
1.40115
1.38726
1.38052
1.36505
1.36445
1.35748
1.35263
1.34272
1.34655
1.34209
1.33802
1.33031
1.33123
1.32649
1.32228
1.31163
1.29549
1.27674
1.26928
1.24656
1.22567
1.20739
1.19912
1.17466
1.14643
1.12521
1.0979
1.08927
1.05677
1.03661
1.0096
1.00147
0.969862
2.92617
2.93884
2.92938
2.91779
2.92428
2.92038
2.90233
2.90208
2.90452
2.88329
2.87445
2.87529
2.85802
2.84198
2.83537
2.82671
2.79811
2.78948
2.78337
2.75717
2.74133
2.72869
2.71412
2.68101
2.67132
2.66044
2.63177
2.61496
2.59797
2.58423
2.54996
2.53881
2.52636
2.50359
2.47469
2.46819
2.46046
2.43219
2.41956
2.40809
2.3987
2.37256
2.36391
2.3586
2.3439
2.32293
2.31736
2.31624
2.2974
2.28597
2.27858
2.27946
2.25883
2.24998
2.24495
2.24157
2.22122
2.21379
2.20942
2.19916
2.17812
2.1713
2.16505
2.14684
2.12273
2.1157
2.10399
2.07674
2.04739
2.03953
2.02335
1.98786
1.97367
1.94564
1.92376
1.8825
1.86817
1.83579
1.81075
1.76661
1.7518
1.71422
1.68611
1.64173
1.62834
1.59751
1.57598
1.54111
1.52945
1.50578
1.49314
1.46765
1.44887
1.44373
1.43798
1.41604
1.39875
1.39349
1.38902
1.37924
1.36857
1.36453
1.36404
1.36204
1.35308
1.34925
1.34829
1.34848
1.33764
1.33316
1.32683
1.31599
1.28806
1.2798
1.25952
1.24892
1.21885
1.20907
1.18595
1.16748
1.13684
1.10706
1.09896
1.07384
1.04865
1.01772
1.00949
0.981132
3.10393
3.10268
3.11118
3.10138
3.08627
3.09182
3.08951
3.06889
3.06442
3.06578
3.05011
3.03326
3.03102
3.02317
2.99453
2.98549
2.97782
2.95925
2.93644
2.92725
2.9174
2.88275
2.86813
2.85504
2.83685
2.80765
2.79454
2.7856
2.74882
2.72823
2.71485
2.70002
2.66524
2.65391
2.63728
2.61739
2.59363
2.58446
2.57504
2.54343
2.53132
2.52295
2.51062
2.48353
2.48002
2.47005
2.45504
2.43699
2.4342
2.42831
2.40679
2.39546
2.39424
2.38656
2.36425
2.35886
2.35458
2.34539
2.32152
2.31853
2.30946
2.29868
2.273
2.26736
2.25227
2.23961
2.21026
2.19751
2.17514
2.16044
2.12769
2.10791
2.09921
2.06357
2.02546
2.00058
1.99065
1.95032
1.90875
1.88109
1.87001
1.82454
1.77958
1.75099
1.74098
1.7025
1.66425
1.64383
1.63568
1.60524
1.57612
1.56382
1.54781
1.53828
1.51594
1.50651
1.49274
1.48418
1.46295
1.46429
1.45809
1.45197
1.43707
1.4422
1.43947
1.43462
1.42314
1.42398
1.42201
1.41744
1.40433
1.38656
1.37156
1.36398
1.33933
1.31542
1.30038
1.29239
1.26613
1.23309
1.21453
1.18693
1.17705
1.1391
1.11905
1.09197
1.08292
1.04695
3.17845
3.17602
3.18362
3.17186
3.16249
3.16695
3.15685
3.14471
3.14047
3.13427
3.12061
3.10357
3.10199
3.08934
3.06922
3.05935
3.04297
3.02784
3.00407
2.99448
2.98068
2.95441
2.93865
2.91657
2.90116
2.87175
2.8581
2.84423
2.81507
2.7947
2.77226
2.75792
2.72866
2.71409
2.69005
2.6754
2.65255
2.63825
2.62594
2.60213
2.5893
2.57207
2.56031
2.53969
2.53238
2.51572
2.50436
2.48711
2.4819
2.47223
2.4564
2.44752
2.43871
2.42949
2.41443
2.40889
2.39687
2.38766
2.37172
2.36559
2.35021
2.34055
2.32154
2.31188
2.29173
2.28111
2.25557
2.23988
2.21328
2.20122
2.17041
2.1482