/*--------------------------------*- C++ -*----------------------------------*\
| =========                 |                                                 |
| \\      /  F ield         | OpenFOAM: The Open Source CFD Toolbox           |
|  \\    /   O peration     | Version:  v2012                                 |
|   \\  /    A nd           | Website:  www.openfoam.com                      |
|    \\/     M anipulation  |                                                 |
\*---------------------------------------------------------------------------*/
FoamFile
{
    version     2.0;
    format      ascii;
    class       volScalarField;
    location    "1e-06";
    object      kMean;
}
// * * * * * * * * * * * * * * * * * * * * * * * * * * * * * * * * * * * * * //

dimensions      [0 2 -2 0 0 0 0];


internalField   nonuniform List<scalar> 
10123
(
0.700795
0.692386
0.686767
0.683034
0.68197
0.672882
0.660301
0.663128
0.657243
0.636657
0.637756
0.582832
0.619354
0.60914
0.611526
0.601669
0.577141
0.581696
0.516895
0.559677
0.549916
0.553652
0.544079
0.519019
0.523922
0.456268
0.506641
0.494122
0.501224
0.496944
0.473984
0.475141
0.477724
0.469585
0.448029
0.461766
0.461917
0.44912
0.442159
0.454101
0.45357
0.435716
0.439145
0.44667
0.436742
0.414414
0.425704
0.359955
0.422737
0.41154
0.427005
0.43415
0.418964
0.414862
0.42911
0.43034
0.413744
0.41556
0.428105
0.423248
0.404419
0.41028
0.415745
0.407017
0.38641
0.39543
0.384469
0.382976
0.360774
0.37184
0.304771
0.355823
0.339979
0.344709
0.323471
0.322045
0.308235
0.313632
0.304397
0.295594
0.282909
0.286542
0.277544
0.26985
0.258489
0.264813
0.25379
0.256085
0.245099
0.252651
0.206492
0.248816
0.237096
0.245805
0.244291
0.24202
0.228979
0.23516
0.240157
0.234479
0.222788
0.227012
0.23504
0.232209
0.221135
0.222807
0.232321
0.231656
0.220666
0.218752
0.225828
0.221259
0.204991
0.198199
0.201029
0.199701
0.185331
0.174584
0.177309
0.172702
0.165974
0.15218
0.155682
0.158474
0.153794
0.143704
0.143518
0.147245
0.767699
0.754861
0.760784
0.758359
0.746007
0.748986
0.745274
0.738394
0.733033
0.725686
0.723051
0.709553
0.708001
0.704672
0.693045
0.687537
0.677926
0.674501
0.662926
0.656603
0.653422
0.640312
0.634967
0.626082
0.622489
0.614142
0.606454
0.603762
0.592844
0.587436
0.581325
0.578366
0.559775
0.566854
0.562052
0.558168
0.547819
0.551809
0.550056
0.543224
0.544323
0.542963
0.54085
0.527623
0.532705
0.527588
0.523996
0.526787
0.523583
0.522849
0.520198
0.520883
0.522617
0.521438
0.5173
0.51996
0.519405
0.517773
0.511008
0.514326
0.511048
0.508596
0.493674
0.498901
0.493325
0.49009
0.463106
0.47424
0.466282
0.462292
0.456947
0.444461
0.442105
0.430312
0.405855
0.407695
0.405527
0.394528
0.375914
0.376024
0.373613
0.361642
0.343876
0.344362
0.342744
0.334984
0.31992
0.325369
0.324304
0.319159
0.319327
0.314233
0.31252
0.310729
0.297873
0.304792
0.301722
0.299847
0.291565
0.296116
0.295046
0.293749
0.289692
0.293225
0.292717
0.291777
0.289719
0.290969
0.290462
0.289601
0.285314
0.277536
0.270517
0.268735
0.259879
0.251382
0.245733
0.244133
0.235407
0.217476
0.220423
0.214464
0.212106
0.203327
0.201781
0.198309
0.195979
0.190361
0.885136
0.863561
0.884678
0.882399
0.864841
0.87727
0.875325
0.867967
0.8632
0.861995
0.858575
0.815157
0.847538
0.844883
0.831961
0.828627
0.822435
0.818191
0.776816
0.802768
0.799913
0.785289
0.781182
0.774469
0.770324
0.723573
0.755004
0.752552
0.740514
0.733907
0.729961
0.726794
0.702754
0.714521
0.709848
0.705462
0.687675
0.698663
0.696873
0.688562
0.689026
0.688391
0.686109
0.668472
0.678492
0.674573
0.67099
0.640603
0.669914
0.669135
0.665741
0.663073
0.667531
0.666272
0.660934
0.66285
0.662649
0.660883
0.651537
0.65555
0.652044
0.649468
0.630129
0.638192
0.631743
0.628315
0.591842
0.610283
0.600878
0.596602
0.553163
0.575062
0.572334
0.558894
0.52294
0.53315
0.530432
0.517105
0.488302
0.493745
0.490714
0.475975
0.448632
0.453898
0.451806
0.442009
0.416154
0.428258
0.426819
0.420059
0.391031
0.412483
0.410045
0.408146
0.38863
0.400444
0.397051
0.395165
0.384478
0.391399
0.390579
0.389379
0.384769
0.38914
0.388719
0.387829
0.385531
0.386576
0.385949
0.385016
0.380485
0.370626
0.362695
0.360529
0.350578
0.337422
0.333529
0.331358
0.321389
0.298401
0.302805
0.294846
0.292326
0.281336
0.277838
0.271944
0.197159
0.261247
0.8951
0.907604
0.894257
0.891691
0.891697
0.888568
0.884475
0.880455
0.882122
0.871649
0.868893
0.861691
0.858217
0.854554
0.847064
0.843377
0.832229
0.828895
0.820576
0.813266
0.809649
0.800323
0.79539
0.784134
0.780676
0.773217
0.765364
0.761961
0.752948
0.750276
0.739336
0.736321
0.731607
0.725037
0.718734
0.715551
0.722151
0.707858
0.705632
0.700892
0.701958
0.697039
0.694916
0.693018
0.688274
0.68288
0.680036
0.692412
0.678714
0.677304
0.675422
0.681732
0.675929
0.674442
0.672109
0.674555
0.670809
0.669058
0.666114
0.665246
0.659987
0.657602
0.653163
0.646931
0.639389
0.636284
0.633508
0.618275
0.608047
0.604172
0.59585
0.582282
0.579009
0.5659
0.564522
0.539619
0.536447
0.523392
0.521871
0.49938
0.495961
0.481406
0.479376
0.458734
0.456296
0.446699
0.449243
0.432578
0.430798
0.424236
0.422132
0.416523
0.413729
0.412004
0.414706
0.404349
0.400576
0.398796
0.3962
0.395369
0.394115
0.392976
0.391435
0.393372
0.392318
0.391422
0.390436
0.391311
0.389575
0.388585
0.38463
0.376643
0.366091
0.363807
0.354024
0.351441
0.336636
0.334284
0.324331
0.3166
0.305623
0.297328
0.294804
0.285435
0.28047
0.274028
0.271413
0.263585
1.03506
1.03372
1.03755
1.0349
1.02669
1.03309
1.0301
1.02459
1.02459
1.01931
1.01592
1.00964
1.00628
1.00288
0.99254
0.989856
0.981006
0.97692
0.968364
0.961353
0.957754
0.945353
0.940978
0.931211
0.927174
0.918292
0.910814
0.907421
0.896307
0.891466
0.882895
0.87954
0.865162
0.866598
0.860081
0.856219
0.850948
0.847702
0.845329
0.838323
0.8388
0.834949
0.83258
0.82295
0.825637
0.820869
0.817822
0.817246
0.815783
0.814268
0.811371
0.813142
0.811451
0.809814
0.805692
0.807595
0.804576
0.802638
0.795938
0.796911
0.791459
0.788879
0.776812
0.776436
0.768035
0.764672
0.747553
0.744321
0.732721
0.728527
0.716982
0.703233
0.699495
0.684692
0.667249
0.654862
0.651132
0.635965
0.620034
0.607658
0.603613
0.58664
0.570953
0.559591
0.55664
0.545229
0.533754
0.527555
0.525344
0.517424
0.512719
0.50739
0.503804
0.501994
0.494714
0.492652
0.48833
0.486503
0.47971
0.482535
0.481206
0.480091
0.477113
0.480326
0.479254
0.478345
0.476713
0.477528
0.475728
0.474623
0.470113
0.459979
0.448905
0.446239
0.435213
0.426417
0.415011
0.412156
0.400905
0.385085
0.378876
0.368825
0.366064
0.354264
0.348222
0.339926
0.337637
0.327095
1.17504
1.15852
1.17955
1.17687
1.15865
1.17465
1.17315
1.1652
1.16174
1.16264
1.15846
1.12699
1.14874
1.14576
1.13146
1.12899
1.123
1.11793
1.08726
1.10169
1.09824
1.08176
1.07744
1.06979
1.06494
1.03076
1.04707
1.04389
1.02997
1.02213
1.01695
1.01317
0.988259
0.998099
0.991709
0.986815
0.969298
0.977515
0.975087
0.965171
0.964789
0.962852
0.960143
0.941959
0.952292
0.948252
0.944672
0.923112
0.941921
0.940474
0.936166
0.932449
0.936101
0.934356
0.927894
0.929072
0.927506
0.925329
0.91422
0.9174
0.912177
0.909276
0.888924
0.894898
0.886006
0.882212
0.849871
0.85954
0.846912
0.842183
0.808533
0.813795
0.809802
0.793203
0.760432
0.760083
0.756001
0.738738
0.709259
0.706669
0.702197
0.682914
0.654304
0.651986
0.648687
0.635464
0.610763
0.6147
0.612218
0.602921
0.581061
0.590831
0.58664
0.584606
0.566894
0.573735
0.569008
0.567003
0.555425
0.562313
0.560992
0.559801
0.554854
0.559601
0.558676
0.557699
0.555081
0.555863
0.554302
0.553082
0.547783
0.535305
0.524395
0.521415
0.509068
0.493436
0.486352
0.483131
0.470558
0.446313
0.445508
0.433981
0.430919
0.41649
0.409801
0.400058
0.397433
0.384942
1.19336
1.20677
1.19711
1.19395
1.19571
1.19444
1.1897
1.18635
1.19024
1.17969
1.17629
1.16982
1.16692
1.16246
1.15496
1.15192
1.13954
1.13565
1.13667
1.11894
1.11443
1.10434
1.09894
1.08556
1.08154
1.07093
1.06353
1.05907
1.04882
1.04526
1.03185
1.02825
1.02235
1.01428
1.00573
1.00236
1.00646
0.991839
0.988827
0.98316
0.983412
0.976314
0.973802
0.971562
0.967117
0.961189
0.958532
0.966007
0.955439
0.953179
0.95072
0.956408
0.949033
0.946985
0.944085
0.945853
0.940058
0.937898
0.933983
0.931791
0.924382
0.921725
0.916249
0.908056
0.897758
0.894377
0.887909
0.871691
0.857987
0.853769
0.839606
0.824905
0.820196
0.803992
0.795361
0.770099
0.765418
0.748475
0.740155
0.715515
0.710527
0.691448
0.68266
0.659684
0.655918
0.642924
0.638581
0.621607
0.618677
0.609599
0.602884
0.597279
0.592593
0.590794
0.591124
0.579941
0.574677
0.57283
0.569803
0.568528
0.566634
0.565516
0.564122
0.566085
0.564353
0.563374
0.562326
0.562919
0.55999
0.558698
0.554104
0.543776
0.529772
0.526634
0.514487
0.509004
0.49131
0.487843
0.475277
0.464334
0.450005
0.43801
0.434941
0.422371
0.413946
0.403474
0.400786
0.388627
1.33035
1.3287
1.33547
1.33224
1.32227
1.33146
1.32832
1.32176
1.32147
1.31768
1.31344
1.31051
1.30339
1.29938
1.28692
1.28419
1.27496
1.26993
1.26386
1.25229
1.24794
1.23287
1.22775
1.21683
1.21191
1.20371
1.19224
1.18805
1.17443
1.16765
1.15826
1.15415
1.13624
1.13789
1.12963
1.12496
1.11572
1.11379
1.11074
1.10153
1.10106
1.09633
1.09339
1.08106
1.08549
1.08031
1.07692
1.07695
1.07312
1.07099
1.06679
1.06633
1.06518
1.06303
1.05724
1.05842
1.05446
1.05202
1.04278
1.04359
1.03664
1.03358
1.01842
1.01799
1.00742
1.0035
0.983164
0.978676
0.964182
0.959322
0.945778
0.927735
0.922888
0.904911
0.882374
0.868152
0.86324
0.844278
0.822167
0.80808
0.802786
0.781531
0.759404
0.746365
0.742342
0.727561
0.710699
0.703518
0.700402
0.689962
0.683231
0.675773
0.670575
0.668468
0.658288
0.656203
0.6506
0.648491
0.639472
0.643332
0.641468
0.640209
0.636201
0.640156
0.638636
0.637552
0.635201
0.635892
0.633356
0.631945
0.626413
0.613786
0.600377
0.596968
0.583505
0.570442
0.558138
0.554382
0.540544
0.520574
0.512545
0.499255
0.495858
0.48038
0.47178
0.460101
0.457084
0.443022
1.35296
1.3803
1.35693
1.35318
1.36406
1.35534
1.34849
1.3475
1.3545
1.33829
1.33506
1.35365
1.32522
1.31952
1.31507
1.31115
1.29476
1.29119
1.30757
1.27284
1.26728
1.25973
1.25291
1.23555
1.23168
1.24448
1.21169
1.20603
1.19683
1.19423
1.17582
1.17195
1.17347
1.15687
1.14608
1.1433
1.15537
1.13056
1.12684
1.12271
1.12254
1.11204
1.10937
1.1138
1.10274
1.09538
1.09313
1.11346
1.08885
1.08578
1.08382
1.09301
1.0802
1.0777
1.07617
1.07768
1.06901
1.06661
1.06565
1.06022
1.05076
1.04803
1.04845
1.03322
1.02103
1.01764
1.02024
0.992772
0.97703
0.972813
0.977076
0.940663
0.934978
0.917511
0.917706
0.879836
0.874221
0.855687
0.854017
0.818436
0.812531
0.791572
0.788728
0.755404
0.750827
0.736351
0.738978
0.711629
0.707983
0.697811
0.705189
0.683329
0.677534
0.675718
0.682304
0.663456
0.657214
0.655306
0.655727
0.65057
0.648021
0.64686
0.647094
0.647673
0.645212
0.644133
0.6437
0.644042
0.639943
0.638451
0.633792
0.623455
0.606639
0.603046
0.589851
0.587149
0.563941
0.559894
0.546087
0.538867
0.517827
0.503985
0.500588
0.487403
0.476652
0.464124
0.461036
0.447412
1.50186
1.50332
1.50774
1.50384
1.4966
1.50363
1.49955
1.49297
1.49378
1.48827
1.48342
1.4761
1.47282
1.46798
1.45537
1.45236
1.44143
1.43579
1.42447
1.41661
1.41144
1.39584
1.39001
1.37712
1.37158
1.35841
1.34981
1.34476
1.33011
1.32311
1.31143
1.30668
1.29036
1.28853
1.27873
1.2736
1.26602
1.26053
1.25683
1.24699
1.24618
1.23979
1.23637
1.2257
1.22776
1.22167
1.21796
1.21384
1.21307
1.21034
1.20556
1.20599
1.20276
1.20012
1.19397
1.19502
1.18965
1.18679
1.17764
1.17734
1.16913
1.16567
1.15188
1.14858
1.13661
1.13229
1.1142
1.10512
1.08889
1.08355
1.06561
1.04868
1.04306
1.02333
1.00115
0.98277
0.977053
0.956004
0.934232
0.915473
0.90935
0.885745
0.863737
0.846066
0.841304
0.824602
0.807985
0.797053
0.793304
0.78142
0.771635
0.764971
0.758737
0.756357
0.748217
0.742584
0.736085
0.733736
0.725638
0.727929
0.725556
0.724117
0.720332
0.724018
0.722018
0.720746
0.718289
0.719005
0.71574
0.714082
0.708098
0.695004
0.679655
0.675778
0.661035
0.648363
0.633061
0.628748
0.613501
0.594457
0.582409
0.567275
0.563428
0.546384
0.53606
0.522406
0.518921
0.503039
1.64827
1.62613
1.6558
1.65215
1.62567
1.64827
1.64831
1.63518
1.62857
1.63559
1.62897
1.59008
1.61715
1.6139
1.59211
1.58908
1.58552
1.57748
1.53729
1.55735
1.5531
1.52845
1.5228
1.51622
1.50871
1.46496
1.48495
1.48112
1.46016
1.44755
1.44456
1.43889
1.40364
1.41694
1.40904
1.40103
1.37464
1.38777
1.38436
1.36787
1.36556
1.36492
1.36067
1.33389
1.34924
1.3452
1.33964
1.31033
1.33398
1.33199
1.32376
1.31418
1.32209
1.31945
1.30787
1.30771
1.30711
1.30376
1.28554
1.2904
1.28434
1.28006
1.25127
1.26028
1.24918
1.24373
1.20328
1.21417
1.19796
1.19125
1.14787
1.15381
1.14862
1.12647
1.0834
1.08324
1.07771
1.05398
1.01351
1.01043
1.00435
0.977972
0.938088
0.935009
0.930284
0.91117
0.87648
0.880904
0.877275
0.863487
0.833576
0.845042
0.838585
0.835475
0.811456
0.820116
0.813624
0.810711
0.793254
0.803548
0.80163
0.799832
0.791321
0.798351
0.797221
0.795723
0.790746
0.791621
0.789859
0.788052
0.780456
0.763761
0.75121
0.747115
0.730738
0.707566
0.700952
0.696498
0.679783
0.647581
0.645912
0.629708
0.625361
0.603982
0.594336
0.57992
0.576034
0.557724
1.67828
1.67905
1.68482
1.68021
1.67309
1.68011
1.67535
1.66819
1.66905
1.66318
1.65752
1.64526
1.64623
1.64062
1.62707
1.62373
1.61181
1.60532
1.58872
1.58458
1.5786
1.56171
1.55519
1.54095
1.53456
1.51595
1.5106
1.50473
1.48856
1.48071
1.46763
1.46212
1.44487
1.4418
1.43056
1.42468
1.41596
1.40969
1.4053
1.39426
1.39291
1.38535
1.38134
1.37027
1.37164
1.36471
1.36046
1.35216
1.35436
1.35105
1.34538
1.3455
1.34145
1.3383
1.33133
1.33213
1.3258
1.32245
1.31257
1.31174
1.30249
1.29855
1.28431
1.2799
1.26668
1.26183
1.24257
1.23239
1.21454
1.2086
1.18607
1.17063
1.16428
1.14278
1.11822
1.09855
1.09205
1.06887
1.04494
1.02412
1.01719
0.991194
0.966955
0.947046
0.941536
0.922803
0.904133
0.891727
0.887339
0.873905
0.860905
0.855109
0.847797
0.845069
0.836646
0.829753
0.822351
0.819684
0.811556
0.813123
0.810222
0.808539
0.804587
0.808256
0.805808
0.804305
0.801545
0.802337
0.798463
0.796534
0.790014
0.776384
0.759482
0.75513
0.739107
0.725697
0.708713
0.703844
0.687188
0.667371
0.653058
0.636086
0.631736
0.6129
0.600994
0.585384
0.581395
0.563615
1.81943
1.80049
1.82763
1.82341
1.79712
1.81889
1.81908
1.80436
1.79773
1.80524
1.79761
1.76242
1.78496
1.78137
1.75758
1.75427
1.75084
1.74161
1.70423
1.72004
1.71531
1.68833
1.6821
1.6753
1.66666
1.62567
1.64076
1.63652
1.61315
1.59947
1.59621
1.58968
1.55351
1.56517
1.5565
1.5472
1.52089
1.53227
1.52835
1.50968
1.5067
1.50593
1.50096
1.47326
1.48791
1.48353
1.47707
1.4501
1.47016
1.46785
1.45812
1.44781
1.4557
1.45261
1.43934
1.43883
1.43818
1.43429
1.41436
1.41917
1.41274
1.40784
1.37821
1.38635
1.37452
1.36836
1.32924
1.33667
1.3193
1.31178
1.27019
1.27162
1.26597
1.24195
1.19947
1.19555
1.18947
1.16353
1.12256
1.11626
1.10957
1.08074
1.03999
1.03374
1.02845
1.00715
0.972318
0.973585
0.96949
0.954001
0.92515
0.933239
0.925872
0.922249
0.898684
0.905295
0.89809
0.894732
0.876202
0.886534
0.884275
0.882153
0.872557
0.88008
0.878792
0.877026
0.871189
0.872165
0.870281
0.868212
0.859808
0.842241
0.829082
0.824574
0.806877
0.782675
0.775042
0.770144
0.752041
0.719093
0.715332
0.697512
0.692632
0.66888
0.658172
0.642121
0.637735
0.617358
1.8525
1.85332
1.85946
1.85412
1.84705
1.85388
1.8485
1.84068
1.84134
1.83529
1.82882
1.81561
1.81678
1.81042
1.7959
1.79211
1.77939
1.77202
1.75405
1.74978
1.74298
1.7248
1.71752
1.70211
1.69484
1.67457
1.66876
1.66207
1.64433
1.63548
1.62122
1.61492
1.59664
1.59233
1.57971
1.57301
1.56306
1.55604
1.55095
1.53857
1.53652
1.52794
1.52327
1.51156
1.51227
1.50446
1.4996
1.49159
1.49216
1.48826
1.48157
1.48105
1.47648
1.47278
1.46486
1.46529
1.45818
1.45429
1.44358
1.44228
1.43211
1.42764
1.41282
1.40755
1.39321
1.38781
1.36775
1.35636
1.33706
1.3305
1.30623
1.28983
1.28279
1.25965
1.23335
1.21219
1.20495
1.17976
1.15376
1.13118
1.12348
1.09523
1.06869
1.04692
1.04068
1.01992
0.999271
0.98545
0.980431
0.965414
0.950781
0.944261
0.935853
0.932713
0.923582
0.91584
0.907527
0.904481
0.895865
0.897004
0.893535
0.891563
0.887196
0.890917
0.888032
0.886267
0.883069
0.883934
0.879546
0.877337
0.870252
0.856141
0.838055
0.833242
0.816029
0.801525
0.783535
0.778133
0.760157
0.739191
0.723227
0.7045
0.699636
0.67893
0.665612
0.648134
0.643634
0.623959
1.99788
1.97767
2.00686
2.00218
1.97323
1.9962
1.99744
1.97997
1.97236
1.98225
1.97325
1.93606
1.9596
1.95612
1.92893
1.92525
1.92341
1.91246
1.87265
1.8895
1.88457
1.8539
1.84703
1.84132
1.83112
1.7873
1.80291
1.79862
1.77178
1.75628
1.75425
1.74665
1.7068
1.71889
1.71004
1.6988
1.66974
1.68226
1.67793
1.65591
1.65195
1.65212
1.64622
1.61528
1.63084
1.6266
1.61878
1.58956
1.61048
1.60808
1.59611
1.58377
1.59326
1.58974
1.57385
1.57274
1.57305
1.56851
1.5456
1.55099
1.54486
1.53915
1.50667
1.51568
1.50362
1.49649
1.45493
1.46265
1.44452
1.43587
1.39156
1.39316
1.38729
1.36116
1.31559
1.31174
1.3053
1.27686
1.23246
1.22597
1.21883
1.18729
1.14286
1.13626
1.1305
1.10671
1.06854
1.06973
1.06527
1.04778
1.01624
1.02451
1.01628
1.01194
0.98615
0.993188
0.985367
0.981407
0.960518
0.97186
0.969396
0.966837
0.955384
0.963785
0.962595
0.960495
0.953317
0.954399
0.952838
0.950487
0.941022
0.922243
0.909307
0.904402
0.885288
0.858845
0.851655
0.846364
0.826804
0.791271
0.787267
0.767919
0.762417
0.735737
0.724235
0.706698
0.701759
0.679037
2.03438
2.03295
2.04199
2.03597
2.02625
2.03477
2.02972
2.01988
2.0192
2.01527
2.00757
1.99299
1.99469
1.98794
1.97081
1.96658
1.95472
1.94591
1.92626
1.92225
1.91489
1.89379
1.8858
1.87072
1.86211
1.8397
1.83377
1.82659
1.80606
1.7953
1.78166
1.77431
1.75242
1.74881
1.73536
1.72714
1.71363
1.7083
1.70256
1.68752
1.68447
1.67609
1.67054
1.65578
1.65754
1.6493
1.64335
1.63229
1.63447
1.63015
1.6217
1.61898
1.6158
1.61154
1.60161
1.60148
1.59466
1.59013
1.57706
1.5762
1.56577
1.56057
1.54309
1.53879
1.52379
1.51757
1.4947
1.48412
1.46374
1.45624
1.42992
1.41307
1.40553
1.3805
1.3508
1.32999
1.32214
1.29469
1.26482
1.24241
1.23402
1.20327
1.17267
1.15082
1.1439
1.12081
1.09663
1.08283
1.07724
1.06035
1.04374
1.03665
1.02715
1.02341
1.01198
1.0048
0.995624
0.992051
0.981535
0.983374
0.979431
0.977057
0.971391
0.975706
0.972593
0.970497
0.966363
0.967369
0.962873
0.960353
0.952467
0.937505
0.919097
0.913823
0.895338
0.878492
0.861001
0.855093
0.83574
0.812333
0.79604
0.775611
0.770144
0.746973
0.732591
0.713339
0.708269
0.686433
2.18434
2.15858
2.19418
2.18925
2.15442
2.18084
2.18428
2.16272
2.15308
2.1674
2.15667
2.11251
2.14178
2.13902
2.10682
2.10272
2.10406
2.09083
2.04398
2.06645
2.06179
2.02584
2.01831
2.01522
2.00296
1.95144
1.9722
1.96842
1.93681
1.91869
1.91955
1.91068
1.86398
1.87882
1.8706
1.8566
1.82177
1.8385
1.83398
1.80722
1.80191
1.8043
1.79725
1.76035
1.77863
1.77525
1.76547
1.72977
1.75558
1.75345
1.73836
1.72257
1.73542
1.73157
1.71193
1.70994
1.71238
1.7071
1.67972
1.68637
1.68141
1.67464
1.637
1.64879
1.63718
1.62873
1.58105
1.59268
1.57434
1.56416
1.51327
1.51906
1.51336
1.48475
1.43262
1.43252
1.42599
1.39469
1.34382
1.34034
1.33297
1.29834
1.24729
1.2433
1.23728
1.21056
1.16586
1.17002
1.1654
1.1455
1.10786
1.11943
1.11048
1.10515
1.07429
1.0843
1.07605
1.07129
1.04645
1.05996
1.05753
1.05439
1.04013
1.04983
1.04913
1.04662
1.0375
1.03864
1.03801
1.03537
1.02451
1.0041
0.992397
0.987141
0.966462
0.936387
0.931325
0.925748
0.90463
0.864406
0.862259
0.841554
0.835321
0.805008
0.793019
0.774255
0.768706
0.74326
2.21034
2.21183
2.218
2.21121
2.2027
2.20961
2.20394
2.19359
2.19271
2.18837
2.17985
2.17118
2.16616
2.15865
2.14089
2.13589
2.12338
2.11368
2.09936
2.08861
2.08042
2.05829
2.04924
2.03322
2.02367
2.00597
1.99324
1.98523
1.96317
1.95117
1.93652
1.92827
1.90609
1.90028
1.8855
1.8763
1.86246
1.85528
1.84877
1.83215
1.82798
1.81879
1.81246
1.79723
1.7976
1.78846
1.78172
1.77437
1.77119
1.76627
1.75651
1.75287
1.74928
1.74444
1.73331
1.73253
1.72522
1.72009
1.70609
1.70467
1.69354
1.68775
1.67001
1.66459
1.64873
1.64187
1.61987
1.60677
1.58526
1.57707
1.55366
1.53182
1.52366
1.49718
1.46781
1.44403
1.4355
1.40623
1.37546
1.35064
1.34155
1.30868
1.27663
1.25244
1.24481
1.21962
1.19448
1.17829
1.17209
1.15344
1.13788
1.12719
1.11657
1.11223
1.10015
1.09187
1.0818
1.07768
1.06595
1.06768
1.06316
1.06037
1.05365
1.0582
1.05477
1.05234
1.04738
1.04842
1.04375
1.04092
1.03234
1.01681
0.998115
0.992392
0.972841
0.954621
0.936959
0.930565
0.910007
0.885386
0.867854
0.845847
0.8398
0.814392
0.798939
0.778013
0.772383
0.748486
2.23904
2.26276
2.24319
2.23519
2.2496
2.24014
2.22524
2.22752
2.23536
2.21059
2.2052
2.21759
2.19191
2.17993
2.17781
2.17144
2.1439
2.13873
2.14567
2.11201
2.1006
2.09353
2.08233
2.05236
2.04631
2.04932
2.01546
2.00341
1.99219
1.98609
1.95452
1.94738
1.94658
1.92291
1.90131
1.89791
1.90402
1.87294
1.86467
1.85947
1.85572
1.83407
1.82887
1.83332
1.81747
1.80238
1.79935
1.81116
1.78749
1.7799
1.77637
1.78524
1.76378
1.75812
1.75672
1.7564
1.73866
1.73393
1.73419
1.7238
1.70629
1.70177
1.70227
1.68108
1.6609
1.65598
1.65319
1.62154
1.5968
1.591
1.58505
1.54523
1.53469
1.51062
1.50004
1.45619
1.44574
1.41876
1.40611
1.36156
1.3508
1.31994
1.30522
1.26212
1.25294
1.22946
1.22085
1.18701
1.17928
1.16204
1.16069
1.13531
1.12296
1.11982
1.12256
1.09972
1.08782
1.0845
1.08532
1.07565
1.06903
1.06669
1.06849
1.06681
1.06065
1.05836
1.05834
1.0585
1.04971
1.04675
1.04088
1.03012
1.00408
0.997937
0.979722
0.974211
0.942873
0.935706
0.915794
0.90348
0.873737
0.850427
0.84464
0.825004
0.805104
0.782027
0.776359
0.754365
2.3985
2.40103
2.40658
2.39921
2.3891
2.39588
2.39125
2.37826
2.37641
2.37418
2.36412
2.35403
2.34942
2.34194
2.32117
2.31544
2.3046
2.29301
2.27764
2.26662
2.25815
2.23264
2.22259
2.2078
2.19647
2.17685
2.16369
2.15557
2.12995
2.11593
2.10251
2.09296
2.06776
2.06133
2.04637
2.0349
2.01911
2.01192
2.00487
1.98463
1.97898
1.97079
1.9633
1.94503
1.94544
1.93637
1.92796
1.91838
1.91562
1.91056
1.8982
1.89235
1.8903
1.88492
1.87095
1.86927
1.86313
1.85722
1.84028
1.83918
1.82858
1.82182
1.80164
1.79676
1.78094
1.77296
1.74947
1.73609
1.71413
1.70465
1.67917
1.6575
1.64918
1.62063
1.58983
1.56509
1.55624
1.5245
1.49137
1.46579
1.45626
1.42064
1.38574
1.36064
1.35254
1.32457
1.2969
1.27973
1.27314
1.25217
1.23361
1.223
1.21136
1.20607
1.19161
1.18359
1.17283
1.16789
1.15332
1.15604
1.15126
1.14786
1.13881
1.14422
1.14098
1.13811
1.13145
1.13256
1.12853
1.12537
1.11563
1.09896
1.08127
1.07514
1.05428
1.03381
1.01725
1.01049
0.988551
0.96133
0.943956
0.920556
0.913783
0.885135
0.869095
0.846797
0.840527
0.81401
2.4426
2.45428
2.44789
2.43899
2.44393
2.44185
2.42838
2.42643
2.43016
2.4123
2.40485
2.40365
2.39075
2.37868
2.37089
2.36437
2.34049
2.33287
2.32593
2.30504
2.29312
2.2802
2.26872
2.24146
2.23322
2.22216
2.19998
2.18759
2.17158
2.16169
2.13394
2.12522
2.11425
2.09679
2.07489
2.06882
2.06398
2.04193
2.03287
2.0227
2.01742
1.9978
1.99124
1.98695
1.97667
1.96153
1.9566
1.95608
1.94299
1.935
1.92853
1.93157
1.91551
1.90912
1.90394
1.9028
1.88701
1.88134
1.87629
1.86845
1.85152
1.8459
1.83888
1.82332
1.80304
1.79686
1.7841
1.76065
1.73524
1.72804
1.71076
1.68029
1.66934
1.6431
1.62158
1.58606
1.575
1.54544
1.52225
1.48477
1.47329
1.43955
1.41434
1.37754
1.3676
1.34125
1.32231
1.29493
1.28654
1.26689
1.25575
1.23706
1.22339
1.21928
1.21422
1.19698
1.18409
1.17996
1.17571
1.16935
1.1622
1.15923
1.15808
1.15809
1.15187
1.14909
1.14733
1.14787
1.1395
1.13613
1.12918
1.1171
1.09216
1.0855
1.06599
1.05485
1.02789
1.02017
0.998857
0.980362
0.954239
0.92922
0.922649
0.899561
0.879238
0.854343
0.847941
0.823315
2.61188
2.60564
2.62134
2.61394
2.59333
2.60598
2.60618
2.58555
2.58037
2.58667
2.57363
2.55135
2.55726
2.55181
2.52211
2.51604
2.51212
2.49647
2.46942
2.46879
2.46146
2.42681
2.41621
2.40749
2.39257
2.36012
2.35674
2.35028
2.31654
2.2986
2.29154
2.27997
2.24343
2.2422
2.22972
2.21323
2.18871
2.18883
2.18192
2.15352
2.14588
2.14265
2.13328
2.1048
2.11009
2.10341
2.09149
2.07143
2.07712
2.07306
2.05533
2.04383
2.04829
2.04264
2.02215
2.01919
2.01782
2.01079
1.98609
1.98766
1.98024
1.97172
1.94279
1.94341
1.92961
1.91936
1.88612
1.88015
1.85927
1.84715
1.81121
1.79802
1.79063
1.75862
1.71845
1.70069
1.69234
1.65669
1.61463
1.59479
1.5855
1.54571
1.5018
1.48168
1.47365
1.44161
1.40481
1.39275
1.38635
1.36188
1.33387
1.32917
1.31695
1.30995
1.28758
1.28457
1.2737
1.26741
1.24621
1.25275
1.24847
1.24412
1.23015
1.23778
1.23587
1.23236
1.22234
1.2236
1.22183
1.21831
1.20638
1.18737
1.17304
1.16663
1.14384
1.11827
1.10608
1.09922
1.07547
1.04141
1.02811
1.00372
0.995902
0.962005
0.946176
0.923144
0.916061
0.88583
2.65981
2.66067
2.66669
2.65726
2.65138
2.65593
2.64655
2.6374
2.63628
2.62843
2.61794
2.60447
2.60254
2.59174
2.57528
2.56815
2.55136
2.53984
2.52036
2.51096
2.4995
2.47772
2.46555
2.44431
2.43263
2.40863
2.39661
2.38511
2.3615
2.34675
2.32596
2.31514
2.29257
2.28105
2.26077
2.25013
2.23419
2.22172
2.2123
2.19438
2.18687
2.17206
2.16356
2.14885
2.14416
2.13064
2.12245
2.11062
2.10695
2.09935
2.08799
2.08393
2.0756
2.06862
2.05735
2.05486
2.04356
2.03667
2.024
2.01932
2.00488
1.99759
1.9817
1.97228
1.95333
1.94511
1.92276
1.90689
1.88199
1.87244
1.84487
1.82292
1.81232
1.78302
1.75116
1.72368
1.71262
1.67955
1.646
1.61569
1.60398
1.56645
1.5308
1.50036
1.49004
1.45994
1.43092
1.40956
1.4009
1.37805
1.35758
1.34468
1.32999
1.32437
1.31143
1.29936
1.28586
1.2805
1.26981
1.26739
1.26025
1.25638
1.25064
1.25302
1.24756
1.24415
1.23942
1.24033
1.23364
1.22983
1.22106
1.20673
1.18486
1.17777
1.15659
1.13913
1.11778
1.10969
1.08674
1.06187
1.03957
1.01321
1.00564
0.977735
0.957628
0.931453
0.924196
0.896149
2.83944
2.81724
2.85023
2.84344
2.80596
2.82898
2.8363
2.80515
2.79501
2.81331
2.79674
2.75515
2.77797
2.77605
2.73398
2.72796
2.7336
2.71287
2.66721
2.68357
2.67863
2.63151
2.62079
2.62066
2.60128
2.54908
2.56169
2.55838
2.51389
2.49092
2.49297
2.47913
2.42522
2.43351
2.42536
2.40217
2.36346
2.37632
2.37032
2.33104
2.32109
2.32489
2.31328
2.26941
2.28304
2.28034
2.26365
2.2269
2.24679
2.24484
2.21991
2.2005
2.2143
2.20877
2.17964
2.17514
2.18042
2.17215
2.13683
2.14231
2.13977
2.12902
2.08699
2.09648
2.08622
2.07299
2.02433
2.03102
2.0126
1.99694
1.94524
1.94579
1.94045
1.904
1.84896
1.84385
1.83693
1.7964
1.74018
1.73146
1.7232
1.6783
1.6202
1.61016
1.60297
1.56584
1.5146
1.51259
1.5071
1.47817
1.43573
1.44127
1.42904
1.41969
1.38466
1.39062
1.38029
1.37219
1.34126
1.35371
1.35071
1.34513
1.32443
1.33493
1.33529
1.33106
1.31649
1.31778
1.3195
1.31568
1.30079
1.27883
1.26946
1.26299
1.23785
1.20463
1.19982
1.1933
1.16744
1.12282
1.11719
1.09246
1.08336
1.0428
1.02765
1.0047
0.99672
0.961904
2.87611
2.87767
2.88342
2.87363
2.86421
2.86854
2.86232
2.84797
2.84473
2.84189
2.82891
2.81956
2.81189
2.80221
2.78013
2.77173
2.75955
2.74476
2.72853
2.71445
2.70345
2.67571
2.66205
2.64484
2.63015
2.60894
2.5912
2.58054
2.55089
2.53287
2.51598
2.50322
2.47562
2.46356
2.44471
2.4299
2.41041
2.39941
2.38971
2.36549
2.35558
2.34403
2.3337
2.31365
2.30924
2.29714
2.28593
2.27339
2.26802
2.26094
2.24498
2.23696
2.23254
2.22508
2.20866
2.20465
2.19677
2.18876
2.17083
2.16702
2.15488
2.14599
2.12586
2.11795
2.10044
2.09026
2.06623
2.05018
2.02603
2.01423
1.98818
1.96319
1.95308
1.92098
1.88753
1.85968
1.84877
1.81245
1.77572
1.74579
1.73401
1.6929
1.65338
1.62302
1.61253
1.57866
1.5464
1.52427
1.51552
1.48932
1.46791
1.45221
1.43667
1.42936
1.41308
1.4013
1.38741
1.38066
1.36531
1.36459
1.35763
1.35277
1.34285
1.34669
1.34224
1.33815
1.3304
1.33135
1.32663
1.32241
1.31172
1.29556
1.27686
1.2694
1.24664
1.22578
1.20749
1.19922
1.17473
1.14673
1.1253
1.09797
1.08934
1.05681
1.03668
1.00967
1.00154
0.96989
2.91612
2.93085
2.91865
2.90677
2.91631
2.91094
2.89066
2.89317
2.89663
2.87202
2.86412
2.86726
2.84793
2.83076
2.82719
2.81854
2.78691
2.77966
2.77572
2.74717
2.73055
2.72089
2.70626
2.67034
2.66181
2.65321
2.62248
2.60468
2.59023
2.57735
2.54023
2.52958
2.51997
2.49558
2.46507
2.46026
2.45455
2.42369
2.4107
2.40163
2.39246
2.36403
2.35586
2.35313
2.33693
2.31458
2.31013
2.31094
2.29007
2.278
2.27215
2.27446
2.25136
2.24239
2.23931
2.23606
2.2137
2.20651
2.20441
2.19313
2.17059
2.16426
2.16034
2.14048
2.11526
2.10892
2.0993
2.07025
2.04007
2.03303
2.01868
1.98141
1.96662
1.93946
1.91945
1.87629
1.86152
1.83001
1.80681
1.76083
1.74568
1.70893
1.68255
1.63654
1.62287
1.59275
1.57279
1.53651
1.52458
1.50147
1.4902
1.46357
1.44455
1.43979
1.43539
1.41233
1.39476
1.38976
1.38663
1.37583
1.36476
1.3609
1.36157
1.35887
1.34936
1.34562
1.34551
1.34558
1.33395
1.32948
1.32372
1.31347
1.28444
1.27613
1.25623
1.24677
1.2154
1.2055
1.18263
1.16535
1.13372
1.10379
1.09585
1.07171
1.04609
1.01491
1.00676
0.978939
3.11248
3.11021
3.12038
3.11082
3.09344
3.09996
3.09955
3.07654
3.0715
3.07541
3.05895
3.04066
3.03961
3.03281
3.00161
2.99263
2.98738
2.96765
2.94356
2.93575
2.92667
2.88951
2.87499
2.86417
2.84501
2.81436
2.80246
2.79449
2.7555
2.73436
2.72322
2.70802
2.67107
2.66083
2.64565
2.62429
2.59927
2.59185
2.58282
2.54913
2.53688
2.53044
2.51773
2.48859
2.48617
2.47747
2.46146
2.44217
2.44069
2.43545
2.41249
2.40016
2.40087
2.39335
2.36928
2.3638
2.36124
2.35186
2.32604
2.32382
2.31607
2.30486
2.27734
2.27289
2.25879
2.24553
2.21466
2.20312
2.18151
2.16608
2.13203
2.11347
2.10535
2.06891
2.02954
2.00592
1.99644
1.95531
1.91248
1.88608
1.87536
1.82913
1.78295
1.75551
1.74582
1.70668
1.66732
1.64789
1.64004
1.60908
1.57893
1.5675
1.55178
1.54188
1.51846
1.50987
1.49641
1.48762
1.46521
1.4674
1.4616
1.45534
1.43937
1.4451
1.44289
1.43797
1.4257
1.42663
1.42538
1.42081
1.40717
1.38888
1.37485
1.36733
1.34231
1.31751
1.30349
1.29562
1.2691
1.23506
1.2173
1.18986
1.17984
1.14098
1.12129
1.0945
1.08538
1.0489
3.16911
3.16808
3.17368
3.16157
3.15501
3.15812
3.14587
3.13645
3.13275
3.12382
3.11102
3.09599
3.09267
3.07881
3.06165
3.05155
3.03252
3.01872
2.99674
2.98524
2.97054
2.94718
2.93118
2.90658
2.89228
2.86489
2.84948
2.83447
2.80787
2.78804
2.76313
2.74921
2.7227
2.70663
2.68091
2.66798
2.6467
2.63031
2.61752
2.5961
2.58336
2.56403
2.55273
2.53462
2.52591
2.50781
2.4976
2.48201
2.4751
2.46466
2.45045
2.44266
2.43176
2.42233
2.40925
2.40375
2.38986
2.38083
2.36714
2.36007
2.34317
2.334
2.31725
2.30607
2.2847