/*--------------------------------*- C++ -*----------------------------------*\
| =========                 |                                                 |
| \\      /  F ield         | OpenFOAM: The Open Source CFD Toolbox           |
|  \\    /   O peration     | Version:  v2012                                 |
|   \\  /    A nd           | Website:  www.openfoam.com                      |
|    \\/     M anipulation  |                                                 |
\*---------------------------------------------------------------------------*/
FoamFile
{
    version     2.0;
    format      ascii;
    class       volScalarField;
    location    "1e-06";
    object      kPrime2Mean;
}
// * * * * * * * * * * * * * * * * * * * * * * * * * * * * * * * * * * * * * //

dimensions      [0 4 -4 0 0 0 0];


internalField   nonuniform List<scalar> 
10123
(
8.83698e-07
1.14493e-06
6.89911e-07
6.27054e-07
1.3237e-06
8.26863e-07
4.16237e-07
9.31382e-07
9.98042e-07
5.00634e-07
7.61903e-07
7.89226e-08
6.51482e-07
4.12107e-07
8.94007e-07
7.95959e-07
3.86755e-07
6.89274e-07
6.27187e-08
5.22913e-07
3.5471e-07
7.45797e-07
6.54181e-07
3.1936e-07
5.4705e-07
4.37513e-08
4.5738e-07
2.77328e-07
5.63985e-07
5.76354e-07
2.97217e-07
3.42967e-07
6.7391e-07
4.16537e-07
1.93597e-07
3.96281e-07
5.40151e-07
3.01697e-07
2.34134e-07
4.5205e-07
4.23724e-07
2.24001e-07
2.7428e-07
5.34028e-07
3.38806e-07
1.64905e-07
3.40125e-07
2.56593e-08
2.73435e-07
1.71143e-07
3.34504e-07
4.06881e-07
2.26151e-07
1.94773e-07
3.69641e-07
3.45147e-07
1.83978e-07
2.06674e-07
3.88207e-07
2.87075e-07
1.44688e-07
2.03531e-07
3.88704e-07
2.30932e-07
9.96077e-08
1.88702e-07
2.92863e-07
1.75249e-07
6.91208e-08
1.73141e-07
1.99041e-08
1.32862e-07
7.09168e-08
1.23567e-07
1.41702e-07
9.21561e-08
5.59677e-08
9.56002e-08
1.51575e-07
8.39104e-08
5.71713e-08
1.03208e-07
1.39085e-07
9.6115e-08
6.14427e-08
9.68266e-08
1.04335e-07
7.54579e-08
4.46039e-08
7.91367e-08
3.81826e-10
7.30099e-08
3.69694e-08
7.084e-08
1.15363e-07
6.90459e-08
3.59615e-08
5.86029e-08
1.03515e-07
6.39901e-08
3.57022e-08
4.92866e-08
8.75144e-08
6.42457e-08
3.65104e-08
4.20814e-08
7.45685e-08
6.65134e-08
3.63902e-08
3.62934e-08
6.13092e-08
6.27484e-08
3.67226e-08
2.63181e-08
4.51955e-08
5.54267e-08
3.2544e-08
1.72609e-08
3.12233e-08
5.14874e-08
2.59572e-08
1.34726e-08
1.7879e-08
3.47702e-08
2.40954e-08
1.46097e-08
1.60946e-08
2.70905e-08
2.56074e-09
3.43165e-08
7.33057e-09
3.66833e-09
2.85627e-09
1.66866e-08
2.58956e-08
1.58229e-08
2.06695e-08
6.91046e-08
4.65095e-08
1.00759e-07
9.40519e-08
8.42977e-08
8.4693e-08
1.14646e-07
1.46518e-07
1.31152e-07
8.57721e-08
1.80918e-07
1.55342e-07
1.78259e-07
2.05663e-07
2.05019e-07
2.0718e-07
1.78465e-07
2.45311e-07
2.0341e-07
2.49998e-07
2.54293e-07
2.36664e-07
2.27442e-07
2.12513e-07
2.66578e-07
2.11328e-07
2.54078e-07
1.84711e-07
2.46866e-07
2.17273e-07
2.6744e-07
2.69463e-07
2.21259e-07
2.26671e-07
2.25354e-07
2.56134e-07
1.99268e-07
2.43855e-07
9.52288e-08
2.35613e-07
1.96894e-07
2.53319e-07
2.44808e-07
2.30387e-07
2.11824e-07
2.67729e-07
2.7261e-07
2.23212e-07
2.26825e-07
2.6859e-07
2.74627e-07
2.17573e-07
2.3724e-07
2.40527e-07
2.68197e-07
2.08438e-07
2.39107e-07
1.39834e-07
2.48103e-07
1.86145e-07
2.28218e-07
1.02442e-07
2.09616e-07
1.61099e-07
1.94242e-07
7.43351e-08
1.79243e-07
1.39922e-07
1.59716e-07
8.08742e-08
1.28584e-07
1.01543e-07
1.09907e-07
5.26129e-08
8.58652e-08
6.89757e-08
7.58023e-08
2.2926e-08
6.20078e-08
5.00903e-08
5.508e-08
2.88428e-08
5.06713e-08
4.11719e-08
4.71894e-08
2.3165e-08
4.66782e-08
3.94814e-08
4.42045e-08
4.33032e-08
5.26407e-08
4.54199e-08
4.93454e-08
5.92985e-08
6.26542e-08
5.24206e-08
5.39964e-08
6.78109e-08
7.01936e-08
5.89663e-08
5.59163e-08
7.01671e-08
6.8478e-08
5.58174e-08
4.76806e-08
5.69218e-08
4.64745e-08
4.98551e-08
3.86484e-08
4.50317e-08
3.15257e-08
4.02414e-08
2.9958e-08
3.20188e-08
3.15709e-08
2.68196e-08
1.8855e-08
8.8498e-08
1.70263e-08
4.63596e-06
1.69137e-06
4.96144e-06
5.05833e-06
2.98854e-06
4.81072e-06
5.33158e-06
4.6793e-06
4.21606e-06
5.36052e-06
5.52235e-06
1.57305e-06
5.35557e-06
5.55931e-06
4.74381e-06
4.96406e-06
5.59222e-06
5.56391e-06
1.80333e-06
5.42184e-06
5.53033e-06
4.71931e-06
4.90944e-06
5.40575e-06
5.39237e-06
1.22649e-06
5.13574e-06
5.24371e-06
4.69738e-06
4.32038e-06
4.98171e-06
4.94315e-06
2.95036e-06
4.6386e-06
4.78876e-06
4.54423e-06
2.47621e-06
4.52877e-06
4.54634e-06
4.02341e-06
4.01425e-06
4.40439e-06
4.34223e-06
2.85302e-06
4.12735e-06
4.25374e-06
4.1203e-06
9.75037e-07
4.09653e-06
4.1293e-06
3.88156e-06
3.19402e-06
4.04289e-06
4.0327e-06
3.64839e-06
3.66062e-06
3.96498e-06
3.91243e-06
3.2367e-06
3.68605e-06
3.81335e-06
3.73285e-06
2.45209e-06
3.51588e-06
3.54322e-06
3.44569e-06
1.23755e-06
3.17299e-06
3.1148e-06
2.99528e-06
6.09708e-07
2.68325e-06
2.71159e-06
2.48087e-06
7.75051e-07
2.20096e-06
2.19855e-06
1.97208e-06
7.63909e-07
1.6988e-06
1.68724e-06
1.48187e-06
5.79704e-07
1.26738e-06
1.26404e-06
1.13766e-06
3.64793e-07
1.02245e-06
1.01444e-06
9.60565e-07
2.07361e-07
9.0034e-07
8.96267e-07
8.6386e-07
3.50886e-07
8.17807e-07
8.15793e-07
7.93121e-07
5.71526e-07
7.79384e-07
7.98684e-07
7.9004e-07
6.89681e-07
7.83126e-07
8.11801e-07
7.99773e-07
7.50006e-07
7.68687e-07
8.03503e-07
7.9398e-07
7.47703e-07
6.59167e-07
6.7721e-07
6.66867e-07
6.0476e-07
3.77709e-07
5.35312e-07
5.29727e-07
4.77099e-07
2.15555e-07
4.00797e-07
3.73988e-07
3.57587e-07
2.8939e-07
2.84502e-07
2.68849e-07
7.19572e-08
2.20783e-07
2.9548e-06
1.0392e-06
3.40968e-06
3.37188e-06
1.99104e-06
3.57271e-06
3.80287e-06
3.44803e-06
3.16999e-06
4.27172e-06
4.01085e-06
2.9498e-06
4.35956e-06
4.40437e-06
3.74565e-06
4.05965e-06
4.74734e-06
4.41484e-06
3.26198e-06
4.66155e-06
4.64844e-06
3.93213e-06
4.20894e-06
4.75212e-06
4.47257e-06
2.85018e-06
4.53165e-06
4.55193e-06
4.04558e-06
3.76892e-06
4.42122e-06
4.26001e-06
2.45656e-06
4.06969e-06
4.23048e-06
3.9338e-06
2.06406e-06
3.97373e-06
3.93926e-06
3.44376e-06
3.48341e-06
3.84482e-06
3.71727e-06
2.34169e-06
3.56166e-06
3.6839e-06
3.4975e-06
1.34643e-06
3.50357e-06
3.55175e-06
3.31942e-06
2.73111e-06
3.52106e-06
3.48031e-06
3.12778e-06
3.20115e-06
3.50423e-06
3.41684e-06
2.79105e-06
3.28876e-06
3.44314e-06
3.31716e-06
2.11986e-06
3.20829e-06
3.27743e-06
3.12592e-06
1.14282e-06
2.95306e-06
2.93572e-06
2.76612e-06
1.61124e-06
2.5535e-06
2.56728e-06
2.34047e-06
7.63104e-07
2.10481e-06
2.09005e-06
1.85616e-06
7.09488e-07
1.60224e-06
1.58053e-06
1.36682e-06
5.18966e-07
1.15801e-06
1.14707e-06
1.01655e-06
3.24019e-07
8.95814e-07
8.91931e-07
8.04975e-07
4.82359e-07
7.49755e-07
7.42502e-07
7.02437e-07
2.7823e-07
6.6941e-07
6.78332e-07
6.51349e-07
4.60723e-07
6.71468e-07
6.98417e-07
6.78509e-07
5.9258e-07
6.95646e-07
7.26574e-07
7.09909e-07
6.64881e-07
7.00249e-07
7.38426e-07
7.25871e-07
6.84884e-07
6.19611e-07
6.41426e-07
6.2857e-07
5.73115e-07
3.65934e-07
5.22991e-07
5.14827e-07
4.64835e-07
2.07758e-07
3.95866e-07
3.68361e-07
3.47397e-07
2.73925e-07
2.71466e-07
2.46576e-07
1.76342e-08
1.90973e-07
3.8713e-07
1.14909e-07
4.15308e-07
3.9408e-07
1.88967e-07
3.7648e-07
4.08825e-07
3.41031e-07
2.49295e-07
4.10183e-07
3.73301e-07
7.41875e-08
3.79215e-07
3.75329e-07
2.8259e-07
2.85525e-07
3.76883e-07
3.35753e-07
3.22521e-08
3.42611e-07
3.32619e-07
2.47359e-07
2.53665e-07
3.24099e-07
2.92253e-07
7.98426e-08
2.86262e-07
2.82892e-07
2.29568e-07
1.82028e-07
2.63758e-07
2.41245e-07
9.72135e-08
2.19808e-07
2.35436e-07
2.07379e-07
6.76485e-08
2.11466e-07
2.06553e-07
1.60738e-07
1.53577e-07
1.95613e-07
1.82446e-07
7.94985e-08
1.70416e-07
1.84351e-07
1.69538e-07
2.57396e-10
1.69601e-07
1.73977e-07
1.54378e-07
9.15011e-08
1.70493e-07
1.66429e-07
1.3625e-07
1.35677e-07
1.7075e-07
1.63261e-07
1.10838e-07
1.5265e-07
1.71774e-07
1.61111e-07
7.32868e-08
1.59201e-07
1.70882e-07
1.58038e-07
2.69785e-08
1.57017e-07
1.63234e-07
1.51744e-07
4.01106e-08
1.50691e-07
1.51021e-07
1.38098e-07
3.07171e-08
1.33382e-07
1.32517e-07
1.19141e-07
3.34524e-08
1.1195e-07
1.10149e-07
9.73428e-08
2.70208e-08
8.84136e-08
8.67656e-08
7.81904e-08
1.75378e-08
7.14866e-08
7.03906e-08
6.41182e-08
9.99979e-09
5.97392e-08
5.82184e-08
5.49615e-08
1.14332e-08
5.07191e-08
4.99915e-08
4.73759e-08
2.40956e-08
4.48397e-08
4.54097e-08
4.35311e-08
3.21813e-08
4.15392e-08
4.35316e-08
4.21595e-08
3.69057e-08
3.96196e-08
4.38659e-08
4.28117e-08
4.01757e-08
3.42744e-08
4.21643e-08
4.11093e-08
3.86346e-08
1.673e-08
3.86148e-08
3.76471e-08
3.52719e-08
1.05892e-08
3.22225e-08
3.06643e-08
2.90293e-08
2.18208e-08
2.43656e-08
2.33863e-08
2.063e-08
1.88727e-08
1.29729e-05
4.8118e-06
1.38163e-05
1.39625e-05
7.42629e-06
1.32866e-05
1.43863e-05
1.2535e-05
1.04727e-05
1.44786e-05
1.42128e-05
4.96003e-06
1.39553e-05
1.43964e-05
1.15735e-05
1.20228e-05
1.41177e-05
1.35911e-05
4.18108e-06
1.33267e-05
1.35803e-05
1.0892e-05
1.13314e-05
1.29595e-05
1.25743e-05
4.35632e-06
1.20116e-05
1.22897e-05
1.06152e-05
9.31228e-06
1.14875e-05
1.12999e-05
5.80194e-06
1.04465e-05
1.08459e-05
1.01543e-05
4.79188e-06
1.01671e-05
1.01932e-05
8.65707e-06
8.55024e-06
9.78479e-06
9.59854e-06
5.48381e-06
9.05051e-06
9.42052e-06
9.01547e-06
2.75293e-06
8.97714e-06
9.0944e-06
8.42591e-06
6.29328e-06
8.85707e-06
8.82175e-06
7.71741e-06
7.69196e-06
8.65024e-06
8.52317e-06
6.56081e-06
7.90845e-06
8.30796e-06
8.11613e-06
4.64387e-06
7.63609e-06
7.74942e-06
7.50684e-06
2.46719e-06
6.97835e-06
6.89061e-06
6.6036e-06
2.25269e-06
6.0232e-06
6.07346e-06
5.58236e-06
1.77232e-06
4.9905e-06
4.973e-06
4.49152e-06
1.58032e-06
3.93925e-06
3.90166e-06
3.46198e-06
1.21432e-06
2.99979e-06
2.98059e-06
2.69946e-06
8.57503e-07
2.42313e-06
2.41453e-06
2.25504e-06
7.71642e-07
2.11689e-06
2.09579e-06
2.02294e-06
7.14725e-07
1.91564e-06
1.8962e-06
1.86122e-06
1.1781e-06
1.82415e-06
1.87312e-06
1.84098e-06
1.52703e-06
1.81041e-06
1.87907e-06
1.85125e-06
1.69639e-06
1.74985e-06
1.85267e-06
1.82768e-06
1.71501e-06
1.47497e-06
1.60001e-06
1.57296e-06
1.44043e-06
7.70573e-07
1.29698e-06
1.27595e-06
1.16517e-06
4.41509e-07
9.8954e-07
9.20204e-07
8.82736e-07
6.90308e-07
7.06973e-07
6.57778e-07
6.3444e-07
5.35133e-07
1.17105e-05
4.51515e-06
1.2539e-05
1.24967e-05
6.63723e-06
1.20591e-05
1.30186e-05
1.13237e-05
9.3529e-06
1.32861e-05
1.26144e-05
9.81027e-06
1.28042e-05
1.30445e-05
1.04202e-05
1.08953e-05
1.3057e-05
1.22876e-05
6.12359e-06
1.23147e-05
1.23659e-05
9.83561e-06
1.03136e-05
1.20055e-05
1.13195e-05
8.46933e-06
1.108e-05
1.12092e-05
9.60877e-06
8.39288e-06
1.05611e-05
1.02031e-05
5.10806e-06
9.46512e-06
9.88302e-06
9.1387e-06
4.1462e-06
9.19524e-06
9.15181e-06
7.66888e-06
7.5971e-06
8.7896e-06
8.52053e-06
4.68029e-06
8.04847e-06
8.42371e-06
7.98085e-06
3.77106e-06
7.97677e-06
8.09074e-06
7.45081e-06
5.45026e-06
7.90985e-06
7.83816e-06
6.79222e-06
6.82762e-06
7.78186e-06
7.61098e-06
5.7471e-06
7.1264e-06
7.56835e-06
7.32334e-06
4.06077e-06
6.99265e-06
7.17772e-06
6.87685e-06
2.42286e-06
6.50393e-06
6.50038e-06
6.16526e-06
4.39195e-06
5.7518e-06
5.78158e-06
5.31785e-06
1.84115e-06
4.8344e-06
4.8067e-06
4.33627e-06
1.55043e-06
3.83973e-06
3.79279e-06
3.3576e-06
1.1848e-06
2.91962e-06
2.88603e-06
2.60499e-06
8.7593e-07
2.33135e-06
2.3134e-06
2.12626e-06
1.49398e-06
1.97665e-06
1.94753e-06
1.87063e-06
6.77355e-07
1.77345e-06
1.76603e-06
1.71353e-06
1.05067e-06
1.69971e-06
1.74559e-06
1.70252e-06
1.39043e-06
1.68869e-06
1.75929e-06
1.72553e-06
1.57445e-06
1.6511e-06
1.76039e-06
1.73341e-06
1.63084e-06
1.42522e-06
1.56621e-06
1.5363e-06
1.41819e-06
7.55178e-07
1.31315e-06
1.28806e-06
1.18377e-06
4.57954e-07
1.02082e-06
9.52058e-07
9.0739e-07
7.01721e-07
7.29138e-07
6.77244e-07
6.46892e-07
5.43043e-07
1.57424e-05
6.08267e-06
1.69977e-05
1.7008e-05
8.66047e-06
1.60742e-05
1.75048e-05
1.47846e-05
1.22098e-05
1.74036e-05
1.65703e-05
1.1958e-05
1.65513e-05
1.71028e-05
1.32036e-05
1.39229e-05
1.66529e-05
1.56268e-05
8.77935e-06
1.55717e-05
1.5882e-05
1.22453e-05
1.2958e-05
1.50911e-05
1.43288e-05
9.88132e-06
1.38678e-05
1.4232e-05
1.19747e-05
1.04306e-05
1.32591e-05
1.29535e-05
6.28321e-06
1.19381e-05
1.24761e-05
1.15158e-05
5.16217e-06
1.16428e-05
1.16827e-05
9.62622e-06
9.57902e-06
1.11897e-05
1.09188e-05
5.82995e-06
1.02717e-05
1.07734e-05
1.01683e-05
5.57067e-06
1.02094e-05
1.03731e-05
9.46967e-06
6.83587e-06
1.00592e-05
1.00198e-05
8.53498e-06
8.55928e-06
9.80381e-06
9.64095e-06
7.05978e-06
8.87135e-06
9.41067e-06
9.15874e-06
4.87754e-06
8.60829e-06
8.79248e-06
8.46692e-06
3.0581e-06
7.91735e-06
7.86792e-06
7.49051e-06
4.84059e-06
6.91119e-06
6.98303e-06
6.40538e-06
2.10113e-06
5.79294e-06
5.7831e-06
5.22411e-06
1.76328e-06
4.64064e-06
4.60496e-06
4.09359e-06
1.36904e-06
3.5848e-06
3.56869e-06
3.23046e-06
1.03946e-06
2.91443e-06
2.91231e-06
2.68902e-06
1.71058e-06
2.53885e-06
2.52402e-06
2.41632e-06
8.87921e-07
2.29744e-06
2.28787e-06
2.23651e-06
1.31421e-06
2.18284e-06
2.24294e-06
2.20131e-06
1.75151e-06
2.14706e-06
2.23588e-06
2.20176e-06
1.98052e-06
2.06127e-06
2.19989e-06
2.1698e-06
2.02379e-06
1.73279e-06
1.92364e-06
1.89238e-06
1.73477e-06
8.7344e-07
1.57938e-06
1.55415e-06
1.4238e-06
5.30224e-07
1.21804e-06
1.13714e-06
1.09132e-06
8.31324e-07
8.77998e-07
8.23262e-07
7.94293e-07
6.68881e-07
2.10291e-05
6.66077e-06
2.23035e-05
2.23596e-05
1.08841e-05
2.09807e-05
2.30063e-05
1.93116e-05
1.5523e-05
2.3134e-05
2.21677e-05
8.66618e-06
2.19372e-05
2.25061e-05
1.7061e-05
1.8047e-05
2.22513e-05
2.08732e-05
7.35793e-06
2.06917e-05
2.08717e-05
1.57586e-05
1.67629e-05
2.00403e-05
1.89429e-05
7.03972e-06
1.82174e-05
1.85287e-05
1.53365e-05
1.31915e-05
1.72638e-05
1.6651e-05
7.64043e-06
1.51966e-05
1.60219e-05
1.46206e-05
5.96436e-06
1.47403e-05
1.46913e-05
1.18264e-05
1.1781e-05
1.40143e-05
1.35548e-05
6.82115e-06
1.26443e-05
1.33597e-05
1.25778e-05
4.42418e-06
1.2548e-05
1.27586e-05
1.1543e-05
8.06866e-06
1.24085e-05
1.2292e-05
1.02961e-05
1.04133e-05
1.21773e-05
1.18877e-05
8.44828e-06
1.09835e-05
1.18286e-05
1.14101e-05
5.80244e-06
1.08257e-05
1.12072e-05
1.0694e-05
3.52853e-06
1.00996e-05
1.01522e-05
9.58686e-06
3.44298e-06
8.95541e-06
9.02648e-06
8.25318e-06
2.30389e-06
7.52559e-06
7.49629e-06
6.72294e-06
2.06676e-06
5.98494e-06
5.91635e-06
5.21276e-06
1.57865e-06
4.55101e-06
4.49696e-06
4.03663e-06
1.09554e-06
3.61898e-06
3.5884e-06
3.28495e-06
1.16339e-06
3.05254e-06
2.99528e-06
2.86638e-06
9.60573e-07
2.70919e-06
2.69211e-06
2.60388e-06
1.46764e-06
2.56319e-06
2.63237e-06
2.56104e-06
1.99108e-06
2.51715e-06
2.63548e-06
2.58079e-06
2.30153e-06
2.44097e-06
2.633e-06
2.59008e-06
2.41394e-06
2.08992e-06
2.35891e-06
2.31312e-06
2.12675e-06
1.05236e-06
1.9901e-06
1.95013e-06
1.79194e-06
6.56164e-07
1.54869e-06
1.4463e-06
1.37513e-06
1.02895e-06
1.10312e-06
1.03101e-06
9.82817e-07
8.19232e-07
7.18427e-07
2.41385e-07
7.74125e-07
7.85511e-07
2.5413e-07
6.27603e-07
8.40885e-07
5.86164e-07
3.39616e-07
8.24071e-07
7.31673e-07
9.49538e-09
7.15902e-07
7.86629e-07
4.70406e-07
4.3783e-07
7.97059e-07
6.70151e-07
7.24723e-08
6.88108e-07
7.20206e-07
4.25514e-07
4.08303e-07
7.07741e-07
6.06149e-07
1.07009e-08
5.85108e-07
6.32209e-07
4.30364e-07
2.73394e-07
5.79891e-07
5.2976e-07
1.38052e-07
4.29035e-07
5.30951e-07
4.24484e-07
1.32844e-07
4.50762e-07
4.58996e-07
2.88311e-07
2.43193e-07
4.27062e-07
3.93986e-07
1.11059e-07
3.23242e-07
4.02997e-07
3.42166e-07
2.9613e-08
3.44191e-07
3.74398e-07
2.91118e-07
1.18128e-07
3.49518e-07
3.49606e-07
2.33196e-07
2.06299e-07
3.53205e-07
3.36953e-07
1.67974e-07
2.67181e-07
3.57959e-07
3.30246e-07
9.64717e-08
3.01267e-07
3.6178e-07
3.24055e-07
2.89043e-08
3.14137e-07
3.53897e-07
3.12887e-07
6.71263e-09
3.13079e-07
3.33497e-07
2.90957e-07
7.14897e-08
2.8751e-07
3.00244e-07
2.56286e-07
7.39992e-08
2.46313e-07
2.53149e-07
2.12949e-07
6.10539e-08
1.9674e-07
2.00266e-07
1.71205e-07
4.09761e-08
1.55251e-07
1.5915e-07
1.37498e-07
3.11744e-09
1.23941e-07
1.25825e-07
1.14118e-07
1.3173e-08
1.01756e-07
1.05775e-07
9.7412e-08
3.13014e-08
8.57197e-08
9.38294e-08
8.8303e-08
4.99848e-08
7.6147e-08
8.97806e-08
8.6442e-08
6.50711e-08
6.79547e-08
9.07977e-08
8.91979e-08
7.7357e-08
5.10413e-08
9.07019e-08
8.98373e-08
8.15672e-08
2.55354e-08
8.5941e-08
8.61577e-08
7.93278e-08
1.24835e-08
7.31418e-08
7.26165e-08
6.81747e-08
4.30928e-08
5.35469e-08
5.54162e-08
5.22876e-08
4.12864e-08
2.97753e-05
9.89441e-06
3.18275e-05
3.24251e-05
1.36961e-05
2.85337e-05
3.3295e-05
2.61732e-05
1.94611e-05
3.24959e-05
3.10349e-05
7.18872e-06
2.99167e-05
3.1917e-05
2.23358e-05
2.2884e-05
3.08258e-05
2.86565e-05
7.74112e-06
2.80459e-05
2.92606e-05
2.04672e-05
2.12025e-05
2.76104e-05
2.60122e-05
5.99429e-06
2.45905e-05
2.5934e-05
2.03476e-05
1.62904e-05
2.38388e-05
2.3224e-05
9.34816e-06
2.04614e-05
2.24348e-05
2.00433e-05
8.01202e-06
2.04599e-05
2.07682e-05
1.5778e-05
1.51245e-05
1.97019e-05
1.91293e-05
8.59962e-06
1.7263e-05
1.89457e-05
1.75626e-05
4.94865e-06
1.75276e-05
1.81304e-05
1.58481e-05
9.96531e-06
1.73461e-05
1.7367e-05
1.37619e-05
1.33688e-05
1.69281e-05
1.6604e-05
1.0836e-05
1.4482e-05
1.62756e-05
1.57121e-05
7.06393e-06
1.44063e-05
1.52869e-05
1.45382e-05
3.78719e-06
1.34902e-05
1.37974e-05
1.29311e-05
2.87318e-06
1.19681e-05
1.23321e-05
1.11292e-05
3.04874e-06
1.01615e-05
1.03063e-05
9.15213e-06
2.77853e-06
8.22954e-06
8.28575e-06
7.24996e-06
2.18588e-06
6.41496e-06
6.46463e-06
5.74629e-06
1.56305e-06
5.2123e-06
5.26563e-06
4.8209e-06
1.0471e-06
4.50997e-06
4.52599e-06
4.30823e-06
1.18757e-06
4.03033e-06
4.07234e-06
3.93977e-06
1.96631e-06
3.77219e-06
3.95275e-06
3.85665e-06
2.77627e-06
3.63191e-06
3.91427e-06
3.84489e-06
3.27332e-06
3.39848e-06
3.85286e-06
3.8009e-06
3.45117e-06
2.71888e-06
3.43138e-06
3.393e-06
3.07716e-06
1.31367e-06
2.86216e-06
2.83938e-06
2.59253e-06
7.34508e-07
2.22112e-06
2.10654e-06
2.01282e-06
1.41811e-06
1.57891e-06
1.53093e-06
1.47522e-06
1.20992e-06
2.7903e-05
1.05538e-05
3.0265e-05
3.05054e-05
1.31617e-05
2.6824e-05
3.18846e-05
2.44779e-05
1.80238e-05
3.13315e-05
2.89543e-05
8.8543e-06
2.85749e-05
3.04849e-05
2.08e-05
2.13266e-05
3.00058e-05
2.68982e-05
9.24519e-06
2.70719e-05
2.80933e-05
1.91077e-05
1.98436e-05
2.69789e-05
2.45843e-05
7.30942e-06
2.37175e-05
2.50281e-05
1.91045e-05
1.50488e-05
2.31479e-05
2.20741e-05
8.69839e-06
1.93311e-05
2.16729e-05
1.88178e-05
7.51915e-06
1.94786e-05
1.97425e-05
1.44782e-05
1.37877e-05
1.87226e-05
1.7903e-05
7.67216e-06
1.59812e-05
1.79257e-05
1.62339e-05
5.41128e-06
1.63171e-05
1.70392e-05
1.45499e-05
8.78362e-06
1.62519e-05
1.62417e-05
1.24694e-05
1.20917e-05
1.59883e-05
1.55555e-05
9.70089e-06
1.34331e-05
1.55577e-05
1.48275e-05
6.36381e-06
1.36619e-05
1.48517e-05
1.39075e-05
3.81582e-06
1.3094e-05
1.36724e-05
1.26207e-05
3.50681e-06
1.19455e-05
1.23732e-05
1.11016e-05
3.33516e-06
1.03473e-05
1.05429e-05
9.30387e-06
2.95918e-06
8.49653e-06
8.57425e-06
7.46069e-06
2.34561e-06
6.65442e-06
6.70898e-06
5.92033e-06
1.73326e-06
5.34997e-06
5.42218e-06
4.87691e-06
1.30231e-06
4.49843e-06
4.51952e-06
4.25354e-06
1.19388e-06
3.96367e-06
4.04741e-06
3.86935e-06
1.81201e-06
3.67601e-06
3.88819e-06
3.76123e-06
2.59523e-06
3.51153e-06
3.84713e-06
3.76225e-06
3.13449e-06
3.28816e-06
3.82527e-06
3.77509e-06
3.4019e-06
2.649e-06
3.50585e-06
3.46377e-06
3.15009e-06
1.31917e-06
3.02831e-06
3.0065e-06
2.75676e-06
7.92668e-07
2.40265e-06
2.30388e-06
2.18649e-06
1.50445e-06
1.71836e-06
1.6858e-06
1.61033e-06
1.31063e-06
2.96377e-05
1.12129e-05
3.19761e-05
3.27468e-05
1.31688e-05
2.78949e-05
3.38465e-05
2.52602e-05
1.82904e-05
3.27337e-05
3.08469e-05
9.88087e-06
2.95825e-05
3.22097e-05
2.11116e-05
2.16836e-05
3.10747e-05
2.83669e-05
1.02424e-05
2.78689e-05
2.9526e-05
1.93545e-05
2.0164e-05
2.78939e-05
2.58869e-05
8.28176e-06
2.44347e-05
2.62714e-05
1.96407e-05
1.53189e-05
2.40663e-05
2.33378e-05
8.92475e-06
2.01422e-05
2.27754e-05
1.98314e-05
8.03761e-06
2.05121e-05
2.10032e-05
1.50983e-05
1.43645e-05
1.98598e-05
1.91883e-05
8.03587e-06
1.69471e-05
1.91308e-05
1.74222e-05
6.044e-06
1.74246e-05
1.82587e-05
1.54717e-05
9.23246e-06
1.73041e-05
1.73924e-05
1.31003e-05
1.26267e-05
1.69021e-05
1.65553e-05
1.0013e-05
1.39877e-05
1.62904e-05
1.56247e-05
6.51884e-06
1.41241e-05
1.53683e-05
1.44685e-05
4.1449e-06
1.34107e-05
1.39896e-05
1.29468e-05
3.95925e-06
1.20733e-05
1.26124e-05
1.12572e-05
3.55903e-06
1.04166e-05
1.06862e-05
9.39657e-06
3.06258e-06
8.57524e-06
8.71899e-06
7.55817e-06
2.43678e-06
6.77992e-06
6.89637e-06
6.06404e-06
1.87405e-06
5.53415e-06
5.64878e-06
5.11002e-06
1.5126e-06
4.77783e-06
4.84596e-06
4.57138e-06
1.32969e-06
4.2539e-06
4.35328e-06
4.18172e-06
1.90297e-06
3.9493e-06
4.19382e-06
4.07652e-06
2.73716e-06
3.75276e-06
4.12992e-06
4.05114e-06
3.31672e-06
3.45584e-06
4.05723e-06
4.00537e-06
3.56804e-06
2.70602e-06
3.65677e-06
3.62744e-06
3.26836e-06
1.33001e-06
3.0874e-06
3.08176e-06
2.80826e-06
7.86906e-07
2.41912e-06
2.3262e-06
2.21726e-06
1.48263e-06
1.72156e-06
1.70859e-06
1.64605e-06
1.32871e-06
3.28051e-05
1.31883e-05
3.5844e-05
3.6427e-05
1.50109e-05
3.09473e-05
3.83509e-05
2.79592e-05
2.02416e-05
3.73669e-05
3.41173e-05
1.18141e-05
3.34248e-05
3.64368e-05
2.33371e-05
2.39859e-05
3.58518e-05
3.15348e-05
1.20254e-05
3.18002e-05
3.35409e-05
2.1395e-05
2.23229e-05
3.22185e-05
2.88912e-05
9.70334e-06
2.77473e-05
2.98879e-05
2.16897e-05
1.67049e-05
2.74921e-05
2.60628e-05
9.75114e-06
2.22616e-05
2.58183e-05
2.17698e-05
8.72877e-06
2.28297e-05
2.33458e-05
1.61539e-05
1.52693e-05
2.20402e-05
2.09385e-05
8.37608e-06
1.82109e-05
2.10989e-05
1.87244e-05
6.12558e-06
1.88429e-05
1.99666e-05
1.64599e-05
9.50476e-06
1.8855e-05
1.89186e-05
1.37583e-05
1.32426e-05
1.85816e-05
1.803e-05
1.04217e-05
1.5034e-05
1.81277e-05
1.71388e-05
6.83876e-06
1.55267e-05
1.73684e-05
1.60645e-05
4.55062e-06
1.50684e-05
1.60833e-05
1.46233e-05
4.5381e-06
1.39073e-05
1.46276e-05
1.29349e-05
4.08854e-06
1.21664e-05
1.25532e-05
1.09175e-05
3.55746e-06
1.00776e-05
1.0283e-05
8.82339e-06
2.83177e-06
7.9389e-06
8.08306e-06
7.02895e-06
2.14835e-06
6.36905e-06
6.52396e-06
5.78683e-06
1.71347e-06
5.31985e-06
5.39909e-06
5.02143e-06
1.41945e-06
4.64609e-06
4.80654e-06
4.55836e-06
1.94591e-06
4.25831e-06
4.58212e-06
4.40952e-06
2.82906e-06
4.01128e-06
4.51137e-06
4.40227e-06
3.51313e-06
3.69534e-06
4.48171e-06
4.42603e-06
3.89934e-06
2.91122e-06
4.1458e-06
4.1111e-06
3.70057e-06
1.48217e-06
3.61456e-06
3.61346e-06
3.29874e-06
9.17416e-07
2.88207e-06
2.8025e-06
2.64888e-06
1.72207e-06
2.0475e-06
2.05837e-06
1.96368e-06
1.56422e-06
3.32988e-05
1.25797e-05
3.62457e-05
3.73812e-05
1.42425e-05
3.07989e-05
3.89897e-05
2.76822e-05
1.97335e-05
3.74142e-05
3.47972e-05
1.07071e-05
3.31619e-05
3.69219e-05
2.27844e-05
2.3412e-05
3.56233e-05
3.18929e-05
1.0997e-05
3.14129e-05
3.38435e-05
2.08784e-05
2.17999e-05
3.19839e-05
2.92058e-05
8.92836e-06
2.74488e-05
3.01508e-05
2.14694e-05
1.64168e-05
2.74691e-05
2.64952e-05
9.55334e-06
2.22931e-05
2.61043e-05
2.20846e-05
8.8422e-06
2.31291e-05
2.39112e-05
1.6265e-05
1.53466e-05
2.25102e-05
2.16088e-05
8.44934e-06
1.8597e-05
2.16933e-05
1.93595e-05
6.34294e-06
1.93872e-05
2.06291e-05
1.68819e-05
9.69647e-06
1.93506e-05
1.95312e-05
1.39759e-05
1.33557e-05
1.89435e-05
1.85064e-05
1.04301e-05
1.50983e-05
1.83146e-05
1.74278e-05
6.76687e-06
1.54857e-05
1.73523e-05
1.6131e-05
4.45858e-06
1.48825e-05
1.58965e-05
1.44806e-05
4.16946e-06
1.35622e-05
1.4403e-05
1.2665e-05
3.89782e-06
1.18189e-05
1.22971e-05
1.06412e-05
3.39726e-06
9.80716e-06
1.01e-05
8.6254e-06
2.71795e-06
7.80009e-06
8.02491e-06
6.9488e-06
2.08018e-06
6.3567e-06
6.5687e-06
5.85847e-06
1.61436e-06
5.45862e-06
5.60466e-06
5.22286e-06
1.44666e-06
4.82246e-06
5.00767e-06
4.77106e-06
1.98856e-06
4.43369e-06
4.79434e-06
4.63742e-06
2.90391e-06
4.15782e-06
4.70135e-06
4.60232e-06
3.61036e-06
3.76737e-06
4.61654e-06
4.56028e-06
3.97012e-06
2.88998e-06
4.19991e-06
4.18439e-06
3.73009e-06
1.45667e-06
3.57605e-06
3.59746e-06
3.26129e-06
8.55556e-07
2.81186e-06
2.74501e-06
2.60559e-06
1.64375e-06
1.98297e-06
2.02102e-06
1.94496e-06
1.53349e-06
3.64844e-05
1.38502e-05
4.00349e-05
4.11586e-05
1.5856e-05
3.37179e-05
4.3755e-05
3.03477e-05
2.17756e-05
4.21954e-05
3.81336e-05
1.10032e-05
3.69517e-05
4.13932e-05
2.49989e-05
2.57086e-05
4.06978e-05
3.514e-05
1.12141e-05
3.54278e-05
3.8153e-05
2.29361e-05
2.39569e-05
3.66765e-05
3.23728e-05
8.97952e-06
3.08816e-05
3.4143e-05
2.35636e-05
1.78501e-05
3.1208e-05
2.94483e-05
1.01723e-05
2.44344e-05
2.95105e-05
2.41096e-05
9.30079e-06
2.55826e-05
2.65056e-05
1.73229e-05
1.62116e-05
2.48971e-05
2.34963e-05
8.65704e-06
1.98012e-05
2.38723e-05
2.07021e-05
6.20049e-06
2.08042e-05
2.25102e-05
1.78449e-05
9.93281e-06
2.09565e-05
2.11764e-05
1.45786e-05
1.38789e-05
2.07338e-05
2.0068e-05
1.07831e-05
1.60519e-05
2.03013e-05
1.90174e-05
6.95537e-06
1.68539e-05
1.95418e-05
1.78206e-05
4.48086e-06
1.66035e-05
1.82306e-05
1.6291e-05
4.07234e-06
1.55394e-05
1.67038e-05
1.45022e-05
4.1e-06
1.37671e-05
1.44668e-05
1.23535e-05
3.71699e-06
1.15298e-05
1.19592e-05
1.00849e-05
2.99125e-06
9.15456e-06
9.46434e-06
8.08128e-06
2.20564e-06
7.33802e-06
7.63982e-06
6.65763e-06
1.56827e-06
6.08688e-06
6.27583e-06
5.75345e-06
1.44039e-06
5.26469e-06
5.55279e-06
5.21506e-06
2.0173e-06
4.76136e-06
5.24994e-06
5.02151e-06
2.99519e-06
4.4146e-06
5.14001e-06
5.00515e-06
3.81031e-06
3.99221e-06
5.09764e-06
5.0443e-06
4.32534e-06
3.0846e-06
4.76016e-06
4.74859e-06
4.21758e-06
1.60261e-06
4.19058e-06
4.23393e-06
3.84023e-06
9.48448e-07
3.35897e-06
3.32989e-06
3.13269e-06
1.91959e-06
2.36461e-06
2.45619e-06
2.34126e-06
1.81717e-06
4.83284e-05
1.52962e-05
5.31819e-05
5.52587e-05
1.89818e-05
4.40183e-05
5.84313e-05
3.92707e-05
2.75195e-05
5.56154e-05
5.08578e-05
1.08921e-05
4.81863e-05
5.50188e-05
3.18204e-05
3.27866e-05
5.31048e-05
4.63348e-05
1.11764e-05
4.57583e-05
5.02366e-05
2.89982e-05
3.03792e-05
4.73987e-05
4.23458e-05
8.86455e-06
3.95504e-05
4.45284e-05
2.99434e-05
2.24673e-05
4.00845e-05
3.8343e-05
1.22575e-05
3.12212e-05
3.81164e-05
3.10551e-05
1.12207e-05
3.29205e-05
3.44256e-05
2.19837e-05
2.05719e-05
3.21533e-05
3.05659e-05
1.06929e-05
2.54566e-05
3.09436e-05
2.6847e-05
6.39621e-06
2.69239e-05
2.92435e-05
2.29379e-05
1.26039e-05
2.70771e-05
2.74775e-05
1.85465e-05
1.75861e-05
2.66541e-05
2.59119e-05
1.35e-05
2.02861e-05
2.58958e-05
2.43273e-05
8.4397e-06
2.11667e-05
2.46533e-05
2.24845e-05
4.97806e-06
2.06207e-05
2.26901e-05
2.01844e-05
3.86035e-06
1.89706e-05
2.05926e-05
1.76612e-05
4.25122e-06
1.65954e-05
1.75703e-05
1.48117e-05
3.93673e-06
1.37453e-05
1.43628e-05
1.19507e-05
3.13802e-06
1.08428e-05
1.13164e-05
9.54367e-06
2.2275e-06
8.72082e-06
9.14416e-06
7.99325e-06
1.42628e-06
7.3872e-06
7.67609e-06
7.04094e-06
1.56387e-06
6.41707e-06
6.76624e-06
6.38458e-06
2.36727e-06
5.79411e-06
6.42605e-06
6.16007e-06
3.57823e-06
5.35142e-06
6.27859e-06
6.12211e-06
4.57458e-06
4.77219e-06
6.17907e-06
6.10779e-06
5.16666e-06
3.60501e-06
5.67407e-06
5.68742e-06
4.97809e-06
1.79314e-06
4.85959e-06
4.93401e-06
4.42642e-06
9.60685e-07
3.80221e-06
3.78183e-06
3.55742e-06
2.09744e-06
2.61818e-06
2.75604e-06
2.64012e-06
2.01174e-06
6.14359e-08
1.84913e-07
1.2044e-07
9.26569e-08
1.49918e-07
9.65329e-08
1.04233e-07
4.39289e-08
3.8369e-08
1.08158e-07
7.44108e-08
9.07675e-07
9.63488e-08
9.49898e-08
3.89104e-08
5.51588e-08
9.3937e-08
6.44503e-08
5.8104e-07
8.55087e-08
8.42477e-08
3.39227e-08
5.19382e-08
8.12991e-08
6.10225e-08
6.94983e-07
7.42194e-08
7.50815e-08
3.31316e-08
3.42758e-08
7.18803e-08
6.3267e-08
1.17802e-07
6.64913e-08
6.89967e-08
4.53767e-08
4.60041e-08
6.68384e-08
6.29104e-08
2.89529e-08
4.24079e-08
6.41419e-08
5.58462e-08
8.11977e-08
5.95991e-08
6.14025e-08
4.61851e-08
3.47192e-07
5.99854e-08
5.65632e-08
3.54159e-08
2.29052e-08
5.57676e-08
5.22384e-08
2.53756e-08
3.75315e-08
5.05576e-08
4.62682e-08
2.33474e-08
4.28114e-08
4.469e-08
3.96631e-08
5.69276e-08
4.05754e-08
3.81766e-08
3.27159e-08
1.80247e-07
3.55186e-08
3.11056e-08
2.56308e-08
3.10323e-07
2.77136e-08
2.73368e-08
1.81713e-08
7.13189e-08
2.26604e-08
2.24558e-08
1.40645e-08
2.81668e-08
1.83486e-08
1.91599e-08
1.11962e-08
2.04422e-08
1.52945e-08
1.60576e-08
1.03552e-08
3.49142e-08
1.40227e-08
1.42427e-08
1.06369e-08
1.23042e-07
1.38159e-08
1.32733e-08
1.21239e-08
4.77438e-08
1.32433e-08
1.23026e-08
1.1518e-08
1.28414e-08
1.27251e-08
1.17345e-08
1.11621e-08
4.77939e-09
1.19794e-08
1.09346e-08
1.03694e-08
5.497e-09
1.00336e-08
9.69757e-09
9.24983e-09
6.3418e-09
6.15589e-09
7.61977e-09
7.54814e-09
5.18264e-09
1.05906e-09
5.69634e-09
5.58246e-09
4.06942e-09
2.28189e-08
4.50123e-09
3.47587e-09
3.65015e-09
7.64377e-10
3.36315e-09
2.7089e-09
3.05085e-09
1.47315e-09
4.62835e-05
2.0121e-05
5.17847e-05
5.31969e-05
2.2833e-05
4.26264e-05
5.67178e-05
3.70591e-05
2.61348e-05
5.48176e-05
4.86742e-05
2.16986e-05
4.73108e-05
5.33517e-05
3.02796e-05
3.15007e-05
5.28143e-05
4.43657e-05
1.91847e-05
4.52942e-05
4.89024e-05
2.75655e-05
2.93104e-05
4.72323e-05
4.0693e-05
1.74476e-05
3.90865e-05
4.34312e-05
2.81081e-05
2.12776e-05
3.96199e-05
3.68669e-05
1.46803e-05
3.02484e-05
3.73351e-05
2.92383e-05
1.16925e-05
3.18608e-05
3.29174e-05
2.00412e-05
1.91816e-05
3.0907e-05
2.8769e-05
1.15797e-05
2.39983e-05
2.95045e-05
2.48747e-05
9.91535e-06
2.53407e-05
2.74377e-05
2.08296e-05
1.12258e-05
2.55401e-05
2.57051e-05
1.64978e-05
1.61705e-05
2.53013e-05
2.42517e-05
1.22606e-05
1.90987e-05
2.4803e-05
2.28947e-05
9.14835e-06
2.02744e-05
2.39137e-05
2.13909e-05
8.03614e-06
2.00898e-05
2.2344e-05
1.94919e-05
7.76243e-06
1.88677e-05
2.0385e-05
1.73219e-05
6.17645e-06
1.67003e-05
1.7595e-05
1.4688e-05
5.02419e-06
1.3936e-05
1.44584e-05
1.19166e-05
3.95689e-06
1.09767e-05
1.13377e-05
9.46471e-06
3.17435e-06
8.69317e-06
9.03143e-06
7.72684e-06
2.888e-06
7.0922e-06
7.30384e-06
6.58752e-06
2.30814e-06
6.07057e-06
6.38797e-06
5.93019e-06
2.37439e-06
5.42616e-06
6.01494e-06
5.69415e-06
3.11488e-06
4.98453e-06
5.87377e-06
5.67652e-06
4.05239e-06
4.46867e-06
5.84063e-06
5.75332e-06
4.77248e-06
3.40567e-06
5.48779e-06
5.4706e-06
4.76601e-06
1.70835e-06
4.87069e-06
4.91489e-06
4.41918e-06
1.54224e-06
3.90735e-06
3.88781e-06
3.62403e-06
2.04459e-06
2.72301e-06
2.84255e-06
2.69256e-06
2.0059e-06
3.52573e-05
2.01171e-05
4.07006e-05
4.1504e-05
1.95862e-05
3.31502e-05
4.48723e-05
2.84195e-05
2.11581e-05
4.29171e-05
3.7606e-05
2.11499e-05
3.66131e-05
4.20927e-05
2.34701e-05
2.44557e-05
4.13366e-05