/*--------------------------------*- C++ -*----------------------------------*\
| =========                 |                                                 |
| \\      /  F ield         | OpenFOAM: The Open Source CFD Toolbox           |
|  \\    /   O peration     | Version:  v2012                                 |
|   \\  /    A nd           | Website:  www.openfoam.com                      |
|    \\/     M anipulation  |                                                 |
\*---------------------------------------------------------------------------*/
FoamFile
{
    version     2.0;
    format      ascii;
    class       volScalarField;
    location    "1e-06";
    object      nut;
}
// * * * * * * * * * * * * * * * * * * * * * * * * * * * * * * * * * * * * * //

dimensions      [0 2 -1 0 0 0 0];


internalField   nonuniform List<scalar> 
10123
(
7.7281e-06
7.63708e-06
7.71796e-06
7.63529e-06
7.99475e-06
7.96363e-06
7.4788e-06
8.00881e-06
8.18466e-06
7.6395e-06
7.79911e-06
6.11386e-06
7.8595e-06
7.54001e-06
8.04714e-06
8.07151e-06
7.44048e-06
7.7254e-06
5.85545e-06
7.6318e-06
7.34661e-06
7.84546e-06
7.83719e-06
7.17485e-06
7.43903e-06
5.52124e-06
7.42023e-06
7.0267e-06
7.55124e-06
7.65801e-06
7.00051e-06
7.09591e-06
7.40246e-06
7.28573e-06
6.64359e-06
7.18809e-06
7.35196e-06
6.99075e-06
6.76483e-06
7.32169e-06
7.409e-06
6.81473e-06
6.96456e-06
7.34725e-06
7.06275e-06
6.32671e-06
6.74475e-06
4.7741e-06
6.74988e-06
6.36128e-06
6.97069e-06
7.31617e-06
6.78414e-06
6.64939e-06
7.25521e-06
7.38114e-06
6.80671e-06
6.89728e-06
7.49364e-06
7.41905e-06
6.79633e-06
7.0576e-06
7.43747e-06
7.26304e-06
6.61738e-06
7.02108e-06
6.79077e-06
6.95419e-06
6.25625e-06
6.73935e-06
4.60823e-06
6.5261e-06
5.95391e-06
6.36663e-06
5.81041e-06
5.99162e-06
5.49209e-06
5.87446e-06
5.67632e-06
5.48999e-06
5.02985e-06
5.34278e-06
5.14972e-06
4.97438e-06
4.55163e-06
4.89945e-06
4.55208e-06
4.73296e-06
4.31022e-06
4.68049e-06
3.14769e-06
4.66933e-06
4.24949e-06
4.62512e-06
4.62675e-06
4.68605e-06
4.25482e-06
4.54883e-06
4.89422e-06
4.77055e-06
4.36554e-06
4.57906e-06
5.05806e-06
5.01574e-06
4.59417e-06
4.69217e-06
5.21206e-06
5.27847e-06
4.84509e-06
4.78676e-06
5.23698e-06
5.27696e-06
4.68472e-06
4.41932e-06
4.74113e-06
4.90176e-06
4.40012e-06
3.9518e-06
4.24778e-06
4.21506e-06
4.08881e-06
3.57467e-06
3.7641e-06
4.01346e-06
3.83288e-06
3.37537e-06
3.3667e-06
3.60564e-06
1.14034e-05
1.10252e-05
1.17693e-05
1.17143e-05
1.1141e-05
1.18654e-05
1.19986e-05
1.17112e-05
1.18596e-05
1.21838e-05
1.20044e-05
1.3261e-05
1.21703e-05
1.22107e-05
1.18096e-05
1.2078e-05
1.23176e-05
1.2062e-05
1.3385e-05
1.21669e-05
1.21829e-05
1.17262e-05
1.19679e-05
1.21788e-05
1.19321e-05
1.32715e-05
1.20005e-05
1.20671e-05
1.16416e-05
1.17226e-05
1.19414e-05
1.17815e-05
1.09587e-05
1.17044e-05
1.19219e-05
1.15333e-05
1.11789e-05
1.17097e-05
1.17189e-05
1.13203e-05
1.15484e-05
1.18286e-05
1.16706e-05
1.09419e-05
1.14266e-05
1.14682e-05
1.11148e-05
1.2627e-05
1.13147e-05
1.14272e-05
1.1157e-05
1.12467e-05
1.16139e-05
1.16091e-05
1.12937e-05
1.15712e-05
1.18752e-05
1.17699e-05
1.13741e-05
1.18282e-05
1.20692e-05
1.18623e-05
1.11108e-05
1.18039e-05
1.20118e-05
1.17215e-05
1.04927e-05
1.1529e-05
1.16213e-05
1.12559e-05
1.26337e-05
1.10158e-05
1.11613e-05
1.06673e-05
9.83426e-06
1.03226e-05
1.04381e-05
9.93109e-06
9.18085e-06
9.55475e-06
9.64556e-06
9.09353e-06
8.37986e-06
8.71768e-06
8.82553e-06
8.39991e-06
7.78838e-06
8.25674e-06
8.39185e-06
8.05258e-06
9.36954e-06
8.06396e-06
8.26329e-06
8.00805e-06
7.29199e-06
8.01451e-06
8.21003e-06
7.99716e-06
7.53161e-06
8.11067e-06
8.37876e-06
8.23066e-06
7.98948e-06
8.41984e-06
8.68498e-06
8.60141e-06
8.43373e-06
8.69163e-06
8.984e-06
8.97172e-06
8.71002e-06
8.57978e-06
8.62211e-06
8.65429e-06
8.23239e-06
7.96084e-06
8.06186e-06
8.18202e-06
7.74371e-06
6.74695e-06
7.40058e-06
7.41446e-06
7.20261e-06
6.65152e-06
6.73244e-06
6.7297e-06
6.55515e-06
6.18059e-06
2.08945e-05
1.95681e-05
2.16315e-05
2.15449e-05
2.03579e-05
2.19083e-05
2.21336e-05
2.17077e-05
2.18825e-05
2.26428e-05
2.23439e-05
1.98417e-05
2.27786e-05
2.28379e-05
2.22011e-05
2.27101e-05
2.32077e-05
2.28109e-05
2.05896e-05
2.31318e-05
2.31453e-05
2.24307e-05
2.28881e-05
2.3302e-05
2.29306e-05
2.01861e-05
2.31347e-05
2.32083e-05
2.25893e-05
2.26659e-05
2.31263e-05
2.2894e-05
2.13069e-05
2.28282e-05
2.31156e-05
2.2579e-05
2.15054e-05
2.28663e-05
2.28548e-05
2.22409e-05
2.25816e-05
2.30188e-05
2.27963e-05
2.14128e-05
2.25458e-05
2.26389e-05
2.21651e-05
2.00728e-05
2.24955e-05
2.26149e-05
2.22563e-05
2.21825e-05
2.29494e-05
2.29258e-05
2.24607e-05
2.28936e-05
2.33782e-05
2.32321e-05
2.25365e-05
2.33676e-05
2.37184e-05
2.34478e-05
2.20419e-05
2.3458e-05
2.37228e-05
2.33456e-05
2.06912e-05
2.31421e-05
2.32241e-05
2.27449e-05
1.97456e-05
2.24185e-05
2.25595e-05
2.19099e-05
1.95571e-05
2.13948e-05
2.14857e-05
2.07472e-05
1.87724e-05
2.00953e-05
2.0148e-05
1.93046e-05
1.74074e-05
1.8631e-05
1.87166e-05
1.80807e-05
1.61016e-05
1.77532e-05
1.78817e-05
1.73867e-05
1.5016e-05
1.73528e-05
1.75872e-05
1.72559e-05
1.54597e-05
1.7261e-05
1.7525e-05
1.72542e-05
1.63373e-05
1.75423e-05
1.79362e-05
1.77549e-05
1.73684e-05
1.81678e-05
1.85554e-05
1.84518e-05
1.82456e-05
1.87163e-05
1.91552e-05
1.91314e-05
1.8832e-05
1.86273e-05
1.8746e-05
1.87516e-05
1.82183e-05
1.74467e-05
1.80096e-05
1.81051e-05
1.75192e-05
1.54144e-05
1.69433e-05
1.68037e-05
1.65043e-05
1.55265e-05
1.5617e-05
1.54183e-05
6.67659e-06
1.44336e-05
2.19866e-05
2.34953e-05
2.27072e-05
2.25884e-05
2.28222e-05
2.31383e-05
2.31737e-05
2.30214e-05
2.37417e-05
2.3755e-05
2.3507e-05
2.51281e-05
2.39826e-05
2.39484e-05
2.37466e-05
2.42558e-05
2.43535e-05
2.40254e-05
2.56282e-05
2.43406e-05
2.42818e-05
2.39918e-05
2.44094e-05
2.44518e-05
2.41313e-05
2.56505e-05
2.4346e-05
2.43316e-05
2.39556e-05
2.43834e-05
2.4259e-05
2.40288e-05
2.4037e-05
2.40568e-05
2.42102e-05
2.376e-05
2.47731e-05
2.39862e-05
2.39288e-05
2.36097e-05
2.40264e-05
2.40992e-05
2.38802e-05
2.38286e-05
2.37154e-05
2.36787e-05
2.32551e-05
2.48623e-05
2.35801e-05
2.36406e-05
2.34111e-05
2.41506e-05
2.40216e-05
2.39704e-05
2.37686e-05
2.4279e-05
2.44531e-05
2.42997e-05
2.41827e-05
2.46016e-05
2.47983e-05
2.45352e-05
2.45076e-05
2.46233e-05
2.47916e-05
2.44346e-05
2.50209e-05
2.42456e-05
2.42508e-05
2.3799e-05
2.51723e-05
2.34476e-05
2.35297e-05
2.29072e-05
2.40812e-05
2.23377e-05
2.23765e-05
2.16551e-05
2.24872e-05
2.09329e-05
2.09387e-05
2.01006e-05
2.08375e-05
1.93608e-05
1.94049e-05
1.87811e-05
1.98364e-05
1.8417e-05
1.85052e-05
1.80237e-05
1.93922e-05
1.79845e-05
1.81842e-05
1.7863e-05
1.8515e-05
1.78828e-05
1.81097e-05
1.78424e-05
1.78233e-05
1.8188e-05
1.85404e-05
1.8358e-05
1.83241e-05
1.88665e-05
1.91869e-05
1.90765e-05
1.90279e-05
1.95004e-05
1.98129e-05
1.97771e-05
1.95485e-05
1.95929e-05
1.93832e-05
1.93678e-05
1.88543e-05
1.94886e-05
1.86134e-05
1.86797e-05
1.80919e-05
1.80122e-05
1.75008e-05
1.73116e-05
1.70029e-05
1.62309e-05
1.61291e-05
1.5848e-05
1.548e-05
1.48833e-05
3.61319e-05
3.66416e-05
3.72689e-05
3.70903e-05
3.65669e-05
3.7893e-05
3.79712e-05
3.76749e-05
3.8428e-05
3.88856e-05
3.85287e-05
4.03136e-05
3.92549e-05
3.91973e-05
3.87126e-05
3.95038e-05
3.98139e-05
3.9356e-05
4.10527e-05
3.98359e-05
3.97345e-05
3.91259e-05
3.97863e-05
3.99737e-05
3.95382e-05
4.1052e-05
3.98123e-05
3.97594e-05
3.91515e-05
3.9554e-05
3.96387e-05
3.9322e-05
3.83568e-05
3.93224e-05
3.94777e-05
3.88869e-05
3.89726e-05
3.91902e-05
3.90827e-05
3.85175e-05
3.90709e-05
3.92716e-05
3.89821e-05
3.81159e-05
3.8845e-05
3.88384e-05
3.83176e-05
3.99013e-05
3.87903e-05
3.88238e-05
3.85286e-05
3.90807e-05
3.94073e-05
3.93198e-05
3.89748e-05
3.9697e-05
4.00468e-05
3.98483e-05
3.93877e-05
4.02884e-05
4.05737e-05
4.02532e-05
3.94221e-05
4.04558e-05
4.06429e-05
4.02121e-05
3.92991e-05
4.00252e-05
3.99757e-05
3.94326e-05
4.06661e-05
3.89836e-05
3.901e-05
3.8233e-05
3.78482e-05
3.74083e-05
3.7374e-05
3.64153e-05
3.58089e-05
3.53466e-05
3.52631e-05
3.41088e-05
3.34499e-05
3.29879e-05
3.29608e-05
3.21216e-05
3.17749e-05
3.1517e-05
3.15493e-05
3.09215e-05
3.21564e-05
3.08065e-05
3.09847e-05
3.06109e-05
3.00957e-05
3.05975e-05
3.08389e-05
3.05312e-05
2.99698e-05
3.10649e-05
3.1505e-05
3.13012e-05
3.11034e-05
3.20823e-05
3.25095e-05
3.23838e-05
3.23303e-05
3.30795e-05
3.35322e-05
3.34794e-05
3.32637e-05
3.32705e-05
3.3125e-05
3.30599e-05
3.24707e-05
3.25432e-05
3.21969e-05
3.21936e-05
3.14678e-05
3.01171e-05
3.05713e-05
3.01406e-05
2.97453e-05
2.85004e-05
2.84166e-05
2.78721e-05
2.75967e-05
2.64341e-05
5.3814e-05
5.23172e-05
5.54008e-05
5.51655e-05
5.32558e-05
5.6113e-05
5.63388e-05
5.57219e-05
5.62196e-05
5.75361e-05
5.70048e-05
5.43606e-05
5.79611e-05
5.7919e-05
5.68871e-05
5.79387e-05
5.86821e-05
5.8018e-05
5.56963e-05
5.86427e-05
5.8522e-05
5.73294e-05
5.82231e-05
5.87493e-05
5.81338e-05
5.5213e-05
5.84186e-05
5.83609e-05
5.73425e-05
5.75124e-05
5.81089e-05
5.76812e-05
5.51051e-05
5.75578e-05
5.77768e-05
5.69671e-05
5.54026e-05
5.73678e-05
5.72209e-05
5.62223e-05
5.68698e-05
5.74107e-05
5.70295e-05
5.48078e-05
5.68853e-05
5.69977e-05
5.63255e-05
5.40283e-05
5.69874e-05
5.70193e-05
5.65796e-05
5.65628e-05
5.78306e-05
5.7712e-05
5.70753e-05
5.79965e-05
5.87302e-05
5.84769e-05
5.73793e-05
5.89969e-05
5.94809e-05
5.9082e-05
5.68818e-05
5.93811e-05
5.96506e-05
5.91133e-05
5.55258e-05
5.89265e-05
5.88638e-05
5.81864e-05
5.48927e-05
5.76414e-05
5.76327e-05
5.66418e-05
5.35012e-05
5.55342e-05
5.54432e-05
5.41915e-05
5.12055e-05
5.27536e-05
5.25902e-05
5.10534e-05
4.80773e-05
4.95137e-05
4.94242e-05
4.83159e-05
4.54815e-05
4.7442e-05
4.74285e-05
4.66134e-05
4.38481e-05
4.63943e-05
4.65586e-05
4.61093e-05
4.34578e-05
4.60235e-05
4.62902e-05
4.59235e-05
4.43693e-05
4.66238e-05
4.71893e-05
4.69539e-05
4.63822e-05
4.8e-05
4.86096e-05
4.84655e-05
4.83267e-05
4.94126e-05
5.01304e-05
5.00643e-05
4.98392e-05
4.96688e-05
4.98202e-05
4.97084e-05
4.90253e-05
4.78446e-05
4.87518e-05
4.86826e-05
4.77876e-05
4.42702e-05
4.65305e-05
4.58523e-05
4.53538e-05
4.34447e-05
4.35044e-05
4.27251e-05
4.23525e-05
4.07224e-05
5.70264e-05
5.95028e-05
5.85714e-05
5.82569e-05
5.89716e-05
5.9617e-05
5.93981e-05
5.93942e-05
6.09302e-05
6.07326e-05
6.02953e-05
6.20942e-05
6.13453e-05
6.1084e-05
6.09681e-05
6.20041e-05
6.18809e-05
6.13618e-05
6.35217e-05
6.19589e-05
6.1671e-05
6.13535e-05
6.21512e-05
6.18765e-05
6.13625e-05
6.2711e-05
6.16515e-05
6.13934e-05
6.0882e-05
6.17025e-05
6.11182e-05
6.06978e-05
6.08277e-05
6.07524e-05
6.06591e-05
6.00466e-05
6.16535e-05
6.0295e-05
6.00464e-05
5.96568e-05
6.04434e-05
6.02255e-05
5.9857e-05
5.99817e-05
5.99062e-05
5.97363e-05
5.91824e-05
6.13126e-05
5.98353e-05
5.97338e-05
5.95806e-05
6.10638e-05
6.06474e-05
6.04692e-05
6.03936e-05
6.14725e-05
6.15547e-05
6.12909e-05
6.1354e-05
6.21737e-05
6.23186e-05
6.19456e-05
6.2211e-05
6.24211e-05
6.24683e-05
6.19857e-05
6.28738e-05
6.18378e-05
6.15954e-05
6.09899e-05
6.20144e-05
6.03944e-05
6.02466e-05
5.93212e-05
6.0609e-05
5.80786e-05
5.78642e-05
5.66569e-05
5.76159e-05
5.50508e-05
5.47747e-05
5.32525e-05
5.40359e-05
5.1547e-05
5.13559e-05
5.0278e-05
5.14204e-05
4.93033e-05
4.91914e-05
4.84095e-05
4.94299e-05
4.81613e-05
4.82321e-05
4.78168e-05
4.88319e-05
4.77483e-05
4.79159e-05
4.75668e-05
4.77646e-05
4.83909e-05
4.88515e-05
4.86205e-05
4.88014e-05
4.98811e-05
5.03346e-05
5.01812e-05
5.03987e-05
5.14955e-05
5.19298e-05
5.184e-05
5.17885e-05
5.21586e-05
5.15974e-05
5.14379e-05
5.08131e-05
5.21685e-05
5.04667e-05
5.03253e-05
4.9432e-05
4.92998e-05
4.81267e-05
4.73181e-05
4.68041e-05
4.53575e-05
4.4981e-05
4.39969e-05
4.35946e-05
4.20344e-05
7.78085e-05
7.85764e-05
7.98066e-05
7.94231e-05
7.85844e-05
8.08858e-05
8.08309e-05
8.04204e-05
8.16357e-05
8.24036e-05
8.17972e-05
8.44578e-05
8.30224e-05
8.27729e-05
8.19812e-05
8.33038e-05
8.36603e-05
8.29233e-05
8.54077e-05
8.36188e-05
8.33052e-05
8.22714e-05
8.3332e-05
8.34351e-05
8.27328e-05
8.47831e-05
8.29774e-05
8.27127e-05
8.1697e-05
8.22409e-05
8.22515e-05
8.17021e-05
8.00324e-05
8.15963e-05
8.1577e-05
8.07035e-05
8.05185e-05
8.1066e-05
8.07739e-05
7.98555e-05
8.07606e-05
8.09527e-05
8.04766e-05
7.90423e-05
8.05362e-05
8.0524e-05
7.98007e-05
8.20765e-05
8.06754e-05
8.05745e-05
8.02403e-05
8.10522e-05
8.1752e-05
8.15404e-05
8.11008e-05
8.24223e-05
8.29638e-05
8.26362e-05
8.19169e-05
8.3607e-05
8.39931e-05
8.35277e-05
8.22044e-05
8.41229e-05
8.42784e-05
8.36702e-05
8.22284e-05
8.35533e-05
8.33172e-05
8.25592e-05
8.41659e-05
8.18813e-05
8.1699e-05
8.05265e-05
7.9498e-05
7.9009e-05
7.87405e-05
7.72091e-05
7.57467e-05
7.52344e-05
7.4878e-05
7.29306e-05
7.12953e-05
7.07844e-05
7.05288e-05
6.91412e-05
6.80303e-05
6.78762e-05
6.77169e-05
6.67138e-05
6.80306e-05
6.63425e-05
6.63908e-05
6.588e-05
6.4753e-05
6.57183e-05
6.59074e-05
6.54823e-05
6.44141e-05
6.64736e-05
6.70815e-05
6.68089e-05
6.64884e-05
6.83717e-05
6.90565e-05
6.88824e-05
6.89761e-05
7.04967e-05
7.12702e-05
7.11697e-05
7.11132e-05
7.13006e-05
7.11344e-05
7.09286e-05
7.02054e-05
7.004e-05
6.9908e-05
6.97002e-05
6.86168e-05
6.60895e-05
6.69394e-05
6.58793e-05
6.52475e-05
6.30035e-05
6.28805e-05
6.1668e-05
6.11534e-05
5.90605e-05
8.2543e-05
8.78251e-05
8.44403e-05
8.39545e-05
8.64523e-05
8.59714e-05
8.52906e-05
8.57913e-05
8.82721e-05
8.70324e-05
8.65604e-05
9.17705e-05
8.79012e-05
8.73467e-05
8.78831e-05
8.90857e-05
8.82507e-05
8.77291e-05
9.30741e-05
8.83619e-05
8.78165e-05
8.80508e-05
8.88869e-05
8.78864e-05
8.73355e-05
9.21007e-05
8.75644e-05
8.70186e-05
8.67556e-05
8.80793e-05
8.65053e-05
8.59759e-05
8.76882e-05
8.61018e-05
8.56347e-05
8.50672e-05
8.86832e-05
8.51853e-05
8.47524e-05
8.47324e-05
8.57531e-05
8.49041e-05
8.44564e-05
8.60618e-05
8.47856e-05
8.43748e-05
8.38358e-05
8.90603e-05
8.46865e-05
8.43965e-05
8.44963e-05
8.722e-05
8.57167e-05
8.54232e-05
8.58202e-05
8.72972e-05
8.69375e-05
8.66024e-05
8.75487e-05
8.80805e-05
8.79842e-05
8.75676e-05
8.94699e-05
8.84113e-05
8.82461e-05
8.77295e-05
9.11392e-05
8.76683e-05
8.71749e-05
8.65342e-05
9.12172e-05
8.57838e-05
8.54e-05
8.43367e-05
8.83075e-05
8.26248e-05
8.21771e-05
8.07284e-05
8.39292e-05
7.8509e-05
7.7989e-05
7.60817e-05
7.89196e-05
7.36908e-05
7.32866e-05
7.19566e-05
7.541e-05
7.05354e-05
7.02328e-05
6.92864e-05
7.32741e-05
6.88604e-05
6.87679e-05
6.83151e-05
7.13553e-05
6.81692e-05
6.82093e-05
6.78171e-05
6.91605e-05
6.89776e-05
6.94288e-05
6.91686e-05
6.99711e-05
7.10349e-05
7.14937e-05
7.13105e-05
7.19502e-05
7.34501e-05
7.38203e-05
7.36879e-05
7.3905e-05
7.48189e-05
7.36712e-05
7.33975e-05
7.2775e-05
7.58596e-05
7.23705e-05
7.2057e-05
7.0987e-05
7.25223e-05
6.92425e-05
6.7993e-05
6.73447e-05
6.58289e-05
6.50239e-05
6.35145e-05
6.29595e-05
6.09916e-05
0.000109831
0.000111355
0.000112432
0.000111845
0.000111434
0.000113846
0.000113574
0.000113182
0.000114938
0.000115592
0.000114765
0.000116825
0.000116346
0.000115879
0.000115035
0.000116696
0.000116881
0.000115909
0.000117671
0.000116712
0.000116175
0.000114982
0.000116264
0.000116111
0.000115176
0.000116425
0.000115345
0.000114855
0.000113594
0.000114359
0.000114037
0.000113276
0.000111751
0.000113082
0.000112854
0.000111761
0.000112025
0.000112118
0.000111643
0.000110579
0.00011177
0.000111786
0.000111141
0.000109928
0.000111407
0.000111338
0.000110446
0.000112187
0.000111647
0.000111407
0.000111089
0.000112479
0.000113064
0.000112725
0.000112343
0.000114166
0.00011471
0.000114256
0.00011366
0.000115728
0.000116125
0.000115524
0.000114535
0.000116476
0.000116571
0.000115806
0.000114965
0.000115783
0.000115378
0.000114432
0.000115313
0.000113587
0.000113207
0.00011171
0.000110927
0.000109663
0.000109177
0.000107197
0.000105949
0.000104508
0.000103906
0.000101342
9.98319e-05
9.83646e-05
9.78967e-05
9.60676e-05
9.51799e-05
9.42494e-05
9.3908e-05
9.25929e-05
9.32855e-05
9.19799e-05
9.18802e-05
9.12439e-05
9.07003e-05
9.09517e-05
9.10469e-05
9.05102e-05
8.97002e-05
9.18647e-05
9.25633e-05
9.22163e-05
9.2066e-05
9.44495e-05
9.52988e-05
9.50678e-05
9.53892e-05
9.75293e-05
9.84826e-05
9.83267e-05
9.84575e-05
9.90133e-05
9.862e-05
9.82836e-05
9.74761e-05
9.79447e-05
9.71866e-05
9.67961e-05
9.54356e-05
9.32281e-05
9.32212e-05
9.16795e-05
9.08442e-05
8.80528e-05
8.77694e-05
8.60112e-05
8.52908e-05
8.25372e-05
0.000140472
0.000136989
0.000143863
0.000143257
0.000138787
0.000144913
0.000145468
0.00014374
0.000144227
0.000147708
0.000146407
0.000140666
0.000148164
0.000147995
0.000145179
0.000147168
0.000149077
0.000147481
0.000141874
0.000148451
0.000148072
0.000144862
0.000146496
0.000147847
0.00014638
0.000139761
0.000146431
0.000146181
0.000143488
0.000143231
0.000144995
0.000143957
0.000137986
0.000143209
0.000143531
0.00014168
0.000137636
0.00014239
0.000141952
0.000139365
0.000140544
0.000142096
0.000141204
0.000136082
0.000141219
0.000141811
0.000140398
0.000135124
0.000142011
0.000141955
0.000140953
0.000140204
0.00014395
0.000143603
0.000142002
0.000144017
0.000146125
0.00014553
0.000142668
0.000146699
0.000147987
0.000147133
0.000142068
0.000148055
0.000148676
0.000147553
0.000140209
0.000147518
0.000147389
0.000145998
0.00013857
0.000145043
0.0001448
0.00014271
0.000135426
0.000140333
0.000139911
0.000137232
0.000130189
0.000134072
0.000133475
0.000130081
0.000122912
0.000126483
0.00012603
0.000123545
0.000116714
0.000121291
0.000120995
0.000119178
0.000112453
0.00011833
0.000118318
0.000117409
0.000111447
0.000116908
0.000117178
0.00011643
0.000112474
0.000117913
0.000119044
0.000118573
0.000116913
0.000121071
0.000122586
0.000122293
0.000121994
0.000124823
0.000126796
0.000126626
0.000126513
0.000126159
0.000127313
0.000126937
0.00012584
0.00012243
0.000125757
0.000125341
0.000123611
0.0001157
0.000120869
0.000119117
0.000118047
0.000113435
0.000113985
0.000112145
0.000111236
0.000107446
0.000148926
0.000150243
0.000152275
0.000151443
0.000150857
0.000153977
0.000153549
0.000153015
0.000155109
0.000156054
0.000154911
0.00015572
0.000156884
0.000156192
0.000155044
0.000157078
0.00015729
0.000155967
0.000156371
0.000156885
0.000156097
0.00015448
0.000156019
0.00015576
0.000154485
0.000154266
0.000154536
0.000153802
0.000152098
0.000152936
0.000152518
0.00015147
0.000149447
0.000151112
0.000150699
0.000149264
0.000149257
0.000149657
0.000148961
0.000147573
0.000149068
0.000149069
0.000148192
0.000146709
0.000148692
0.000148634
0.000147486
0.000148201
0.000149122
0.000148727
0.00014836
0.000150087
0.000150983
0.000150482
0.000150046
0.000152449
0.000153179
0.000152553
0.000151857
0.000154579
0.000155083
0.000154286
0.000153143
0.000155664
0.000155747
0.000154751
0.000153484
0.000154867
0.000154299
0.000153083
0.000152626
0.000152055
0.00015145
0.000149525
0.000147929
0.00014687
0.000146127
0.000143571
0.000141625
0.000140038
0.000139142
0.000135801
0.000133537
0.000131809
0.000131081
0.000128676
0.000127111
0.000126168
0.000125604
0.000123872
0.000123493
0.000122939
0.000122656
0.00012184
0.000121155
0.00012138
0.000121366
0.000120668
0.000119863
0.000122468
0.000123305
0.000122851
0.000122797
0.000125918
0.000127022
0.00012671
0.000127263
0.000130208
0.000131466
0.000131234
0.000131582
0.000132521
0.000132011
0.000131506
0.000130586
0.000131288
0.000130362
0.000129743
0.000128042
0.000125511
0.000125221
0.000123114
0.000122012
0.000118482
0.00011808
0.000115674
0.000114687
0.000111092
0.000181356
0.00017836
0.000185531
0.000184728
0.000179979
0.000186737
0.00018737
0.000185238
0.000185973
0.000190062
0.000188397
0.000183009
0.000190497
0.000190229
0.000186799
0.000189143
0.000191425
0.000189384
0.000183975
0.000190486
0.000189951
0.000186
0.000187888
0.000189485
0.0001876
0.000181072
0.000187527
0.000187153
0.00018375
0.000183444
0.000185516
0.000184163
0.000177501
0.000183143
0.000183497
0.000181137
0.000176911
0.000182
0.000181398
0.000178174
0.000179619
0.000181547
0.000180387
0.000174667
0.000180538
0.000181364
0.000179576
0.000174495
0.00018168
0.000181562
0.000180312
0.000179628
0.000184153
0.000183674
0.000181706
0.000184261
0.00018695
0.000186165
0.000182765
0.0001877
0.000189365
0.000188263
0.000182644
0.000189538
0.000190344
0.000188912
0.000181423
0.000189027
0.000188888
0.000187126
0.000179709
0.000186032
0.000185662
0.000183045
0.000175432
0.000180154
0.000179561
0.000176202
0.000168558
0.00017228
0.000171464
0.000167187
0.000159261
0.000162622
0.000161975
0.000158797
0.000151468
0.000155869
0.000155418
0.000153083
0.000146162
0.000151906
0.000151787
0.00015062
0.000144319
0.000149938
0.000150192
0.000149225
0.000144628
0.000151106
0.000152524
0.000151912
0.000149887
0.000155178
0.000157165
0.000156781
0.000156447
0.000160173
0.000162783
0.000162546
0.000162513
0.000162247
0.00016384
0.000163319
0.000162031
0.000158284
0.00016215
0.000161557
0.000159442
0.000150642
0.000156128
0.000153901
0.000152527
0.000146704
0.00014747
0.00014513
0.000143936
0.000139089
0.000191635
0.000193266
0.000195726
0.000194639
0.000194183
0.000197731
0.000197121
0.000196513
0.000198982
0.000200135
0.00019868
0.000199426
0.000201048
0.000200109
0.000198767
0.000201113
0.000201319
0.000199647
0.000199858
0.000200682
0.000199619
0.000197677
0.00019941
0.000199016
0.000197395
0.00019686
0.000197333
0.000196329
0.000194224
0.000195144
0.000194591
0.000193237
0.000190974
0.000192735
0.000192129
0.000190342
0.000190307
0.000190789
0.00018985
0.000188187
0.000189976
0.000189962
0.000188834
0.000187293
0.000189628
0.000189597
0.000188179
0.000188555
0.000190308
0.000189737
0.000189341
0.000191481
0.000192666
0.000191985
0.000191546
0.000194547
0.000195477
0.000194658
0.000193977
0.00019731
0.000197938
0.000196929
0.000195855
0.00019881
0.000198896
0.000197654
0.000196417
0.000197989
0.000197266
0.000195761
0.000195034
0.000194599
0.000193742
0.000191383
0.000189437
0.000188167
0.000187143
0.000183993
0.000181584
0.00017962
0.000178405
0.00017425
0.000171376
0.000169198
0.00016818
0.000165143
0.00016311
0.000161897
0.000161081
0.000158883
0.000158092
0.000157599
0.000157107
0.000156081
0.000155351
0.000155465
0.000155328
0.00015444
0.000153662
0.000156743
0.000157747
0.000157167
0.000157249
0.000161197
0.000162613
0.000162208
0.000163033
0.000166899
0.000168535
0.000168219
0.000168828
0.000170219
0.000169661
0.000168967
0.000167947
0.000168869
0.000167892
0.000167022
0.000164975
0.000162163
0.000161602
0.000158902
0.000157499
0.000153167
0.000152674
0.000149566
0.000148275
0.000143737
0.000228206
0.00022481
0.000233313
0.000232338
0.000226726
0.000234574
0.000235534
0.000232716
0.000233495
0.000238724
0.000236581
0.00023037
0.000239046
0.000238794
0.000234386
0.000237078
0.00024016
0.000237508
0.000231142
0.000238791
0.000238174
0.000233094
0.000235239
0.000237482
0.000235027
0.000227321
0.000234816
0.00023442
0.000229981
0.000229434
0.00023229
0.000230542
0.000222489
0.000229103
0.000229708
0.000226608
0.000221491
0.000227741
0.000227002
0.000222795
0.000224465
0.000227186
0.000225676
0.000218735
0.000225879
0.000227179
0.000224842
0.000218846
0.000227546
0.000227443
0.000225733
0.00022476
0.000230697
0.000230087
0.000227445
0.000230546
0.000234253
0.000233225
0.000228851
0.000234997
0.000237347
0.000235904
0.000229076
0.000237509
0.000238717
0.000236845
0.000228052
0.000237133
0.000237134
0.00023484
0.000225994
0.000233627
0.000233205
0.000229894
0.000220683
0.000226494
0.000225778
0.000221544
0.000212208
0.000216815
0.00021581
0.000210433
0.000200658
0.000204789
0.000203971
0.000199892
0.00019085
0.000196189
0.000195614
0.000192589
0.000184108
0.000191016
0.000190836
0.000189298
0.00018165
0.000188399
0.000188717
0.00018744
0.00018165
0.00018974
0.000191609
0.000190797
0.000188073
0.000194882
0.00019759
0.000197078
0.00019652
0.000201313
0.000204916
0.000204598
0.000204544
0.000204169
0.000206687
0.000206007
0.000204432
0.000199676
0.000204903
0.000204139
0.00020155
0.000190875
0.000197626
0.000194935
0.000193167
0.00018567
0.000186847
0.000184042
0.000182495
0.000176278
0.000240512
0.000241905
0.000245529
0.000244199
0.000243201
0.000247718
0.000247194
0.000246174
0.000248724
0.000250783
0.00024889
0.00024941
0.000251691
0.000250612
0.000248622
0.000251295
0.000252009
0.000249807
0.00024967
0.000251028
0.000249754
0.000247017
0.000248975
0.000248915
0.000246787
0.000245724
0.000246614
0.000245427
0.000242555
0.000243308
0.000243199
0.000241449
0.000238194
0.000240668
0.00024008
0.000237699
0.000236944
0.000238335
0.000237165
0.00023484
0.000236886
0.000237315
0.000235846
0.000233549
0.000236867
0.000237089
0.000235228
0.000235803
0.000237972
0.000237281
0.000236646
0.000238732
0.000240968
0.000240094
0.000239322
0.000242934
0.00024453
0.000243461
0.000242281
0.000246629
0.000247677
0.000246358
0.000244621
0.000248742
0.000249031
0.00024741
0.000245438
0.000248009
0.00024726
0.000245309
0.000244069
0.000244044
0.000242986
0.000240033
0.000237018
0.000236271
0.000234989
0.000231059
0.000227371
0.0002258
0.00022427
0.000219091
0.00021478
0.000212862
0.000211551
0.00020768
0.000204471
0.000203591
0.000202528
0.000199702
0.00019827
0.000198004
0.000197322
0.000195981
0.000194521
0.000195188
0.000194977
0.000193812
0.000192481
0.00019667
0.000197977
0.000197213
0.000197095
0.000202303
0.000204244
0.000203708
0.000204643
0.000209632
0.000211961
0.000211537
0.000212335
0.000213998
0.000213853
0.000212941
0.000211741
0.000212162
0.000212011
0.000210875
0.000208404
0.000204535
0.000204456
0.000201139
0.000199345
0.000193766
0.000193394
0.000189564
0.000187892
0.000182118
0.000280678
0.000275858
0.000286858
0.000285783
0.000278531
0.000288065
0.000289701
0.000285858
0.000286423
0.000293432
0.000290707
0.000282443
0.000293538
0.000293499
0.000287669
0.000290703
0.000295122
0.00029168
0.000283138
0.000293201
0.000292651
0.000285974
0.000288377
0.000291795
0.000288605
0.000278377
0.000288245
0.000288014
0.000282136
0.000281115
0.000285371
0.000283154
0.000272757
0.000281102
0.000282299
0.000278161
0.000271214
0.000279714
0.000278919
0.000273272
0.000275101
0.000279174
0.000277227
0.000268181
0.000277319
0.000279455
0.000276337
0.000268144
0.000279741
0.000279807
0.000277336
0.000275582
0.00028375
0.000283042
0.000279301
0.000282906
0.000288226
0.000286904
0.000280945
0.000288665
0.000292146
0.000290243
0.000281255
0.00029208
0.000294032
0.000291547
0.000279948
0.000292006
0.0002924
0.000289358
0.00027745
0.000288047
0.00028774
0.000283517
0.000271143
0.000279645
0.000278927
0.000273572
0.0002611
0.000268023
0.000266925
0.000260177
0.000247109
0.000253372
0.000252468
0.000247222
0.000234908
0.000242651
0.000242045
0.000238105
0.000226434
0.000236059
0.000235938
0.000233867
0.000223461
0.000232696
0.000233241
0.000231525
0.000223688
0.000234213
0.000236798
0.000235704
0.000231766
0.000240567
0.000244373
0.00024369
0.000242589
0.000248591
0.000253718
0.00025331
0.000253043
0.000252235
0.000256401
0.000255571
0.000253553
0.000246777
0.000254579
0.000253698
0.000250516
0.000236483
0.000245933
0.000242861
0.000240586
0.000230765
0.000232623
0.000229501
0.000227523
0.000219525
0.000289987
0.000292955
0.00029572
0.00029414
0.000294129
0.00029836
0.000297537
0.000296781
0.000299854
0.000301778
0.000299654
0.000302569
0.000302908
0.000301519
0.000299779
0.000302622
0.000303162
0.000300707
0.000302811
0.000302092
0.000300492
0.000297837
0.000299844
0.000299524
0.000297101
0.00029813
0.000296886
0.000295363
0.000292336
0.000293224
0.000292821
0.000290756
0.000288001
0.000289945
0.000289139
0.000286455
0.00028638
0.000287187
0.000285728
0.000283332
0.00028562
0.000286008
0.000284265
0.000282482
0.000285716
0.000285982
0.00028386
0.000286636
0.000287202
0.000286282
0.000285711
0.000288408
0.000290806
0.000289717
0.000289106
0.000293302
0.000295116
0.000293825
0.00029297
0.000297768
0.000298966
0.000297411
0.000296329
0.000300455
0.000300776
0.000298892
0.000298088
0.000299863
0.000298983
0.000296725
0.000297532
0.000295431
0.000294065
0.000290717
0.000288595
0.000286496
0.000284885
0.000280364
0.000276987
0.00027429
0.000272394
0.00026636
0.000262017
0.000259011
0.000257354
0.000252751
0.000249785
0.000247845
0.000246486
0.000243094
0.000242789
0.000241012
0.000240112
0.000238478
0.00023734
0.00023759
0.000237278
0.000235841
0.00023452
0.000239332
0.000240922
0.000239981
0.000239981
0.000246273
0.000248717
0.000248052
0.000249278
0.000255403
0.000258363
0.000257827
0.000258932
0.000261063
0.000261194
0.000260046
0.000258745
0.000259384
0.000259438
0.000258011
0.000255188
0.000251234
0.000250802
0.000246872
0.000244685
0.000238038
0.000237692
0.000233108
0.000231038
0.000224042
0.000299536
0.000308219
0.000304465
0.00030253
0.000308886
0.000308725
0.000305279
0.000308141
0.000313728
0.000309964
0.000308702
0.000316541
0.00031221
0.000309489
0.00031235
0.000314872
0.000311049
0.000309896
0.000317139
0.000310902
0.000308297
0.000310198
0.000311633
0.000307116
0.000305726
0.000311998
0.000305472
0.000302657
0.000303022
0.000305804
0.000300148
0.000298403
0.000302406
0.000298805
0.000295824
0.000294987
0.000301269
0.00029454
0.000292467
0.000293893
0.000296434
0.000292676
0.00029129
0.000296266
0.000294076
0.000292312
0.000291459
0.000299939
0.000294503
0.000292596
0.00029434
0.000301728
0.000297661
0.000296241
0.000299364
0.000303895
0.000301783
0.000300623
0.000305426
0.00030685
0.000305555
0.000304493
0.000310856
0.000308724
0.000307297
0.000306195
0.000313222
0.00030759
0.000305357
0.000304093
0.000311269
0.00030268
0.000300232
0.000297957
0.000303588
0.000293231
0.000290716
0.000287222
0.000291612
0.000280456
0.000277754
0.000272614
0.000275806
0.000264553
0.000262139
0.000258327
0.000262563
0.000252933
0.000250814
0.000248089
0.000253497
0.000245838
0.000244125
0.000243047
0.000248994
0.00024235
0.000241149
0.000240084
0.000245169
0.000244313
0.000244863
0.000244138
0.000248729
0.000251849
0.000252858
0.000252257
0.00025634
0.000262145
0.000262797
0.000262162
0.000264948
0.000270072
0.000265796
0.000264351
0.000263939
0.00027254
0.000264148
0.000262182
0.000259811
0.00026377
0.000255567
0.000250763
0.000248725
0.000245962
0.000242687
0.00023661
0.000234481
0.000228787
0.000344345
0.000348521
0.00035098
0.000349217
0.000349744
0.000353977
0.000353227
0.000352372
0.000355865
0.000358216
0.000355722
0.000358364
0.000359497
0.000358002
0.000356078
0.000359119
0.000360062
0.000357134