/*--------------------------------*- C++ -*----------------------------------*\
| =========                 |                                                 |
| \\      /  F ield         | OpenFOAM: The Open Source CFD Toolbox           |
|  \\    /   O peration     | Version:  v2012                                 |
|   \\  /    A nd           | Website:  www.openfoam.com                      |
|    \\/     M anipulation  |                                                 |
\*---------------------------------------------------------------------------*/
FoamFile
{
    version     2.0;
    format      ascii;
    class       volScalarField;
    location    "1e-06";
    object      omega;
}
// * * * * * * * * * * * * * * * * * * * * * * * * * * * * * * * * * * * * * //

dimensions      [0 0 -1 0 0 0 0];


internalField   nonuniform List<scalar> 
10123
(
90509
90461.8
88830.7
89310.8
85097
84332.3
88167.9
82628.3
80128
83206.1
81613.8
95396
78657.1
80666.8
75825.2
74384.5
77448.9
75143.3
88337.5
73199.6
74737.6
70412.2
69275.1
72226.3
70286.6
82693.1
68147.9
70213.5
66233.8
64749.8
67595.6
66841.6
64376.4
64325.6
67343
64114.7
62685.4
64132.1
65258.9
61889.3
61092.5
63837.7
62946.2
60651
61718.9
65410.2
62992
75445.6
62517.4
64601.1
61138
59215.7
61655.6
62295.6
59024.5
58188.1
60694.1
60155.1
57009.5
56945
59425.1
58041.2
55778
55944.3
58324.6
56231.4
56501.4
54984.5
57605.7
55085.7
66179.8
54442.6
57037.5
54063.5
55577.3
53676.2
56061.4
53313.1
53526.7
53766.1
56177.5
53544.9
53790.5
54158.1
56711.9
53957.6
55649.7
54022.8
56793.5
53892.8
65609.3
53203.9
55728.7
53062.7
52693.7
51565.9
53752.1
51619.9
48974.6
49074.9
50970.7
49506.1
46383.9
46223.2
48073.9
47421.7
44498
43816.4
45487.5
45641.9
43053.5
41860.7
43698.3
44795.4
42336.4
40671.2
42060.4
44130.4
41681.3
40894.6
40535.2
42524.9
41308.3
39418.5
40066.2
42522.7
42573.9
40771.4
67313.9
68441.9
64649.7
64743.1
66952.5
63137.2
62130.8
63063.7
61825
59590.6
60255.8
53471.9
58208.5
57741.7
58718.5
56963
55080
55960.6
49495.6
54014.6
53678.7
54654.9
53108.5
51458.9
52222.3
46228.9
50593.1
50085.5
50984.5
50171.7
48738.4
49147.4
51139.5
48492.3
47198.1
48457.3
49058.9
47183.2
46992.8
48050.9
47197.1
45958
46399.8
48281.3
46681.6
46058.7
47206.1
41683.3
46334.8
45809.2
46688.5
46375.9
45057
44971.8
45868.4
44999.1
43794.2
44047.8
44991.6
43545.1
42397.1
42932.4
44494.1
42327.3
41123.4
41869.8
44186.2
41195.2
40175.2
41130.8
36131.9
40406.2
39661.1
40397.4
41308.7
39553.2
38901
39783.4
40989.4
39407.6
38780.8
39820.7
41074.8
39549
38877.4
39925.8
41104.1
39449.1
38682.8
39675.5
34055
39007.1
37855
38840.5
40879
38068.2
36784.6
37531.4
38751.4
36549.5
35249.6
35727.8
36302.4
34867.7
33741.1
33960.3
34396.2
33520.2
32369.3
32316.7
32800.2
32391.1
31413.7
31088
31609.2
31615.9
30520.4
29871.9
30438.8
32270.8
29823.3
28958.4
29484
30606.6
30006.2
29496.8
29831.5
30829.9
42215.4
44036.1
40751.1
40807.8
42360.8
39900.3
39399
39842.5
39313.5
37924
38276
40993.3
37063.3
36848.1
37334.4
36347.7
35293.3
35721.4
37636
34561.1
34416.1
34871.9
33992.9
33094.5
33449.8
35767.3
32495.9
32285.7
32645.3
32249.1
31426.9
31607.9
32867.7
31165.8
30574.1
31110
31872.7
30421.9
30358.7
30830.9
30386.5
29775.9
29967.3
31106.1
29965.7
29667.5
30142
31843.9
29651.9
29460.4
29786.5
29777
28962.5
28937.5
29305.3
28834.6
28223.6
28325.9
28796.7
27936.9
27373.9
27581.3
28486.7
27092
26517.3
26800.5
28527
26261.6
25764.8
26121.8
27958.3
25547.2
25266
25406.3
26675
24820.7
24589.3
24827.5
25945.3
24477.6
24263.5
24565.9
25709.9
24276.2
24053.5
24362.1
25791.8
24041.4
23788.4
24079.1
25997.6
23692.2
23237.8
23575.5
25083.3
23124.3
22582.5
22828.7
23467.4
22239.6
21704.7
21859.2
22084.9
21349.5
20879.6
20949.1
21062.1
20587.4
20081.6
20058.2
20138.4
19834.6
19285
19164.2
19182.1
19289.7
18461.3
18244.3
18288.5
19315.4
17818.2
17494.3
17660.2
18070
17741.7
17589.5
29587.9
18053.1
40822.6
38691
39498
39591.5
39159.6
38518.8
38287.1
38359.9
37261.7
36817.2
37084.5
34389
35909
35807.9
35787
34888.4
34300.2
34625.4
32118.6
33538.2
33470.4
33475.9
32705.1
32195.4
32475.9
30237.8
31561.4
31440.5
31550.5
30883.3
30600.2
30765.6
30529.6
30258
29808.2
30234.8
29233.2
29629.5
29607
29798.6
29326.8
29039.7
29215.1
29174.9
29135.6
28955
29357.1
27916.4
28896.5
28763.7
28961.5
28325.9
28249.8
28247.4
28383.2
27888.5
27541.5
27642.1
27643.6
27145.8
26720.9
26908.3
26736.2
26376.8
25894.7
26143.5
25380.1
25601.7
25174.1
25486.2
23742.8
24930.6
24704.9
24799.4
23494.2
24250.1
24066
24259.4
23261
23942.8
23772.2
24033.1
23054.9
23773.6
23593.6
23861.4
22688.5
23561.7
23352.9
23609
21819.4
23229.2
22820
23131.9
22439.2
22676.7
22184.6
22415.9
22284
21802.5
21321.7
21470.6
21421.9
20913.7
20510.9
20581.9
20580.6
20128.3
19724.9
19710
19736.4
19281
18946.3
18842.8
18834.4
18077.7
18141.4
17950.7
17980.9
17613.3
17515
17225.5
17388.3
17632.3
17435.5
17336
17545.6
17752.3
28669.6
28223.9
27862.8
27924.8
28092.9
27284.9
27150.9
27216.3
26679.9
26235
26388.9
25034.5
25655.5
25606.3
25657
25075.3
24660.4
24842.3
23581.7
24152.5
24123.2
24178.8
23667.7
23314.6
23468.3
22358.8
22895.7
22840.7
22909.6
22552.4
22290.9
22384.3
22566.5
22054.2
21803
22033.9
21843.4
21646.2
21644.8
21778.7
21482.1
21276
21372.7
21600.6
21268.9
21150.3
21357.6
20480.9
21044.8
20987.8
21072.6
20817.1
20605.4
20609.5
20684.8
20356.4
20104.7
20155.9
20219.1
19793.2
19520.4
19611.3
19714.2
19205.5
18910.9
19029.3
19027.7
18609.7
18342.8
18488.6
17623.7
18052.7
17944.7
17921.6
17635.9
17519.1
17435.3
17477.2
17322.1
17204.4
17130.3
17211.6
17075.6
16975.9
16900.2
16985.9
16803.7
16750.4
16663.1
16744.7
15939.9
16481.2
16270.5
16409.7
16442.9
16111.2
15844.9
15944.4
16013.6
15542.5
15283.3
15347
15347.5
14980.4
14750.8
14779.8
14753.3
14444
14195.8
14185.1
14141.2
13833.1
13560.4
13506.4
13411.7
13108.6
12898.3
12810.8
12748.4
12791
12401.4
12244.9
12314.6
12437.4
12261.8
12203.6
12241.9
12381.2
21741.7
22085.6
21197.6
21238.9
21684.8
20843.1
20729.2
20822.3
20584
20115
20230
20674.8
19729.3
19690.8
19806.1
19402.5
19047.8
19180
19470
18699.7
18678.5
18788.9
18424.7
18123.9
18233.6
18616
17840.7
17802.9
17882.4
17698.2
17419.4
17483.5
17872.9
17262.3
17084.8
17244.3
17440.2
16961.7
16962.7
17093.8
16892.9
16695.1
16759.9
17126.7
16666.5
16561.3
16697
17042.7
16454.9
16419.9
16474.1
16423.1
16114.9
16117.9
16189.2
15952.5
15722.5
15753.9
15870.4
15483.2
15267.8
15322.5
15574.4
15005.2
14787.9
14859.2
15266.2
14523.8
14325.2
14412
14691
14058.6
13991.1
13945.3
14178.4
13630.3
13579.1
13577
13816.7
13342.7
13299.4
13325.1
13577.1
13118.5
13075.6
13104.3
13400.1
12910.5
12862
12889
13223.4
12690.7
12556.1
12635
13017.2
12423.6
12250.1
12304.7
12483.6
12019.7
11847.1
11881.5
11924.9
11618.7
11453.2
11467.4
11447.9
11211.6
11018.8
11009.2
10953.8
10742.9
10489.8
10453.8
10349.1
10287.3
9943.01
9891.23
9814.84
10060.3
9544.22
9435.09
9471.89
9559.5
9392.3
9336.55
9357.2
9427.29
21008.8
20329.9
20521.5
20577.8
20336.1
20115.1
20112.6
20051.9
19603.3
19506.7
19589.6
18908.9
19102.1
19111.6
19016.3
18651.2
18495.2
18585.7
17947.7
18137.2
18148.8
18069.9
17752.6
17620.9
17700.7
17141.2
17324.9
17325.5
17297.1
17004.9
16956
17012.9
16858.4
16765
16651.4
16762.4
16370
16519
16537.1
16544.3
16332.8
16278.8
16336
16247.4
16209.2
16157.6
16262.1
15799.2
16032.9
16022.8
16020.1
15715.2
15712.4
15724.5
15691.8
15445.3
15334.4
15364.5
15276.8
15046.1
14894.1
14939.9
14772.8
14605.7
14430.6
14487.2
14156.3
14153.4
13986.6
14054.9
13585.8
13713.6
13669.2
13607.1
13153.9
13312.1
13280.4
13261.7
12876.4
13046.9
13021.3
13032.3
12661.6
12844
12818.2
12832.2
12444.3
12651.1
12620.2
12634.7
12231.5
12442.5
12326.8
12395.4
12128.9
12184.9
12032.3
12081.2
11959.5
11786.4
11637
11668.8
11593.4
11385.2
11248.9
11263.5
11192.4
10966.4
10819.4
10812.9
10733.9
10457.5
10301.4
10272
10158
9780.3
9767.22
9725.47
9645.7
9437.89
9379.97
9285.74
9321.46
9338.07
9229.46
9196.9
9219.52
9270.23
17027.9
16866.6
16663.1
16702.9
16774.9
16393.1
16362.6
16370.3
16128.9
15921.3
15989.2
15460.6
15632.3
15629.8
15637.1
15354.5
15173.1
15249.4
14750.4
14911.6
14914.9
14927.2
14674.2
14520.4
14585.9
14146.6
14306.7
14301.1
14317.3
14144.1
14021.2
14065.9
14154.3
13887.3
13787.9
13881.7
13817.9
13681.4
13693
13740.6
13580.9
13486
13530
13635
13423.5
13359.9
13440.1
13081.6
13247.2
13236.9
13242.1
13111.7
12976
12983.4
12986.5
12792.5
12657.9
12678.9
12685.1
12433.1
12291.7
12324.2
12351.8
12053.2
11905.1
11945.7
11927.2
11666.8
11526
11574.1
11200.9
11285.9
11251.6
11194
11074.1
10945.9
10920.8
10894
10829.9
10701.1
10681.5
10677.5
10628.7
10507
10488.1
10486.6
10425.9
10329.6
10307.9
10307.8
10016.1
10152.6
10067
10113.8
10145.8
9952.83
9839.31
9871.35
9902.59
9646.91
9531.28
9551.61
9540.75
9332.9
9217.74
9225.53
9180.46
8991.71
8857.6
8850.48
8780.7
8582.6
8412.77
8389.32
8285.13
8125.83
7958.72
7928.75
7853.35
7861.35
7633.71
7555.6
7577.15
7604.3
7481.84
7440.21
7453.85
7481.62
16468.5
15757.5
16147.7
16196.6
15831.3
15839.3
15889
15778.2
15406.8
15454
15499.3
14794.8
15150.5
15182.4
15029.3
14784.3
14746
14790.6
14089.1
14476.7
14503.5
14369.8
14159.8
14129.6
14172.4
13552
13905.8
13928.6
13858.4
13616.1
13659.5
13697.5
13426.3
13499.3
13448.7
13502.8
13066.5
13334.8
13358.9
13306.8
13146.3
13159.3
13196.4
12984.3
13064.9
13043
13098.1
12535.2
12916
12924.4
12883.1
12577.2
12659.5
12673.5
12592.1
12396.7
12352.5
12371.9
12218.5
12089.6
11997.4
12022.2
11756.1
11738.7
11623.4
11651.9
11223.1
11375
11258.9
11292.1
10739.9
11014.5
10997.6
10927
10416.3
10695.2
10685.1
10644.8
10199.5
10468.6
10462.5
10446.5
10016.5
10291.8
10285.9
10272.7
9819.04
10127.1
10118.6
10108.4
9644.7
9959.28
9888.07
9926.25
9581.46
9766.66
9669.3
9696.52
9506.01
9464.44
9366.68
9384.68
9276.55
9149.27
9056.86
9064.66
8976.28
8798.51
8700.01
8695.16
8605.51
8360.18
8263.91
8245.49
8133.51
7759.08
7820.03
7797.62
7719.52
7446.19
7503.96
7437.42
7457.96
7425.98
7353.38
7330.1
7345.15
7356.76
13684.4
13506
13420.5
13456.1
13436.4
13216.7
13213.9
13199.8
13003.1
12885.6
12935.5
12636.2
12668.5
12678.2
12659.4
12453.1
12342.5
12396.5
12108.5
12147.1
12158.9
12147.1
11962.8
11869.9
11917.5
11668.8
11711.1
11717.4
11716.9
11575.8
11508.8
11543.9
11551.1
11402.3
11339.3
11403.4
11305.5
11250.7
11265.6
11283.4
11155.3
11098.4
11131.8
11154
11027.2
10980.2
11034.7
10821.8
10872.1
10871.4
10858.6
10725.9
10644.7
10653.4
10633.6
10472.7
10377.8
10393.8
10365.9
10179.2
10074.7
10096.9
10060.6
9867.35
9757.18
9783.96
9693.62
9551.21
9444.46
9475.42
9241.99
9238.97
9220.56
9167.09
9028.59
8968.31
8956.03
8924.58
8821.23
8766.27
8758.18
8746.31
8655.29
8607.44
8599.99
8589.41
8491.93
8462.54
8453.45
8444.76
8272.55
8321.93
8263.15
8294.43
8251.04
8169.37
8089.55
8111.36
8092.28
7928.26
7842.99
7856.75
7827.38
7669.63
7580.63
7585.59
7533.72
7375.83
7271.84
7266.47
7195.75
7022.4
6895.82
6879.96
6785.52
6621.91
6518
6499.75
6432.48
6378.03
6251.59
6191.64
6206.1
6208.44
6111.24
6077.49
6087.85
6098.11
11680.9
11839.3
11456.3
11478.7
11677.1
11324
11277.2
11327.5
11250.1
11020.7
11074.5
11277.9
10864.4
10853.2
10922.2
10753.5
10585
10646.8
10808.8
10442.1
10439.1
10508.4
10352
10207
10259.3
10458
10094.7
10084.6
10133.3
10067.9
9916.86
9949.5
10141.9
9851.04
9771.88
9845.46
9959.29
9702.76
9708.37
9775.98
9678.29
9562.83
9593.74
9772.46
9513.92
9443.82
9500.82
9674.59
9353.02
9342.05
9352.74
9342.41
9144.73
9148.37
9174.32
9045.47
8906.55
8920.3
8979.03
8760.64
8641.4
8663.12
8781.86
8477.1
8366.01
8393.62
8562.91
8196.47
8093.25
8125.53
8266.88
7922.16
7899.15
7861.28
7982.22
7687.82
7671.21
7649.85
7767.24
7506.96
7494.84
7489.54
7615.51
7364.65
7353.48
7348.31
7494.75
7236.62
7224.17
7219.74
7400.01
7116.45
7062.51
7091.34
7267.45
6991.12
6919.51
6939.32
7035.35
6791.8
6710.61
6722.39
6748.56
6572.15
6480.9
6484.33
6461.17
6321.38
6207.82
6202.03
6148.53
6035.72
5880.23
5865.5
5787.45
5766.28
5555.11
5538.06
5481.18
5586.7
5326.65
5269.42
5280.77
5309.77
5198.72
5155.7
5163.19
5176.38
11316.6
11204.5
11112.5
11143.3
11122.7
10956.3
10959.9
10945.3
10797
10705.5
10746.1
10591.1
10538.7
10550.9
10533.5
10376.4
10293.8
10337
10186
10144.6
10158.3
10147.3
10006.2
9937.69
9976.3
9850.35
9817.28
9827.13
9825.39
9715.92
9664.96
9694.46
9694.64
9580.29
9534.28
9583.73
9511.42
9459.13
9474.15
9482.65
9377.67
9332.41
9359.67
9365.52
9260.96
9220.07
9261.2
9145.05
9118.7
9121.47
9103.03
8991.38
8920.77
8929.5
8904.49
8768.88
8690.4
8703.62
8671.13
8517.85
8432.94
8450.11
8408.58
8254.24
8166.3
8186.41
8112.95
7989.27
7903.72
7926.43
7787.74
7729.44
7719
7672.93
7575.92
7509.48
7503.52
7473.77
7394.83
7341.53
7339.09
7326.33
7256.81
7211.8
7209.92
7197.47
7127.16
7092.95
7090.06
7079.4
6984
6979.29
6935.88
6959.21
6918.03
6858.57
6798.65
6815.35
6786.2
6661.03
6592.88
6603.2
6570.24
6439.41
6365.1
6368.67
6317.51
6181.13
6094.02
6089.93
6023.27
5875.5
5772.72
5761.69
5678.66
5539.61
5454.94
5443.35
5384.84
5327.07
5232.38
5183.73
5194.47
5187.34
5105.16
5076.26
5084.82
5087.79
9992.4
10069.7
9810.3
9829.55
9958.32
9702.81
9667.19
9704.61
9636.01
9458.19
9502.43
9607.36
9332.05
9324.71
9376.16
9242.06
9107.65
9158.72
9240.21
8992.88
8992.18
9045.5
8920.8
8804.16
8847.91
8956.74
8714.26
8707.72
8746.78
8690.59
8568.84
8596.81
8729.5
8513.35
8447.59
8508.62
8575.37
8385.72
8391.51
8443.71
8359.99
8261.97
8288.11
8412.81
8210.85
8147.41
8194.01
8291.29
8061.11
8052.9
8057.24
8037.25
7874.43
7878.07
7894.46
7782.66
7663.3
7675.03
7715.37
7534.03
7431.75
7449.78
7527
7287.66
7193.56
7216.29
7311.58
7045.24
6957.9
6984.22
7053.07
6810.27
6792.89
6760.2
6822.67
6612.03
6599.72
6579.8
6645.66
6456.22
6447.77
6441.89
6516.69
6334.86
6327.27
6321.2
6406.9
6225.51
6216.99
6211.68
6318.06
6123.78
6079.9
6103.53
6216.06
6018.91
5960.5
5977
6045.15
5848.86
5779.16
5788.7
5806.21
5654.25
5573.75
5576.31
5552.57
5429.19
5329.28
5324.41
5274.74
5177.18
5044.29
5032.83
4964.41
4934.72
4764.87
4752.05
4702.21
4765.39
4567.97
4518.53
4527.54
4547.89
4450.78
4411.97
4418.3
4427.06
9706.59
9614.56
9540.98
9567.14
9538.52
9413.14
9419.27
9402.49
9283.9
9210.84
9243.94
9127.16
9074.77
9087.25
9067.57
8943.38
8878.21
8913.22
8799.64
8756.61
8770.18
8756.58
8644.57
8590.62
8622.36
8527.56
8492.2
8502.94
8498.24
8408.91
8367.48
8392.51
8382.43
8294.55
8257.54
8296.98
8234.17
8189.42
8203.46
8204.4
8115.56
8076.55
8099.26
8091.37
8005.13
7967.58
7999.91
7928.28
7871.42
7875.47
7853.72
7756.37
7693.69
7701.79
7673.62
7556.97
7489.21
7500.31
7464.4
7336.14
7264.04
7277.79
7231.59
7106.52
7032.89
7048.7
6978.13
6877.08
6805.35
6822.89
6712.24
6653.98
6647.81
6607.22
6525.07
6467.15
6464.3
6436.34
6368.02
6321.64
6321.78
6308.62
6249.39
6210.26
6210.97
6197.96
6138.68
6108.26
6108.3
6097
6025.48
6011.61
5977.11
5995.54
5955.69
5910.01
5862.08
5875.55
5842.61
5740.86
5683
5691.05
5656.7
5543.95
5478.94
5481.53
5432.29
5312.04
5236.01
5232.62
5170.73
5043.41
4956.07
4947.89
4874.62
4756.36
4682.48
4674.53
4622.88
4566.48
4489.88
4448.13
4456.45
4444.49
4372.69
4346.73
4353.93
4353.08
8721.22
8776.13
8567.41
8582.68
8681.12
8478.61
8445.42
8478.17
8421.91
8269.65
8307.71
8385.3
8165.74
8158.01
8202.74
8093.7
7975.99
8020.69
8082.7
7881.69
7880.2
7927.39
7825.39
7721.96
7760.57
7844.96
7648.32
7641.51
7677.2
7631.3
7521.97
7546.53
7652.81
7475.21
7414.74
7468.94
7520.66
7358.54
7362.91
7408.2
7336.15
7244.17
7267.05
7366.8
7194.41
7132.55
7173.4
7247.91
7051.69
7043.47
7046.35
7027.87
6880.72
6883.56
6897.65
6800.56
6690.29
6700.59
6734.81
6577.9
6484.74
6500.76
6561.92
6359.4
6275.41
6295.71
6367.36
6146.23
6069.04
6092.51
6145.35
5942.02
5926.95
5899.97
5949.36
5771.06
5760.39
5743.56
5796.04
5634.95
5627.79
5623.22
5684.36
5529.92
5523.57
5518.59
5588.51
5435.01
5427.9
5423.31
5510.37
5346.73
5308.42
5329.21
5419.76
5255.77
5205.13
5219.89
5277.08
5106.85
5043.58
5051.87
5067.4
4931.13
4856.64
4858.76
4837.73
4727.67
4635.55
4631.34
4587.25
4505.65
4385.86
4376.54
4317.53
4292.9
4143.72
4133.27
4089.91
4138.81
3971.95
3927.67
3935.41
3953.07
3865.67
3829.19
3834.78
3842.33
8491.66
8424.3
8350.66
8371.92
8353.23
8244.96
8246.28
8234.59
8142.98
8070.02
8098.77
8008.44
7956.95
7966.17
7953.48
7852.41
7789.94
7820.95
7733.02
7688.82
7699.74
7692.27
7600.26
7547.67
7575.9
7503.08
7465.66
7474.03
7472.55
7401.79
7356.4
7378.41
7374.92
7293.8
7258.36
7293.58
7249.38
7195.9
7207.72
7209.48
7133.56
7090.74
7110.59
7106.51
7022.81
6983.95
7012.02
6936.43
6893.89
6896.82
6876.69
6799.2
6730.8
6737.72
6713.58
6612.72
6546.18
6555.93
6527.31
6412.67
6346.08
6358.21
6322.53
6208.32
6142.6
6156.6
6101.47
6006.11
5942.93
5958.4
5869.77
5811.88
5806.98
5772.58
5710.64
5650.24
5648.18
5623.81
5574.3
5522.6
5523.26
5511.76
5470.8
5425.7
5426.97
5415.42
5373.15
5336.79
5337.57
5327.31
5272.89
5252.53
5222.83
5238.74
5210.88
5163.92
5122.92
5134.77
5109.5
5015.3
4963.03
4969.88
4940.56
4837.2
4777.1
4779.18
4735.24
4627.64
4557.25
4554.4
4499.07
4392.14
4311.76
4305.43
4241.76
4148.85
4074.34
4068.37
4023.1
3978.17
3905.78
3868.58
3875.61
3864.89
3799.05
3774.48
3780.83
3779.42
7748.7
7805.66
7614.47
7625.18
7713.62
7539.34
7503.93
7535.9
7492.24
7351.88
7385.37
7463.46
7264.3
7253.67
7297.11
7206.42
7095.92
7136.5
7202.9
7016.53
7012.27
7058.36
6972.84
6874.16
6909.43
6995.4
6812.36
6802.87
6838.35
6802.25
6696.23
6717.98
6816.27
6656.61
6596.44
6647.15
6700.17
6544.71
6546.51
6589.77
6527.44
6435.18
6455.63
6547.28
6388.73
6325.26
6363.12
6437.94
6250.31
6240.16
6244.42
6232.99
6090.9
6092.31
6108.21
6023.88
5916.58
5925.76
5960.88
5820.58
5731.52
5746.5
5806.15
5623.41
5544.9
5564.23
5636.69
5432.95
5361.86
5384.34
5444.46
5252.9
5237.82
5216.53
5273.17
5102.61
5091.72
5078.71
5136.28
4981.77
4974.19
4971.84
5037.61
4889.04
4882.3
4879.35
4954.23
4804.94
4797.45
4794.4
4885.3
4726.17
4690.32
4709.74
4799.69
4644.58
4597.96
4611.91
4668.55
4511.32
4451.07
4458.73
4476.49
4350.61
4278.88
4280.77
4264.5
4165.88
4077.59
4073.82
4036.27
3970.32
3857.56
3849.51
3799.42
3786.91
3646.24
3636.82
3599.36
3649.47
3495.01
3453.98
3461.08
3479.65
3399.3
3363.51
3368.58
3376.71
7621.02
7548.14
7498.71
7516.09
7487.13
7404.4
7405.76
7390.29
7311.7
7250.09
7273.27
7171.61
7149.78
7157.83
7140.68
7056.9
7002.71
7027.88
6929.55
6912.48
6922.04
6909.96
6833.29
6786.88
6810.22
6724.75
6712.56
6720.04
6714.57
6653.31
6612.07
6630.73
6616.75
6552.71
6519.82
6549.02
6502.45
6458.93
6469.14
6465.58
6399.01
6358
6374.79
6360.88
6290.36
6252.51
6275.69
6187.51
6165.86
6168.51
6146.94
6077
6014.16
6020.08
5994.64
5906.07
5844.82
5853.08
5822.69
5723.84
5663.68
5673.85
5634.59
5539.27
5480.68
5492.34
5432.28
5357.47
5301.36
5314.19
5219.32
5184.24
5180.58
5149.29
5084.8
5039.58
5038.14
5015.13
4964.98
4923.44
4924.32
4912.63
4871.57
4834.79
4836.26
4824.8
4781
4753.46
4754.51
4744.24
4684.72
4676.23
4649.53
4663.22
4634.04
4594.91
4558.54
4568.87
4544.55
4460.39
4412.21
4417.93
4390.16
4296.23
4240.26
4241.83
4201.2
4104.41
4039.3
4036.74
3986.49
3894.46
3820.87
3815.74
3759.44
3680.16
3611.08
3606.27
3565.67
3523.33
3459.94
3425.92
3431.82
3421.1
3360.9
3337.25
3342.76
3340.59
7505.9
7361.11
7399.75
7421.09
7303.92
7284.85
7322.74
7255.73
7147.29
7164.23
7174.16
7025.58
7050.55
7075.73
6996.28
6920.49
6924.25
6930.67
6784.37
6822.62
6844.41
6772.05
6705.64
6713.15
6721.71
6586.52
6625.74
6649.1
6598.3
6515.22
6540.47
6553.78
6454.23
6460.48
6455.38
6458.94
6335.5
6385.06
6402.49
6347.91
6280.38
6292.54
6303.72
6203.8
6203.07
6191.4
6197.02
6052.72
6092.92
6107.67
6056.35
5931.92
5948.72
5958.22
5886.79
5797.75
5784.13
5790.25
5693.63
5637.22
5606.56
5610.4
5489.36
5465.22
5426.7
5428.96
5290.36
5291.73
5250.55
5251.88
5104.45
5124.85
5132.32
5089.13
4952.26
4985.21
4992.89
4957.98
4832.4
4873.18
4882.19
4859.3
4742.35
4788.11
4797.47
4775.85
4659.12
4709.18
4718.45
4699.53
4587.98
4633.17
4615.35
4622.1
4516.86
4551.9
4525.58
4531.27
4435.58
4416.02
4379.78
4382.84
4305.66
4248.25
4207.97
4208.71
4139.57
4049.04
4007.16
4005.48
3940.09
3823.76
3789.89
3787.36
3723.45
3581.24
3581.13
3580.7
3536.13
3431.82
3429.62
3402.34
3406.58
3362.33
3326.98
3315.12
3320.78
3305.92
6942.63
6872.15
6832.75
6845.89
6814.27
6746.98
6744.68
6729.31
6660.78
6603.65
6623.21
6551.86
6513.08
6517.76
6500.74
6429.36
6376.99
6398.9
6327.26
6294.99
6301.5
6289.36
6223.62
6177.39
6197.96
6137.21
6109.05
6113.49
6107.81
6054.3
6011.7
6027.75
6010.99
5955.8
5921.38
5947.95
5902.37
5862.12
5869.78
5865.62
5806.54
5762.58
5777.22
5761.17
5697.48
5657.55
5678.6
5616.14
5575.25
5575.85
5555.94
5494.18
5431.84
5436.31
5413.65
5335.47
5274.53
5281.66
5254.64
5166.58
5108.48
5117.68
5081.36
4997.11
4941.85
4952.65
4897.46
4831.27
4779.06
4791.11
4721.01
4674.74
4670.42
4642.97
4584.65
4543.18
4540.87
4520.41
4474.73
4436.04
4435.86
4425.3
4388.67
4353.59
4354.01
4343.82
4305.83
4277.85
4277.82
4268.54
4231.46
4205.4
4179.35
4192.13
4168.17
4128.81
4094.36
4104.03
4085.21
4005.26
3958.59
3963.74
3940.94
3852.82
3798.32
3799.61
3764.46
3676.98
3613.77
3611.37
3567.33
3489.69
3418.47
3413.91
3364.96
3298.95
3232.03
3227.48
3191.39
3156.33
3095.75
3063.56
3068.88
3061.18
3004.57
2980.41
2985.28
2983.99
6800.69
6714.24
6700.78
6716.95
6644.46
6602.69
6624.2
6576.86
6496.85
6481.73
6492.78
6406.53
6382.89
6399.53
6345.42
6279.02
6262.22
6271.7
6187.15
6173.08
6188.52
6139.74
6080.06
6068.12
6078.68
6002.49
5991.24
6007.4
5972
5908.13
5905.81
5918.39
5858.99
5835.89
5821.79
5830.23
5754.86
5755.83
5769.25
5731.06
5671.71
5663.24
5674.02
5611.51
5582.44
5562.04
5570.25
5485.14
5471.04
5481.08
5439.87
5349.93
5333.96
5341.46
5287.39
5209.18
5181.25
5187.05
5118.34
5055.26
5019.2
5023.88
4942.95
4896.11
4856.53
4860.47
4772.54
4738.19
4698.09
4701.65
4611.89
4588.56
4593.19
4557.27
4473.9
4462.97
4468.24
4439.21
4363.51
4361.19
4367.91
4349.21
4281.2
4283.72
4290.94
4273.16
4206.46
4211.63
4218.72
4202.77
4141.4
4141.43
4123.16
4130.36
4068.14
4065.63
4039.96
4046.01
3980.77
3941.43
3905.05
3908.2
3849.33
3786.49
3745.29
3746.13
3688.93
3605.63
3561.54
3560.15
3504.24
3409.42
3368.83
3366.87
3312.19
3211.48
3185.17
3184.66
3145.76
3075.96
3050.23
3024.39
3028.52
2995.76
2957.54
2944.05
2949.3
2937.99
6369.72
6330.63
6266.34
6273.85
6263.78
6190.22
6175.98
6171.02
6116.89
6046.84
6065.44
6034.05
5966.54
5963.38
5959.64
5896.39
5832.99
5855.77
5822.9
5760.05
5760.1
5760.71
5701.62
5643.79
5664.89
5643.03
5583.23
5580.38
5584
5541.1
5483.74
5498.28
5502.23
5435.24
5392.28
5422.21
5398.67
5336.91
5339.93
5345.84
5293.4
5235.9
5249.71
5253.29
5178.49
5130.17
5153.46
5126.72
5055.29
5050.41
5038.56
4994.56
4917.23
4919.14
4908.64
4840.04
4769.43
4775.96
4766.06
4679.47
4616.1
4626.04
4612.72
4521.26
4463.67
4476.18
4453.01
4368.48
4315.79
4330.2
4300
4226.33
4218.12
4197.32
4171.35
4106.28
4100.64
4085.78
4066.99
4007.7
4004.37
3997.95
3987.02
3931.42
3928.78
3922.45
3913.37
3861.06
3857.86
3851.59
3848.35
3792.83
3764.74
3778.49
3779.72
3720.11
3684.32
3694.72
3693.85
3605.92
3557.34
3562.81
3552.61
3464.5
3407.51
3408.9
3383.85
3304.5
3238.15
3235.81
3200.67
3139.89
3064.41
3059.85
3019.51
2975.78
2899.93
2894.51
2863.8
2850.45
2778.51
2746.65
2752.16
2752.92
2697.02
2670.26
2674.76
2676.94
6259.73
6201.41
6163.35
6173.73
6128.83
6077.47
6082.34
6051.86
5990.78
5951
5962.86
5904.83
5863.28
5870.39
5836.98
5778.3
5741.88
5754.55
5698.83
5662.18
5670.17
5641.16
5587.27
5555.97
5568.81
5520.14
5487.38
5494.99
5474.04
5424.38
5397.48
5409.35
5376.25
5336.63
5311.15
5325.75
5278.82
5249.26
5257.77
5235.46
5183.29
5154.18
5164.82
5128.91
5082.91
5051.82
5063.95
5009.47
4968.77
4972.71
4942.64
4878.57
4836.31
4841.23
4804.5
4736.11
4692.58
4698.09
4653.92
4586.87
4542.69
4548.73
4497.51
4437.06
4393.57
4400.02
4342.8
4290.86
4249.25
4256.11
4197.58
4154.38
4154.59
4126.06
4073.74
4039.11
4040.65
4017.95
3972.38
3944.77
3948.01
3934.06
3895.52
3872.33
3876.22
3862.86
3824.99
3804.74
3808.43
3795.97
3760.97
3738.12
3717.5
3726.09
3690.23
3665.7
3638.37
3645.44
3604.55
3550.68
3512.04
3515.69
3474.71
3406.98
3362.62
3363.66
3319.36
3242.83
3193.94
3192.66
3146.85
3071.98
3022.27
3020.3
2974.64
2904.9
2859.94
2858.51
2825.08
2778.78
2739.32
2713.58
2717.98
2697.22
2656.08
2639.46
2644.36
2637.47
5938.28
5925.47
5839.41
5841.33
5849.59
5767.77
5744.03
5745.54
5702.76
5622.17
5638.55
5636.26
5547.41
5537.15
5542.85
5484.88
5412.75
5434.95
5431.42
5344.76
5338.53
5348.53
5293.58
5226.16
5246.7
5254.68
5169.87
5159.95
5170.27
5135.67
5065.71
5078.13
5102.48
5021.63
4970.53
5002.88
5002.16
4917.72
4915.77
4929.96
4882.6
4813.68
4826.17
4849.88
4762.47
4706.3
4731.35
4737.51
4638.01
4627.3
4622.47
4594.89
4503.7
4502.56
4502.63
4442
4363.16
4368.7
4374.38
4288.26
4219.72
4230.1
4239.7
4139
4078.27
4092.25
4100.35
3996.35
3941.92
3958.54
3962.08
3864.97
3852.14
3837.06
3842.08
3753.04
3743.34
3733.37
3742.3
3660.17
3652.92
3650.14
3666.24
3587.39
3580.88
3578.04
3598.32
3520.03
3512.81
3509.3
3536.86
3453.91
3422.52
3437.51
3466.18
3383.25
3344.66
3355.88
3374.22
3276.33
3224.67
3230.52
3232.65
3144.35
3083.94
3085.34
3069.95
2998.14
2928.1
2925.5
2898.86
2852.65
2772.76
2767.57
2735.14
2714.07
2626.87
2619.83
2594.06
2604.08
2518.11
2485.51
2491.27
2500.17
2444.99
2414.77
2418.78
2424.32
5875.62
5816.33
5782.91
5788.32
5748.35
5701.27
5697.14
5672.09
5618.02
5571.77
5581.66
5509.49
5488.7
5489.56
5462.56
5409.67
5365.59
5377.63
5308.2
5289.51
5292.2
5269.34
5220.3
5180.46
5192.63
5130.16
5114.68
5116.39
5100.34
5056.54
5019.72
5029.76
5001.37
4962.03
4929.4
4945.76
4902.69
4868.63
4873.16
4856.9
4809.65
4770.52
4780.05
4750.84
4704.25
4666.61
4679.99
4623.57
4588.64
4588.19
4563.92
4510.21
4459.89
4462.54
4434.39
4373.62
4323.06
4327.79
4294.35
4230.73
4182.41
4188.64
4147.69
4088.88
4043.3
4050.66
3998.99
3951.57
3909.14
3917.42
3852.22
3824.27
3821.14
3796.98
3747.61
3715.46
3713.98
3694.87
3654.27
3625.03
3625.28
3613.72
3579.97
3554.13
3555.07
3544.12
3509.09
3487.93
3488.56
3478.01
3435.68
3422.19
3399.19
3408.54
3378.53
3350.9
3321.71
3329.24
3299.78
3242.49
3201.84
3205.67
3175.35
3107.83
3061.1
3062.12
3026.92
2957.23
2905.34
2903.93
2865.91
2804.82
2750.59
2748.27
2709.62
2654.39
2605.03
2602.52
2573.27
2536.24
2495.39
2469.29
2473.71
2460.45
2419
2399.28
2403.63
2399.63
5822.26
5755.05
5736.59
5744.16
5680.21
5644.4
5659.57
5609.45
5548.66
5531.13
5532.91
5461.53
5439.02
5450.25
5395.57
5344.27
5327.51
5327.48
5258.09
5242.64
5253.34
5202.22
5155.48
5143.1
5144.92
5079.7
5067.05
5079.85
5037.92
4987.07
4981.35
4987.27
4930.59
4909.03
4895.81
4893.67
4831.36
4826.58
4836.66
4791.55
4743.45
4734.47
4739.25
4678.45
4652.12
4633.89
4633.21
4560.6
4545.74
4555.19
4509.72
4437.5
4422.65
4428.21
4372.21
4311.05
4289.61
4292.25
4226.39
4178.6
4151.63
4152.17
4079.86
4044.27
4014.56
4013.57
3938.57
3912.26
3882.23
3880.33
3805.62
3788.89
3795.37
3760.49
3691.83
3682.85
3689.4
3659.52
3596.85
3594.51
3602.05
3580.08
3523.34
3525.18
3533.35
3512.74
3456.24
3459.91
3468.15
3449.16
3394.05
3394.25
3379.64
3382.01
3325.12
3322.27
3302.55
3305.21
3242.73
3212.29
3182.85
3183.78
3123.41
3074.66
3042.07
3042.09
2985.27
2919.16
2886.29
2885.61
2834.27
2759.34
2731.82
2732
2685.73
2605.36
2586.28
2588.04
2554.48
2493.74
2475.44
2455.72
2458.21
2422.75
2395.35
2386.18
2390.51
2375.03
5597.76
5548.44
5506.81
5507.4
5472.64
5424.51
5414
5390.77
5340.21
5290.65
5297.74
5251.67
5208.21
5203.5
5179.58
5129.32
5080.56
5090.97
5045.79
5004.81
5002.33
4982.77
4935.82
4890.18
4900.97
4862.98
4824.49
4820.45
4807.2
4766.15
4722.66
4730.42
4708.83
4665.61
4626.38
4643.85
4607.24
4565.79
4566.06
4554.32
4509.84
4463.46
4471.59
4450.46
4400.84
4357.14
4371.56
4331.12
4283.66
4278.29
4259.17
4212.74
4157.19
4157.08
4136.21
4081.03
4025.4
4029.02
4004.79
3943.87
3891.68
3897.97
3868.08
3808.36
3760.08
3768.3
3731.76
3677.79
3633.49
3643.26
3604.38
3557.08
3549.81
3529.65
3494.64
3452.33
3447.07
3431.35
3402.09
3363.85
3360.39
3351.19
3328.28
3292.83
3290.04
3281.55
3260.08
3226.53
3223.27
3214.77
3196.5
3160.43
3133.79
3144.31
3128
3089.21
3056.83
3065.06
3047.66
2986.05
2942.31
2946.42
2926.13
2859.19
2809.25
2810.18
2783.72
2720.23
2665
2663.16
2632.77
2582.54
2524.74
2521.51
2489.52
2446.83
2393.54
2389.26
2364.06
2340.59
2293.44
2266.04
2270.6
2264.42
2222.98
2199.34
2203.06
2202.03
5543.93
5490.55
5456.27
5457.81
5409.9
5368.18
5367.59
5330.19
5278.95
5241.64
5243.97
5190.06
5153.63
5154.83
5115.28
5067.4
5031.94
5035.14
4983.93
4950.45
4952.92
4917
4872.6
4841.02
4845.49
4799.29
4768.61
4771.69
4742.6
4700.16
4672.05
4677.38
4639.76
4605.82
4578.82
4584.34
4541.15
4512.2
4516.43
4486.69
4443.27
4413.84
4418.94
4379.51
4340.76
4309.87
4314.93
4265.75
4229.33
4231.13
4197.93
4144.74
4106.94
4109.26
4070.56
4016.56
3978.24
3980.7
3936.72
3885.12
3846.99
3849.5
3801.42
3754.64
3717.5
3720.09
3669.68
3628.2
3593.03
3595.81
3546.61
3510.88
3510.87
3483.33
3438.74
3408.77
3409.79
3386.54
3347.18
3322.48
3324.88
3308.25
3274.54
3253.25
3256.42
3240.88
3207.88
3188.22
3191.27
3176.49
3144.84
3122.57
3102.91
3108.12
3074.37
3050.94
3026.44
3031.1
2990.94
2946.74
2912.21
2914.3
2872.63
2818.08
2779.4
2779.81
2737.58
2676.59
2635.59
2634.68
2594.42
2536.42
2496.43
2495.66
2458.07
2403.21
2366.28
2365.82
2337.5
2297.58
2266
2244.27
2247.48
2225.2
2193.45
2178.74
2182.68
2172.91
5399.7
5364.75
5307.47
5303.14
5278.66
5221.77
5204.54
5183.19
5138.06
5079.1
5083.08
5055.14
4994.33
4983.7
4965.01
4915.27
4858.24
4866.92
4840.99
4780.34
4772.14
4758.76
4711.59
4656.72
4666.12
4649.01
4589.4
4578.82
4570.24
4533.66
4478.16
4483.41
4478.49
4421.12
4373.69
4393.27
4374.52
4312.91
4308.13
4304.22
4261.9
4204.78
4211.27
4208.8
4146.14
4094.88
4111.04
4096.78
4026.03
4014.58
4002.13
3969.48
3900.37
3896.82
3886.24
3835.93
3772.04
3774.21
3765.25
3701.54
3643.45
3649.95
3641.15
3570.4
3517.59
3527.17
3516.77
3444.76
3396.79
3408.73
3397.16
3328.58
3315.74
3300.13
3290.18
3226.29
3215.98
3204.34
3198.14
3138.55
3130.17
3124.1
3123.96
3066.49
3058.73
3053.39
3056.77
2999.31
2990.82
2985
2993.38
2932.14
2900.47
2912.78
2921.87
2860.48
2823.31
2832.66
2835.71
2761.63
2713.28
2717.89
2711.7
2641.95
2587.26
2588.04
2572.08
2513.93
2453.71
2451.1
2429.14
2390.78
2326.79
2321.96
2296.98
2274.97
2208.94
2201.91
2181.12
2179.91
2117.97
2088.21
2093.11