/*--------------------------------*- C++ -*----------------------------------*\
| =========                 |                                                 |
| \\      /  F ield         | OpenFOAM: The Open Source CFD Toolbox           |
|  \\    /   O peration     | Version:  v2012                                 |
|   \\  /    A nd           | Website:  www.openfoam.com                      |
|    \\/     M anipulation  |                                                 |
\*---------------------------------------------------------------------------*/
FoamFile
{
    version     2.0;
    format      ascii;
    class       volScalarField;
    location    "1e-06";
    object      p;
}
// * * * * * * * * * * * * * * * * * * * * * * * * * * * * * * * * * * * * * //

dimensions      [1 -1 -2 0 0 0 0];


internalField   nonuniform List<scalar> 
10123
(
236594
234368
234633
233764
231687
232211
231684
230048
229474
230328
229993
228077
229426
229357
227858
227726
229161
229153
227360
229270
229508
228143
228333
230043
230293
228642
230734
231164
230046
230412
232044
232501
231453
232062
233473
233823
232926
234459
235047
234511
235052
236122
236673
236393
236978
237887
238396
238331
239073
239883
239994
240455
241278
241859
242072
242514
243594
244159
244192
244669
246238
246831
246553
247141
249300
249929
249264
250052
252616
253355
251587
254861
255923
254839
255343
258409
259479
258240
258957
261926
263145
262105
263172
265442
266904
265955
267040
269018
269892
270041
270947
271829
273066
273553
274407
276283
275821
276816
278027
278979
277738
278836
281466
281933
280460
281473
284479
284712
283905
284123
287538
288241
288016
288303
291307
291028
292570
293638
294444
295001
294956
300019
300459
298482
299973
305652
306894
304299
236589
234359
234627
233761
231678
232206
231680
230044
229466
230321
229991
228068
229419
229353
227851
227721
229156
229151
227354
229262
229504
228136
228327
230037
230291
228637
230723
231159
230039
230403
232035
232495
231446
232054
233466
233817
232920
234452
235042
234506
235045
236116
236669
236389
236973
237882
238395
238329
239067
239873
239986
240445
241267
241850
242062
242503
243583
244152
244184
244658
246226
246823
246545
247128
249288
249921
249257
250038
252604
253349
251580
254847
255913
254830
255333
258397
259476
258240
258959
261926
263150
262111
263172
265443
266912
265963
267045
269022
269901
270049
270952
271840
273073
273562
274414
276284
275820
276816
278040
278991
277747
278842
281473
281940
280467
281474
284482
284716
283909
284125
287540
288242
288017
288304
291307
291028
292567
293635
294441
295001
294954
300015
300458
298483
299975
305654
306896
304299
236596
234356
234625
233769
231674
232204
231685
230044
229462
230319
229989
228064
229425
229354
227849
227716
229154
229147
227350
229263
229504
228133
228322
230032
230287
228633
230724
231159
230036
230398
232031
232495
231445
232047
233463
233818
232918
234447
235042
234505
235041
236112
236669
236388
236969
237879
238393
238327
239070
239877
239995
240449
241270
241856
242070
242505
243586
244159
244190
244659
246228
246828
246549
247129
249288
249924
249258
250031
252604
253349
251576
254848
255915
254831
255329
258388
259474
258237
258950
261912
263146
262104
263158
265429
266904
265954
267028
269005
269889
270037
270938
271817
273056
273545
274393
276283
275820
276811
278017
278978
277737
278822
281458
281934
280463
281462
284477
284715
283908
284125
287538
288242
288018
288303
291308
291028
292563
293632
294438
295000
294953
300012
300457
298481
299961
305652
306896
304294
236604
234351
234621
233776
231668
232202
231684
230042
229459
230318
229995
228058
229419
229355
227846
227713
229153
229149
227345
229257
229504
228129
228317
230030
230289
228630
230716
231161
230033
230392
232028
232494
231442
232040
233463
233817
232914
234443
235042
234503
235037
236109
236669
236386
236965
237876
238393
238325
239069
239872
239992
240444
241266
241853
242065
242499
243581
244157
244187
244653
246223
246827
246547
247121
249288
249923
249256
250022
252604
253349
251571
254849
255913
254829
255323
258388
259473
258235
258945
261913
263147
262101
263150
265429
266905
265954
267029
269007
269891
270037
270939
271821
273059
273548
274397
276284
275821
276809
278027
278986
277740
278824
281460
281936
280464
281463
284477
284716
283909
284126
287539
288242
288018
288302
291309
291028
292562
293629
294436
295000
294952
300012
300457
298480
299952
305640
306898
304296
236603
234345
234621
233785
231661
232203
231690
230040
229455
230319
229999
228051
229419
229359
227843
227710
229154
229150
227338
229258
229507
228126
228314
230031
230290
228625
230713
231164
230030
230387
232030
232495
231439
232035
233464
233818
232910
234444
235043
234501
235033
236109
236669
236385
236962
237877
238393
238323
239071
239868
239992
240440
241263
241853
242063
242494
243581
244157
244186
244647
246223
246828
246545
247114
249289
249924
249253
250013
252606
253351
251565
254850
255912
254828
255317
258389
259471
258234
258939
261910
263149
262098
263141
265424
266905
265953
267022
268999
269890
270035
270935
271815
273054
273544
274390
276282
275818
276801
278019
278983
277736
278813
281454
281934
280461
281452
284474
284714
283907
284123
287531
288240
288017
288299
291308
291026
292558
293625
294436
295000
294951
300013
300457
298480
299952
305640
306898
304295
236600
234334
234614
233783
231648
232196
231689
230034
229445
230314
229997
228039
229412
229356
227834
227700
229148
229145
227327
229249
229503
228116
228303
230023
230285
228615
230702
231162
230021
230376
232022
232492
231432
232024
233459
233815
232903
234437
235041
234496
235027
236104
236667
236381
236956
237872
238392
238319
239073
239861
239991
240435
241258
241852
242060
242487
243576
244156
244182
244637
246217
246826
246541
247102
249281
249922
249248
249999
252598
253348
251554
254840
255906
254823
255309
258376
259466
258229
258929
261897
263149
262091
263129
265413
266902
265950
267014
268992
269888
270033
270932
271812
273054
273544
274391
276284
275820
276803
278022
278988
277739
278817
281457
281939
280464
281456
284476
284718
283909
284125
287532
288242
288019
288300
291309
291026
292553
293621
294432
294998
294947
300006
300455
298477
299936
305626
306896
304290
236599
234324
234610
233790
231638
232193
231688
230030
229438
230312
229999
228028
229408
229357
227828
227693
229146
229145
227316
229244
229503
228110
228295
230019
230285
228607
230694
231163
230014
230368
232019
232491
231427
232015
233459
233814
232896
234438
235041
234492
235021
236100
236667
236378
236951
237869
238391
238315
239075
239856
239991
240430
241254
241852
242057
242481
243572
244156
244180
244629
246218
246826
246537
247092
249282
249921
249244
249987
252599
253348
251545
254841
255903
254819
255302
258376
259463
258225
258919
261898
263150
262085
263119
265414
266902
265948
267006
268992
269888
270030
270928
271812
273050
273541
274392
276284
275818
276795
278023
278989
277738
278817
281458
281940
280464
281456
284477
284719
283909
284125
287532
288242
288018
288300
291308
291026
292549
293617
294429
294997
294945
300007
300454
298475
299923
305622
306897
304287
236598
234313
234606
233792
231626
232190
231688
230025
229430
230310
230000
228016
229405
229358
227821
227685
229144
229145
227304
229239
229504
228103
228287
230016
230285
228597
230687
231165
230008
230360
232020
232490
231421
232007
233460
233814
232889
234438
235041
234489
235016
236097
236667
236375
236947
237869
238391
238310
239077
239849
239991
240424
241249
241853
242054
242473
243572
244156
244177
244620
246218
246826
246533
247082
249283
249921
249239
249975
252600
253348
251534
254843
255900
254816
255294
258376
259459
258221
258908
261899
263151
262080
263108
265404
266901
265946
266998
268985
269888
270027
270923
271808
273047
273541
274392
276283
275818
276791
278025
278990
277737
278817
281459
281941
280463
281457
284477
284721
283908
284126
287532
288241
288018
288301
291306
291026
292544
293613
294427
294996
294942
300004
300453
298473
299909
305612
306898
304284
236596
234301
234600
233791
231614
232186
231687
230020
229421
230308
230000
228002
229401
229359
227814
227677
229142
229145
227291
229234
229504
228096
228278
230012
230285
228586
230679
231166
230001
230351
232019
232490
231415
231997
233460
233813
232881
234438
235041
234484
235010
236094
236667
236372
236942
237868
238391
238305
239080
239843
239991
240419
241245
241853
242051
242466
243572
244157
244173
244610
246219
246826
246529
247071
249284
249919
249234
249962
252601
253348
251522
254845
255896
254812
255287
258377
259455
258217
258896
261901
263152
262075
263097
265404
266900
265943
266989
268985
269888
270024
270918
271808
273045
273538
274394
276284
275817
276791
278027
278993
277736
278818
281460
281943
280463
281458
284478
284723
283908
284127
287533
288241
288018
288302
291304
291026
292541
293608
294423
294995
294939
300002
300452
298471
299894
305603
306899
304279
236595
234288
234596
233795
231601
232182
231687
230016
229412
230307
230004
227989
229398
229361
227808
227668
229141
229146
227279
229230
229506
228089
228269
230013
230286
228575
230672
231169
229994
230342
232020
232490
231409
231988
233461
233814
232873
234439
235042
234480
235004
236095
236667
236368
236936
237868
238391
238301
239082
239837
239990
240412
241240
241853
242047
242457
243572
244157
244170
244600
246220
246826
246524
247059
249285
249919
249229
249950
252602
253350
251509
254846
255893
254810
255280
258378
259452
258214
258884
261901
263155
262071
263085
265405
266899
265942
266981
268977
269888
270020
270914
271802
273039
273533
274394
276280
275814
276781
278028
278991
277732
278805
281456
281941
280459
281446
284474
284721
283904
284124
287524
288238
288017
288303
291300
291025
292536
293604
294423
294995
294937
300003
300454
298471
299893
305603
306904
304278
236588
234270
234583
233792
231583
232170
231683
230005
229396
230297
230000
227971
229386
229355
227794
227652
229131
229139
227260
229217
229499
228075
228252
230002
230279
228560
230658
231164
229981
230327
232009
232485
231398
231973
233454
233809
232862
234430
235038
234473
234995
236088
236664
236362
236929
237863
238389
238295
239083
239830
239988
240405
241233
241854
242042
242447
243566
244156
244164
244587
246213
246823
246517
247044
249275
249914
249221
249931
252591
253346
251492
254832
255884
254801
255270
258359
259443
258202
258869
261885
263151
262061
263071
265390
266895
265936
266970
268966
269886
270016
270909
271798
273037
273534
274395
276282
275816
276783
278031
278997
277735
278807
281460
281947
280463
281448
284477
284728
283907
284128
287527
288240
288019
288305
291299
291025
292528
293598
294418
294991
294929
299994
300449
298464
299871
305584
306901
304269
236584
234254
234574
233789
231567
232162
231681
229998
229383
230290
229997
227955
229377
229352
227783
227639
229125
229136
227244
229208
229496
228064
228239
229995
230276
228546
230647
231162
229971
230315
232002
232482
231390
231961
233450
233807
232851
234424
235037
234466
234988
236082
236663
236358
236923
237859
238387
238289
239084
239823
239985
240397
241228
241854
242037
242437
243566
244156
244159
244576
246213
246821
246510
247030
249276
249911
249214
249916
252592
253344
251477
254833
255878
254795
255262
258345
259440
258192
258857
261885
263150
262054
263058
265390
266892
265932
266961
268966
269886
270011
270905
271799
273032
273530
274397
276281
275814
276773
278034
279000
277734
278808
281462
281949
280463
281448
284479
284730
283906
284129
287527
288239
288018
288306
291295
291025
292524
293593
294414
294989
294925
299990
300448
298461
299854
305574
306902
304263
236581
234238
234564
233787
231551
232153
231678
229991
229370
230285
229996
227938
229369
229351
227774
227626
229120
229134
227228
229200
229494
228054
228226
229989
230275
228532
230637
231162
229961
230303
231996
232480
231381
231949
233449
233806
232841
234419
235036
234461
234980
236077
236662
236353
236916
237857
238386
238284
239086
239816
239984
240390
241222
241854
242033
242427
243566
244156
244154
244564
246214
246819
246504
247017
249277
249909
249208
249900
252593
253344
251461
254835
255871
254790
255256
258330
259438
258180
258844
261882
263149
262048
263044
265379
266890
265928
266951
268956
269886
270006
270900
271799
273026
273530
274398
276279
275813
276765
278036
279001
277732
278809
281464
281951
280462
281450
284480
284733
283905
284130
287527
288237
288017
288308
291290
291024
292517
293587
294410
294987
294920
299986
300446
298457
299835
305564
306904
304257
236576
234221
234553
233783
231535
232143
231675
229984
229356
230278
229994
227921
229360
229348
227763
227612
229114
229131
227211
229190
229490
228043
228212
229982
230271
228517
230625
231159
229951
230290
231988
232478
231372
231937
233445
233803
232830
234413
235035
234454
234972
236072
236661
236347
236909
237855
238385
238278
239088
239810
239980
240382
241216
241854
242028
242417
243566
244155
244148
244552
246215
246816
246497
247003
249278
249905
249201
249885
252594
253342
251444
254837
255863
254784
255251
258313
259435
258168
258831
261882
263148
262041
263031
265379
266887
265924
266941
268952
269886
270001
270895
271799
273020
273527
274400
276279
275812
276756
278040
279004
277731
278810
281466
281953
280461
281452
284481
284736
283904
284131
287527
288236
288017
288309
291285
291024
292513
293581
294405
294984
294915
299981
300444
298453
299816
305553
306905
304251
236570
234203
234541
233779
231519
232131
231671
229976
229341
230270
229992
227904
229349
229344
227753
227598
229107
229127
227194
229179
229487
228032
228197
229974
230268
228503
230613
231157
229941
230277
231980
232475
231362
231924
233441
233801
232819
234405
235034
234448
234964
236066
236660
236342
236902
237853
238383
238272
239089
239803
239977
240374
241210
241855
242022
242407
243562
244154
244142
244540
246215
246814
246490
246988
249278
249902
249194
249868
252595
253341
251426
254838
255854
254778
255246
258295
259432
258156
258817
261866
263147
262034
263016
265366
266884
265920
266930
268941
269886
269996
270890
271800
273014
273528
274402
276274
275811
276748
278045
279005
277730
278813
281468
281955
280461
281454
284482
284738
283902
284133
287527
288234
288016
288311
291280
291023
292506
293574
294401
294981
294909
299975
300443
298449
299797
305540
306907
304244
236562
234185
234527
233774
231501
232117
231666
229967
229326
230261
229988
227886
229337
229339
227741
227582
229099
229122
227176
229167
229482
228021
228181
229965
230263
228487
230600
231153
229931
230263
231971
232471
231352
231910
233437
233798
232807
234397
235032
234441
234955
236060
236658
236336
236895
237852
238381
238266
239091
239796
239973
240366
241204
241854
242017
242396
243557
244152
244136
244528
246215
246810
246482
246974
249274
249897
249187
249851
252595
253338
251408
254841
255843
254772
255240
258283
259428
258144
258803
261864
263144
262026
263001
265367
266880
265915
266919
268940
269887
269990
270884
271801
273007
273525
274404
276279
275810
276738
278048
279007
277728
278814
281470
281956
280460
281457
284484
284742
283900
284135
287528
288232
288016
288313
291274
291022
292505
293567
294396
294978
294904
299969
300440
298444
299777
305530
306908
304236
236551
234164
234508
233767
231483
232100
231659
229957
229307
230247
229982
227868
229321
229331
227727
227564
229087
229113
227157
229151
229473
228007
228163
229953
230256
228471
230583
231146
229918
230247
231960
232465
231341
231894
233429
233793
232795
234387
235029
234434
234945
236053
236656
236330
236886
237846
238379
238260
239092
239789
239969
240357
241196
241852
242011
242385
243549
244149
244129
244515
246206
246805
246474
246957
249263
249891
249178
249832
252582
253333
251390
254830
255829
254764
255227
258283
259421
258130
258787
261844
263140
262018
262985
265351
266874
265910
266907
268927
269886
269985
270878
271802
273000
273526
274408
276265
275809
276729
278053
279010
277728
278815
281474
281959
280461
281459
284485
284745
283898
284138
287528
288230
288014
288315
291269
291021
292497
293560
294391
294974
294897
299960
300437
298439
299755
305514
306909
304228
236541
234143
234490
233758
231464
232082
231651
229944
229289
230233
229972
227848
229304
229320
227713
227545
229073
229102
227138
229134
229462
227992
228144
229939
230245
228453
230565
231137
229904
230230
231947
232457
231329
231878
233420
233786
232782
234377
235024
234425
234935
236046
236651
236323
236878
237841
238375
238253
239093
239782
239964
240349
241190
241849
242004
242375
243541
244145
244121
244502
246195
246799
246464
246941
249251
249882
249170
249814
252568
253325
251370
254816
255812
254752
255209
258286
259413
258114
258771
261823
263133
262006
262969
265335
266867
265903
266895
268915
269885
269977
270873
271803
273001
273527
274411
276274
275814
276731
278060
279018
277733
278821
281479
281967
280467
281464
284488
284754
283901
284145
287531
288231
288016
288321
291264
291020
292490
293551
294383
294968
294887
299945
300429
298429
299728
305486
306903
304214
236535
234128
234481
233754
231452
232073
231648
229937
229279
230231
229971
227836
229298
229323
227709
227537
229074
229104
227126
229132
229465
227988
228136
229943
230247
228444
230568
231141
229901
230222
231950
232460
231323
231876
233424
233786
232774
234379
235026
234421
234929
236047
236652
236318
236878
237842
238373
238248
239094
239776
239960
240341
241190
241848
241999
242366
243542
244144
244116
244493
246197
246797
246458
246932
249253
249881
249166
249815
252570
253327
251357
254819
255805
254753
255195
258292
259417
258111
258764
261827
263137
262004
262970
265339
266868
265903
266896
268917
269890
269972
270873
271806
272991
273521
274413
276259
275805
276714
278064
279012
277724
278801
281468
281959
280457
281444
284477
284749
283890
284139
287514
288223
288011
288323
291252
291019
292490
293549
294383
294967
294889
299948
300434
298431
299731
305489
306914
304214
236523
234108
234461
233746
231436
232054
231641
229927
229261
230218
229965
227819
229282
229316
227698
227520
229063
229097
227109
229116
229459
227978
228119
229932
230241
228429
230551
231135
229892
230207
231939
232456
231313
231861
233419
233783
232762
234369
235024
234415
234919
236040
236650
236312
236869
237843
238371
238242
239094
239769
239956
240332
241182
241844
241993
242355
243533
244141
244108
244481
246187
246792
246450
246916
249243
249875
249158
249798
252561
253322
251341
254821
255788
254748
255176
258299
259413
258101
258749
261811
263133
261998
262954
265339
266862
265899
266884
268903
269891
269967
270865
271806
272982
273523
274416
276255
275804
276709
278067
279012
277723
278804
281471
281960
280457
281447
284478
284752
283887
284142
287515
288218
288009
288326
291246
291018
292481
293540
294379
294961
294882
299938
300431
298426
299708
305485
306915
304206
236509
234086
234438
233734
231417
232031
231629
229915
229242
230201
229954
227801
229261
229304
227685
227500
229048
229085
227092
229097
229447
227964
228100
229918
230231
228413
230532
231125
229879
230190
231926
232448
231302
231845
233410
233776
232750
234358
235019
234407
234909
236032
236646
236305
236861
237837
238366
238236
239095
239761
239950
240323
241174
241839
241985
242344
243524
244135
244099
244468
246175
246785
246440
246900
249230
249866
249150
249780
252546
253312
251325
254822
255768
254740
255156
258303
259406
258089
258733
261809
263127
261988
262937
265341
266855
265894
266884
268900
269893
269959
270859
271809
272973
273525
274420
276252
275802
276698
278073
279014
277723
278807
281473
281962
280458
281451
284479
284756
283884
284145
287516
288214
288008
288329
291237
291016
292481
293531
294372
294955
294876
299926
300426
298420
299686
305472
306915
304196
236493
234063
234411
233722
231398
232006
231615
229902
229220
230181
229942
227783
229238
229291
227671
227480
229032
229074
227074
229075
229436
227951
228080
229902
230221
228398
230511
231115
229868
230172
231912
232441
231290
231827
233401
233770
232737
234345
235015
234399
234897
236024
236643
236297
236851
237832
238362
238229
239090
239753
239944
240313
241164
241834
241978
242333
243514
244130
244091
244454
246162
246777
246430
246882
249216
249857
249142
249762
252530
253302
251310
254813
255749
254730
255137
258306
259399
258078
258717
261785
263119
261979
262920
265340
266848
265890
266871
268885
269894
269953
270851
271810
272964
273526
274425
276246
275801
276699
278077
279015
277723
278809
281477
281962
280459
281453
284481
284759
283880
284149
287516
288210
288005
288332
291229
291013
292470
293522
294366
294949
294868
299913
300422
298413
299662
305455
306916
304186
236476
234039
234383
233707
231379
231979
231599
229889
229199
230161
229928
227765
229214
229277
227657
227460
229014
229060
227057
229052
229422
227937
228061
229886
230209
228382
230490
231104
229856
230155
231898
232432
231278
231811
233392
233762
232725
234333
235010
234391
234886
236016
236638
236290
236842
237826
238357
238223
239090
239744
239937
240304
241155
241827
241969
242322
243503
244123
244081
244441
246148
246768
246419
246866
249200
249846
249134
249746
252512
253289
251298
254813
255736
254712
255119
258309
259392
258066
258701
261785
263112
261969
262902
265342
266840
265884
266871
268885
269897
269945
270845
271813
272953
273528
274427
276241
275798
276687
278085
279016
277723
278812
281479
281963
280459
281457
284482
284762
283875
284153
287514
288205
288003
288335
291218
291011
292469
293512
294359
294942
294862
299900
300417
298407
299640
305445
306916
304176
236454
234013
234347
233686
231357
231944
231575
229871
229173
230132
229907
227745
229181
229255
227640
227433
228988
229041
227038
229021
229402
227921
228035
229861
230192
228365
230460
231085
229841
230134
231876
232420
231264
231789
233378
233752
232710
234316
235001
234382
234872
236005
236633
236282
236828
237817
238354
238216
239079
239736
239933
240292
241141
241822
241963
242309
243490
244116
244071
244425
246131
246758
246408
246845
249181
249832
249126
249727
252488
253270
251286
254789
255726
254684
255099
258282
259380
258052
258683
261756
263100
261958
262883
265320
266828
265879
266857
268866
269895
269938
270845
271814
272943
273532
274433
276229
275798
276688
278092
279018
277726
278821
281484
281964
280461
281463
284485
284766
283873
284161
287517
288200
288000
288339
291211
291008
292457
293501
294352
294934
294853
299883
300409
298399
299613
305421
306913
304166
236422
233982
234309
233654
231330
231908
231544
229846
229145
230099
229876
227721
229147
229226
227617
227407
228957
229012
227015
228988
229374
227898
228010
229833
230165
228344
230430
231060
229821
230111
231853
232399
231247
231769
233360
233735
232695
234300
234988
234369
234859
235994
236623
236272
236817
237807
238346
238208
239071
239727
239925
240282
241130
241815
241955
242298
243479
244105
244058
244412
246113
246741
246394
246826
249157
249810
249114
249710
252457
253240
251271
254765
255710
254647
255075
258253
259361
258029
258661
261725
263081
261939
262860
265297
266811
265866
266839
268851
269892
269926
270838
271820
272945
273534
274438
276240
275808
276693
278103
279033
277741
278830
281492
281978
280477
281473
284491
284780
283881
284176
287519
288201
288003
288349
291204
291006
292446
293488
294339
294922
294840
299855
300391
298383
299576
305376
306896
304143
236402
233966
234291
233640
231320
231892
231537
229836
229136
230092
229870
227715
229137
229224
227614
227402
228957
229009
227012
228985
229374
227897
228006
229838
230165
228342
230434
231062
229821
230109
231860
232401
231244
231773
233366
233733
232691
234304
234989
234366
234861
235997
236621
236266
236818
237809
238342
238203
239071
239721
239918
240272
241121
241809
241948
242291
243479
244099
244051
244410
246115
246735
246388
246828
249160
249805
249113
249720
252461
253231
251269
254779
255718
254637
255074
258261
259369
258032
258665
261735
263088
261942
262864
265307
266814
265870
266842
268855
269901
269921
270836
271822
272931
273526
274442
276222
275791
276669
278104
279019
277723
278800
281473
281961
280460
281442
284470
284769
283861
284163
287493
288186
287991
288350
291183
291002
292447
293488
294340
294918
294848
299860
300399
298389
299583
305386
306914
304148
236376
233939
234253
233615
231300
231856
231513
229822
229112
230065
229851
227699
229105
229205
227602
227381
228935
228993
226998
228957
229358
227886
227986
229818
230151
228329
230408
231048
229812
230091
231842
232392
231233
231755
233355
233726
232678
234288
234983
234360
234848
235986
236617
236259
236805
237801
238340
238196
239058
239714
239915
240259
241105
241804
241943
242278
243464
244091
244043
244396
246097
246724
246377
246810
249141
249791
249106
249724
252435
253209
251250
254785
255707
254618
255054
258233
259359
258024
258647
261725
263078
261935
262844
265309
266803
265869
266835
268835
269902
269915
270823
271824
272919
273532
274449
276212
275789
276673
278112
279017
277724
278804
281476
281958
280462
281448
284472
284769
283854
284169
287494
288176
287987
288354
291175
290998
292432
293477
294335
294909
294841
299841
300391
298382
299558
305386
306912
304139
236340
233910
234210
233583
231276
231817
231482
229802
229087
230033
229824
227682
229070
229179
227586
227360
228908
228969
226983
228925
229335
227871
227967
229794
230132
228316
230380
231028
229798
230074
231823
232377
231220
231739
233342
233713
232667
234273
234973
234350
234838
235984
236607
236249
236798
237793
238329
238190
239058
239702
239903
240249
241096
241792
241931
242268
243451
244077
244029
244383
246079
246707
246365
246793
249119
249770
249099
249728
252403
253190
251228
254790
255693
254596
255036
258207
259346
258012
258633
261725
263066
261924
262843
265311
266792
265863
266836
268836
269904
269907
270816
271828
272907
273534
274452
276206
275787
276660
278118
279018
277725
278810
281479
281958
280465
281453
284467
284772
283848
284175
287485
288168
287985
288358
291161
290993
292422
293464
294325
294898
294836
299822
300380
298375
299538
305375
306909
304127
236302
233877
234155
233541
231250
231765
231440
229778
229054
229988
229789
227662
229023
229143
227566
227328
228868
228939
226966
228880
229303
227852
227937
229757
230105
228300
230339
230999
229783
230049
231793
232358
231206
231709
233322
233704
232650
234250
234961
234341
234818
235965
236603
236244
236779
237779
238326
238182
239040
239693
239902
240236
241076
241785
241926
242251
243430
244070
244021
244363
246055
246693
246354
246769
249091
249745
249091
249731
252364
253175
251202
254759
255670
254574
255015
258167
259324
257998
258614
261689
263046
261913
262821
265284
266775
265859
266836
268811
269901
269901
270816
271829
272896
273542
274457
276190
275787
276661
278126
279017
277732
278822
281485
281958
280470
281463
284471
284775
283843
284185
287491
288160
287979
288363
291153
290988
292405
293451
294319
294887
294827
299798
300367
298366
299507
305342
306899
304115
236241
233831
234098
233478
231207
231714
231382
229732
229016
229934
229730
227629
228974
229089
227529
227295
228817
228886
226937
228833
229252
227818
227906
229712
230057
228273
230298
230955
229750
230022
231759
232320
231181
231682
233292
233679
232629
234231
234939
234319
234801
235948
236587
236233
236770
237765
238312
238174
239034
239682
239889
240224
241063
241772
241914
242239
243411
244053
244006
244348
246029
246666
246335
246750
249056
249701
249076
249716
252321
253136
251173
254722
255636
254534
254985
258124
259288
257964
258587
261650
263013
261883
262791
265257
266747
265838
266814
268813
269892
269883
270816
271838
272900
273547
274469
276211
275805
276672
278141
279044
277762
278839
281495
281981
280500
281482
284480
284796
283861
284210
287496
288165
287985
288378
291145
290984
292395
293434
294297
294868
294812
299753
300334
298343
299462
305280
306865
304083
236204
233817
234069
233453
231200
231688
231370
229722
229013
229929
229716
227631
228964
229086
227530
227303
228820
228879
226946
228839
229253
227822
227915
229721
230056
228282
230307
230960
229756
230029
231773
232322
231183
231695
233301
233675
232633
234238
234939
234321
234806
235954
236584
236229
236772
237767
238304
238169
239034
239671
239877
240214
241051
241760
241904
242232
243409
244043
243997
244353
246032
246651
246334
246757
249062
249681
249084
249728
252340
253133
251181
254733
255645
254538
254991
258136
259301
257976
258598
261667
263026
261893
262801
265273
266755
265847
266820
268820
269905
269881
270808
271841
272881
273531
274471
276185
275776
276637
278118
279018
277730
278793
281462
281953
280470
281433
284446
284775
283828
284183
287455
288140
287965
288363
291112
290977
292382
293435
294300
294864
294830
299761
300347
298355
299477
305296
306894
304095
236156
233777
233999
233404
231176
231621
231319
229705
228971
229880
229683
227610
228910
229046
227515
227268
228778
228850
226930
228791
229219
227807
227885
229683
230031
228266
230263
230929
229745
230001
231744
232306
231170
231663
233281
233670
232613
234208
234929
234321
234779
235928
236586
236226
236745
237752
238309
238161
239006
239663
239882
240195
241021
241759
241907
242208
243379
244040
243994
244330
246005
246635
246327
246735
249034
249646
249078
249686
252347
253106
251180
254689
255618
254522
254970
258094
259276
257966
258578
261630
263005
261885
262782
265257
266737
265844
266804
268791
269904
269879
270793
271824
272868
273543
274477
276167
275777
276644
278129
279015
277737
278808
281467
281951
280475
281444
284450
284776
283819
284193
287457
288127
287957
288367
291106
290970
292361
293424
294301
294851
294821
299734
300329
298348
299447
305266
306884
304085
236071
233714
233920
233319
231115
231555
231236
229639
228916
229805
229613
227566
228845
228971
227462
227224
228707
228783
226894
228729
229150
227758
227846
229621
229969
228233
230210
230868
229699
229967
231699
232259
231136
231630
233240
233638
232586
234183
234897
234292
234762
235907
236563
236211
236738
237736
238290
238152
238997
239649
239866
240185
241009
241742
241893
242196
243358
244017
243975
244311
245973
246597
246306
246714
248994
249591