/*--------------------------------*- C++ -*----------------------------------*\
| =========                 |                                                 |
| \\      /  F ield         | OpenFOAM: The Open Source CFD Toolbox           |
|  \\    /   O peration     | Version:  v2012                                 |
|   \\  /    A nd           | Website:  www.openfoam.com                      |
|    \\/     M anipulation  |                                                 |
\*---------------------------------------------------------------------------*/
FoamFile
{
    version     2.0;
    format      ascii;
    class       volScalarField;
    location    "1e-06";
    object      p_rgh;
}
// * * * * * * * * * * * * * * * * * * * * * * * * * * * * * * * * * * * * * //

dimensions      [1 -1 -2 0 0 0 0];


internalField   nonuniform List<scalar> 
10123
(
236196
233967
234229
233356
231276
231796
231265
229626
229048
229899
229560
227641
228986
228914
227411
227275
228706
228695
226898
228805
229039
227669
227856
229562
229808
228153
230242
230668
229546
229908
231535
231989
230937
231542
232948
233294
232393
233923
234506
233966
234503
235568
236115
235831
236412
237317
237821
237752
238489
239295
239402
239859
240676
241253
241461
241899
242974
243535
243564
244036
245600
246188
245906
246489
248644
249268
248598
249381
251940
252674
250901
254171
255227
254138
254638
257699
258763
257519
258232
261195
262409
261364
262426
264691
266147
265193
266273
268245
269114
269257
270158
271035
272266
272747
273596
275466
274998
275987
277192
278138
276891
277983
280607
281067
279588
280594
283593
283819
283005
283216
286624
287319
287087
287367
290363
290076
291611
292670
293468
294017
293964
299018
299449
297464
298946
304616
305848
303244
236192
233958
234222
233353
231266
231791
231262
229623
229040
229892
229558
227632
228979
228909
227404
227270
228702
228693
226892
228796
229034
227662
227850
229556
229807
228148
230230
230662
229538
229899
231527
231982
230930
231533
232941
233289
232387
233915
234502
233961
234496
235562
236111
235827
236406
237311
237820
237749
238484
239285
239393
239848
240666
241244
241452
241888
242963
243528
243556
244025
245588
246181
245898
246476
248631
249260
248590
249367
251928
252668
250894
254156
255217
254130
254628
257687
258761
257519
258234
261195
262414
261370
262426
264692
266155
265201
266278
268250
269123
269265
270163
271045
272274
272757
273602
275467
274997
275987
277205
278150
276900
277989
280613
281074
279594
280595
283596
283823
283008
283218
286625
287320
287088
287367
290363
290076
291607
292667
293465
294016
293962
299014
299449
297464
298948
304618
305851
303244
236198
233955
234221
233361
231263
231789
231266
229622
229037
229890
229556
227628
228985
228910
227402
227265
228699
228689
226888
228797
229034
227659
227845
229551
229802
228145
230232
230663
229536
229893
231522
231982
230928
231527
232939
233289
232385
233910
234501
233960
234492
235559
236112
235826
236403
237309
237818
237748
238487
239289
239402
239852
240669
241251
241459
241890
242966
243535
243562
244026
245590
246186
245902
246477
248632
249262
248592
249360
251928
252668
250891
254158
255219
254131
254624
257677
258759
257516
258224
261181
262410
261363
262412
264677
266147
265191
266261
268233
269111
269254
270149
271023
272256
272739
273582
275466
274997
275983
277183
278137
276890
277969
280598
281068
279590
280583
283590
283822
283008
283218
286624
287320
287089
287367
290364
290076
291603
292664
293463
294016
293960
299011
299447
297462
298934
304616
305850
303239
236206
233950
234217
233368
231256
231787
231266
229620
229033
229889
229562
227622
228979
228912
227399
227262
228698
228690
226883
228791
229035
227656
227840
229549
229804
228141
230223
230664
229532
229888
231520
231982
230925
231520
232939
233289
232381
233906
234501
233958
234488
235555
236111
235824
236399
237306
237818
237746
238485
239284
239400
239847
240664
241247
241455
241884
242961
243533
243559
244020
245585
246185
245900
246469
248631
249262
248589
249351
251928
252668
250886
254159
255217
254129
254618
257678
258757
257515
258220
261182
262411
261360
262404
264678
266148
265192
266262
268234
269113
269254
270150
271027
272259
272742
273586
275467
274998
275980
277192
278145
276893
277971
280601
281070
279591
280583
283591
283823
283009
283218
286624
287320
287089
287365
290364
290076
291602
292661
293460
294016
293959
299011
299447
297462
298924
304604
305852
303241
236206
233944
234217
233377
231249
231788
231272
229618
229030
229890
229566
227615
228979
228915
227396
227259
228699
228692
226876
228792
229038
227653
227836
229550
229805
228136
230220
230668
229529
229883
231521
231983
230923
231514
232940
233290
232377
233907
234502
233956
234484
235555
236111
235823
236395
237306
237818
237743
238487
239280
239400
239843
240661
241247
241453
241879
242962
243533
243557
244013
245586
246186
245898
246462
248632
249263
248587
249342
251930
252670
250879
254160
255216
254128
254612
257679
258756
257513
258213
261179
262413
261356
262394
264672
266148
265191
266255
268227
269112
269252
270146
271020
272254
272738
273579
275465
274996
275973
277184
278142
276889
277959
280594
281068
279588
280573
283587
283821
283006
283215
286617
287319
287088
287362
290364
290074
291598
292658
293460
294016
293959
299011
299448
297462
298924
304604
305852
303240
236202
233933
234210
233375
231237
231781
231270
229612
229020
229885
229564
227602
228972
228913
227387
227249
228693
228687
226865
228783
229034
227643
227826
229542
229801
228126
230209
230666
229520
229872
231514
231979
230916
231503
232935
233287
232370
233901
234500
233951
234477
235550
236110
235819
236390
237302
237817
237739
238489
239273
239399
239838
240657
241246
241449
241872
242956
243532
243554
244004
245579
246184
245894
246450
248625
249260
248582
249328
251922
252667
250869
254150
255211
254122
254603
257666
258751
257508
258203
261166
262413
261350
262383
264662
266146
265188
266247
268219
269110
269250
270143
271017
272254
272739
273580
275467
274997
275974
277188
278147
276892
277963
280597
281073
279591
280576
283590
283825
283009
283217
286618
287320
287090
287363
290364
290074
291593
292653
293456
294014
293955
299005
299445
297458
298908
304590
305851
303235
236201
233923
234205
233382
231226
231778
231270
229608
229012
229883
229567
227592
228968
228913
227381
227242
228691
228687
226854
228778
229034
227636
227818
229538
229800
228118
230201
230667
229514
229864
231511
231978
230911
231495
232935
233286
232363
233901
234500
233947
234472
235546
236109
235816
236385
237299
237817
237735
238491
239268
239399
239833
240652
241246
241447
241866
242953
243532
243551
243996
245580
246184
245890
246440
248625
249260
248578
249316
251923
252667
250859
254151
255208
254119
254596
257666
258747
257504
258194
261167
262414
261344
262373
264662
266145
265186
266239
268219
269110
269247
270139
271017
272250
272736
273581
275467
274995
275966
277189
278148
276891
277963
280598
281074
279591
280577
283590
283826
283009
283218
286618
287320
287089
287364
290363
290074
291589
292649
293453
294013
293952
299005
299444
297457
298896
304586
305852
303232
236200
233912
234201
233384
231215
231775
231270
229604
229004
229881
229567
227580
228965
228915
227374
227234
228690
228687
226842
228773
229034
227630
227810
229535
229800
228109
230194
230669
229507
229855
231511
231978
230905
231486
232935
233286
232356
233901
234500
233943
234466
235543
236109
235813
236380
237298
237816
237731
238494
239261
239399
239827
240648
241247
241444
241859
242953
243532
243548
243987
245580
246184
245886
246430
248626
249259
248573
249304
251924
252667
250848
254152
255204
254115
254589
257666
258744
257500
258182
261168
262415
261339
262362
264652
266144
265184
266230
268212
269110
269244
270134
271014
272247
272736
273581
275466
274995
275962
277190
278150
276890
277964
280599
281075
279591
280577
283591
283828
283008
283219
286618
287319
287089
287365
290362
290074
291584
292645
293451
294012
293949
299003
299443
297455
298881
304576
305853
303229
236199
233900
234196
233383
231202
231771
231269
229598
228995
229879
229567
227566
228961
228916
227367
227226
228687
228687
226830
228768
229035
227622
227801
229531
229800
228097
230187
230670
229500
229846
231511
231977
230899
231477
232936
233285
232349
233902
234500
233939
234461
235541
236109
235810
236375
237297
237816
237726
238496
239255
239398
239822
240643
241247
241440
241851
242953
243533
243545
243977
245581
246184
245882
246419
248627
249258
248568
249291
251925
252667
250836
254154
255201
254112
254581
257666
258740
257496
258170
261170
262416
261333
262350
264653
266143
265181
266222
268212
269110
269240
270129
271014
272245
272732
273582
275467
274994
275962
277192
278152
276889
277964
280601
281076
279590
280579
283592
283829
283008
283219
286618
287319
287089
287366
290360
290074
291581
292640
293447
294011
293946
299001
299443
297453
298867
304566
305854
303225
236197
233887
234191
233387
231190
231767
231269
229594
228986
229878
229571
227553
228958
228918
227361
227217
228686
228688
226817
228764
229036
227616
227792
229532
229801
228087
230180
230673
229494
229838
231512
231978
230893
231468
232937
233285
232340
233902
234501
233935
234455
235541
236109
235806
236370
237297
237816
237721
238498
239249
239398
239815
240638
241248
241437
241842
242953
243533
243541
243967
245582
246184
245877
246407
248628
249258
248563
249279
251926
252669
250823
254155
255198
254109
254574
257667
258736
257493
258158
261170
262419
261330
262339
264653
266142
265179
266213
268204
269110
269237
270125
271007
272239
272728
273583
275463
274991
275952
277193
278150
276885
277952
280596
281075
279586
280566
283588
283828
283004
283217
286609
287316
287088
287366
290356
290073
291576
292636
293447
294010
293944
299002
299444
297452
298865
304567
305858
303223
236191
233869
234179
233384
231171
231755
231265
229583
228970
229868
229567
227535
228946
228911
227347
227201
228676
228681
226798
228751
229029
227601
227775
229521
229795
228071
230165
230667
229480
229823
231501
231972
230882
231453
232929
233281
232329
233893
234497
233927
234446
235534
236106
235800
236363
237292
237814
237716
238499
239242
239395
239808
240632
241248
241432
241832
242946
243532
243535
243954
245575
246180
245869
246392
248619
249253
248555
249260
251915
252665
250807
254141
255188
254101
254564
257649
258728
257482
258144
261154
262415
261320
262324
264639
266138
265174
266203
268193
269108
269232
270120
271003
272237
272728
273584
275465
274993
275954
277196
278156
276888
277953
280600
281081
279590
280568
283591
283835
283007
283220
286612
287318
287089
287368
290354
290073
291568
292630
293442
294007
293937
298993
299439
297446
298844
304548
305855
303214
236187
233853
234169
233381
231155
231747
231262
229576
228957
229861
229565
227518
228937
228909
227336
227188
228671
228678
226782
228742
229026
227590
227762
229514
229792
228057
230154
230666
229470
229810
231494
231970
230873
231441
232925
233279
232319
233887
234496
233921
234438
235529
236105
235796
236356
237288
237812
237710
238501
239235
239393
239801
240627
241248
241427
241822
242946
243532
243530
243942
245575
246178
245863
246378
248619
249250
248548
249245
251916
252664
250791
254142
255182
254095
254557
257635
258724
257471
258131
261154
262414
261313
262311
264639
266135
265170
266193
268193
269108
269227
270116
271004
272232
272724
273585
275464
274991
275944
277200
278159
276887
277954
280602
281083
279590
280568
283592
283837
283006
283221
286612
287317
287089
287369
290350
290073
291564
292625
293437
294005
293932
298989
299438
297442
298826
304538
305857
303208
236183
233837
234160
233379
231140
231738
231260
229569
228944
229856
229564
227502
228930
228907
227327
227175
228666
228676
226766
228734
229024
227581
227749
229508
229790
228043
230144
230665
229461
229798
231488
231968
230865
231429
232924
233277
232308
233882
234495
233916
234431
235524
236105
235791
236350
237287
237811
237704
238502
239228
239391
239793
240621
241249
241422
241812
242946
243532
243525
243931
245576
246176
245857
246365
248620
249247
248542
249229
251917
252663
250775
254145
255175
254090
254550
257619
258722
257460
258118
261151
262413
261307
262298
264627
266133
265166
266183
268183
269108
269223
270111
271004
272226
272724
273587
275462
274990
275936
277201
278160
276885
277955
280604
281085
279589
280570
283593
283840
283005
283223
286612
287315
287088
287371
290346
290072
291557
292619
293434
294003
293927
298984
299436
297439
298808
304528
305858
303202
236178
233820
234149
233375
231123
231728
231256
229562
228930
229849
229562
227485
228920
228904
227316
227161
228659
228672
226749
228724
229021
227570
227735
229501
229786
228029
230133
230663
229451
229786
231480
231965
230855
231416
232921
233275
232297
233876
234494
233909
234423
235518
236103
235785
236343
237284
237810
237699
238504
239222
239388
239785
240615
241249
241417
241802
242946
243531
243519
243919
245577
246174
245850
246351
248621
249244
248535
249214
251918
252661
250758
254147
255167
254084
254545
257602
258720
257447
258105
261151
262412
261299
262284
264627
266130
265162
266173
268179
269108
269217
270106
271005
272220
272721
273589
275462
274989
275928
277206
278163
276884
277957
280606
281087
279589
280572
283595
283842
283004
283224
286613
287314
287088
287372
290341
290072
291553
292613
293429
294000
293922
298979
299435
297435
298789
304516
305860
303196
236172
233802
234136
233371
231107
231716
231253
229554
228916
229841
229559
227468
228909
228901
227305
227147
228653
228669
226732
228713
229017
227559
227720
229493
229783
228014
230121
230660
229441
229772
231472
231963
230846
231403
232917
233272
232286
233869
234493
233903
234414
235512
236102
235780
236336
237282
237808
237693
238505
239215
239385
239777
240609
241249
241412
241792
242943
243530
243514
243907
245577
246171
245843
246336
248621
249240
248528
249197
251919
252660
250741
254148
255158
254078
254541
257584
258716
257435
258091
261135
262411
261293
262270
264615
266127
265158
266162
268168
269108
269212
270101
271005
272214
272722
273591
275457
274988
275919
277210
278164
276883
277959
280609
281088
279588
280574
283596
283845
283002
283226
286613
287312
287087
287374
290336
290071
291546
292606
293425
293997
293917
298974
299433
297431
298769
304504
305861
303189
236164
233784
234122
233366
231090
231702
231248
229545
228900
229832
229556
227450
228897
228896
227294
227131
228644
228663
226714
228701
229012
227547
227704
229484
229778
227998
230107
230657
229430
229758
231463
231959
230836
231390
232912
233269
232275
233861
234491
233896
234405
235506
236100
235774
236328
237281
237806
237687
238508
239208
239381
239769
240602
241248
241406
241781
242937
243528
243507
243895
245577
246167
245835
246322
248618
249235
248520
249180
251919
252657
250723
254150
255148
254071
254534
257572
258712
257423
258077
261133
262408
261285
262255
264615
266123
265153
266151
268168
269109
269206
270095
271007
272207
272719
273593
275462
274987
275909
277213
278166
276881
277961
280611
281090
279587
280577
283597
283848
283000
283227
286613
287310
287086
287376
290330
290070
291545
292599
293420
293994
293911
298968
299431
297426
298749
304493
305863
303182
236154
233763
234104
233359
231072
231685
231241
229535
228882
229818
229549
227431
228881
228887
227280
227113
228632
228655
226695
228685
229004
227534
227686
229472
229771
227982
230090
230650
229418
229742
231451
231953
230825
231373
232904
233264
232262
233850
234488
233889
234395
235499
236098
235768
236320
237276
237804
237680
238508
239201
239377
239760
240595
241246
241400
241770
242929
243525
243500
243881
245568
246163
245826
246305
248607
249229
248512
249161
251906
252652
250704
254140
255134
254063
254522
257572
258706
257410
258062
261113
262404
261276
262239
264600
266117
265148
266140
268155
269108
269201
270089
271007
272200
272720
273596
275447
274986
275901
277218
278169
276881
277962
280614
281093
279588
280579
283599
283852
282998
283230
286614
287308
287085
287378
290325
290069
291537
292592
293415
293990
293904
298959
299427
297420
298728
304477
305863
303173
236143
233742
234085
233350
231052
231667
231232
229522
228863
229804
229539
227412
228864
228877
227265
227094
228619
228644
226675
228668
228993
227519
227667
229458
229760
227965
230073
230641
229404
229725
231438
231945
230813
231357
232896
233257
232249
233840
234483
233880
234385
235492
236094
235761
236312
237270
237800
237674
238509
239194
239372
239752
240589
241243
241394
241760
242922
243521
243492
243869
245557
246156
245817
246289
248594
249220
248503
249143
251892
252644
250684
254125
255117
254052
254503
257575
258697
257394
258045
261092
262397
261264
262222
264583
266110
265140
266127
268143
269107
269193
270084
271008
272201
272722
273600
275457
274991
275902
277225
278177
276886
277968
280620
281101
279594
280584
283602
283861
283000
283237
286616
287309
287087
287384
290320
290068
291530
292583
293407
293984
293895
298944
299419
297411
298701
304449
305857
303159
236137
233727
234076
233346
231041
231658
231229
229515
228853
229802
229539
227400
228858
228879
227262
227086
228619
228645
226664
228666
228996
227515
227659
229462
229762
227955
230075
230644
229400
229717
231441
231947
230807
231355
232899
233258
232241
233842
234485
233876
234380
235493
236094
235756
236312
237272
237798
237669
238510
239188
239368
239744
240589
241242
241388
241751
242922
243520
243487
243860
245559
246155
245811
246280
248596
249220
248499
249144
251894
252646
250672
254128
255110
254052
254490
257581
258701
257390
258038
261096
262401
261263
262224
264587
266111
265140
266128
268144
269111
269188
270084
271011
272191
272716
273601
275442
274982
275885
277229
278171
276876
277947
280609
281093
279584
280564
283591
283856
282990
283232
286600
287301
287082
287386
290308
290067
291530
292581
293407
293982
293896
298947
299424
297413
298703
304453
305869
303159
236125
233707
234057
233338
231024
231639
231222
229505
228836
229789
229533
227383
228842
228872
227251
227069
228609
228639
226647
228651
228989
227504
227642
229451
229757
227940
230059
230638
229391
229702
231431
231943
230797
231340
232894
233254
232229
233832
234483
233870
234370
235486
236092
235750
236303
237272
237796
237663
238510
239181
239364
239735
240580
241238
241382
241740
242914
243517
243479
243847
245549
246150
245802
246264
248586
249214
248492
249127
251885
252641
250655
254130
255093
254047
254470
257588
258697
257380
258023
261080
262397
261256
262207
264588
266105
265137
266116
268130
269113
269183
270076
271011
272182
272717
273605
275438
274981
275880
277232
278171
276876
277951
280611
281093
279584
280567
283592
283859
282987
283235
286601
287296
287080
287389
290301
290066
291521
292572
293403
293977
293889
298937
299421
297407
298681
304448
305869
303151
236111
233685
234033
233326
231005
231616
231210
229492
228816
229772
229521
227365
228821
228860
227237
227050
228594
228627
226630
228631
228978
227491
227623
229437
229746
227925
230040
230629
229379
229686
231418
231935
230785
231324
232886
233247
232217
233821
234478
233862
234359
235479
236088
235743
236294
237267
237791
237656
238511
239173
239357
239726
240572
241233
241374
241729
242904
243511
243471
243834
245537
246142
245792
246248
248573
249204
248484
249109
251870
252631
250639
254131
255073
254039
254450
257593
258690
257368
258007
261078
262391
261247
262191
264589
266098
265131
266116
268127
269114
269175
270069
271014
272173
272719
273609
275435
274979
275869
277238
278173
276876
277954
280614
281095
279585
280571
283593
283862
282983
283238
286601
287292
287078
287392
290293
290064
291521
292563
293396
293971
293883
298925
299417
297401
298658
304436
305870
303141
236095
233661
234007
233314
230987
231591
231197
229480
228795
229752
229509
227346
228798
228847
227224
227029
228577
228615
226612
228609
228966
227477
227603
229421
229736
227909
230018
230618
229367
229668
231403
231928
230773
231307
232877
233241
232204
233808
234474
233854
234348
235470
236085
235735
236284
237261
237787
237650
238506
239165
239352
239716
240562
241228
241367
241718
242894
243506
243462
243821
245524
246135
245782
246230
248559
249195
248476
249091
251853
252621
250624
254122
255053
254029
254432
257595
258684
257357
257991
261054
262383
261238
262173
264589
266091
265127
266104
268112
269116
269169
270062
271016
272164
272721
273613
275429
274978
275870
277242
278174
276876
277955
280617
281096
279586
280574
283595
283865
282979
283242
286602
287288
287076
287395
290284
290061
291510
292554
293390
293965
293875
298912
299412
297395
298634
304419
305870
303131
236078
233638
233979
233299
230967
231564
231181
229466
228774
229732
229495
227329
228774
228833
227210
227009
228560
228602
226595
228587
228953
227464
227583
229405
229724
227894
229997
230607
229355
229651
231389
231920
230761
231290
232867
233233
232192
233796
234468
233846
234337
235463
236080
235728
236276
237256
237782
237643
238506
239156
239344
239706
240553
241221
241359
241707
242884
243499
243452
243808
245510
246125
245772
246214
248544
249184
248468
249075
251836
252608
250612
254122
255040
254011
254413
257598
258677
257345
257975
261054
262376
261228
262156
264590
266083
265122
266104
268112
269118
269161
270056
271019
272153
272722
273616
275423
274975
275858
277250
278175
276876
277959
280619
281096
279586
280578
283596
283869
282975
283246
286599
287283
287074
287398
290274
290059
291509
292544
293383
293957
293869
298898
299407
297388
298612
304409
305870
303121
236056
233611
233942
233278
230946
231529
231157
229449
228747
229702
229474
227309
228741
228811
227193
226982
228533
228583
226576
228555
228932
227447
227558
229380
229707
227876
229968
230589
229341
229629
231368
231907
230748
231269
232853
233223
232177
233779
234460
233837
234322
235451
236075
235720
236262
237246
237779
237636
238495
239148
239340
239695
240540
241216
241353
241694
242871
243492
243442
243792
245493
246115
245760
246193
248524
249170
248459
249056
251812
252589
250600
254098
255030
253983
254393
257572
258664
257331
257957
261025
262364
261217
262136
264568
266071
265117
266089
268093
269117
269154
270055
271019
272143
272726
273621
275412
274975
275859
277257
278177
276878
277967
280624
281098
279588
280584
283599
283873
282972
283254
286602
287278
287071
287402
290267
290056
291497
292533
293376
293949
293860
298882
299399
297380
298585
304384
305867
303111
236024
233581
233904
233246
230919
231493
231126
229424
228720
229669
229444
227284
228706
228782
227170
226956
228503
228553
226553
228522
228904
227424
227532
229352
229680
227855
229937
230564
229320
229607
231344
231886
230730
231248
232835
233206
232162
233763
234447
233824
234309
235440
236065
235709
236251
237236
237771
237629
238487
239139
239332
239685
240529
241209
241344
241683
242859
243481
243429
243779
245475
246098
245746
246174
248500
249149
248447
249039
251781
252559
250586
254074
255014
253947
254370
257542
258646
257309
257935
260994
262345
261197
262113
264545
266054
265104
266072
268078
269113
269142
270049
271025
272145
272729
273627
275423
274985
275864
277268
278192
276894
277977
280632
281111
279604
280594
283605
283887
282981
283269
286604
287279
287074
287413
290260
290053
291486
292520
293362
293937
293847
298854
299381
297364
298549
304339
305850
303088
236004
233565
233887
233231
230908
231477
231118
229414
228710
229663
229437
227279
228697
228780
227166
226951
228503
228550
226550
228519
228905
227423
227529
229357
229680
227853
229942
230566
229320
229605
231351
231888
230727
231253
232841
233205
232158
233767
234448
233821
234311
235443
236063
235704
236252
237238
237767
237624
238487
239132
239325
239674
240519
241203
241337
241676
242860
243475
243423
243777
245477
246092
245740
246176
248504
249143
248447
249049
251785
252550
250584
254088
255022
253936
254368
257550
258654
257312
257939
261004
262352
261200
262118
264555
266057
265108
266075
268082
269122
269137
270046
271027
272131
272720
273631
275405
274968
275840
277269
278178
276876
277946
280613
281094
279587
280562
283584
283875
282961
283256
286578
287264
287061
287413
290239
290049
291487
292520
293364
293934
293855
298858
299389
297370
298556
304350
305869
303093
235978
233538
233848
233207
230888
231441
231094
229400
228686
229635
229418
227263
228665
228761
227155
226930
228480
228534
226535
228491
228888
227413
227509
229336
229666
227840
229915
230551
229311
229587
231333
231879
230716
231235
232830
233197
232145
233751
234442
233815
234298
235432
236059
235697
236239
237230
237764
237617
238474
239125
239322
239662
240504
241198
241332
241663
242844
243467
243414
243762
245459
246081
245730
246157
248484
249129
248440
249052
251758
252528
250565
254094
255011
253917
254349
257522
258643
257303
257922
260994
262342
261194
262097
264557
266046
265106
266067
268062
269124
269132
270034
271030
272119
272726
273638
275394
274966
275844
277277
278176
276877
277950
280616
281091
279589
280568
283585
283876
282953
283261
286580
287254
287057
287417
290230
290045
291472
292509
293359
293924
293848
298840
299381
297364
298531
304349
305866
303084
235942
233509
233805
233175
230865
231402
231063
229379
228662
229603
229391
227245
228630
228735
227138
226909
228453
228511
226521
228459
228866
227397
227489
229313
229646
227827
229887
230531
229298
229569
231315
231864
230704
231219
232818
233184
232134
233736
234432
233804
234288
235430
236049
235687
236232
237222
237754
237610
238474
239114
239310
239652
240494
241186
241320
241653
242832
243453
243401
243749
245441
246065
245718
246140
248462
249108
248432
249057
251727
252509
250543
254099
254997
253895
254330
257496
258630
257291
257907
260994
262330
261183
262097
264560
266035
265101
266068
268063
269126
269123
270027
271034
272107
272728
273641
275388
274963
275831
277283
278177
276878
277956
280619
281091
279592
280573
283580
283879
282947
283267
286571
287246
287055
287421
290216
290041
291462
292496
293349
293913
293844
298820
299370
297356
298510
304338
305863
303072
235904
233475
233750
233133
230839
231350
231021
229355
228628
229558
229356
227226
228583
228700
227119
226877
228413
228480
226504
228414
228833
227379
227459
229276
229620
227811
229846
230503
229282
229544
231285
231846
230689
231188
232798
233175
232117
233713
234420
233795
234268
235411
236045
235682
236213
237208
237751
237603
238456
239105
239309
239638
240474
241179
241316
241636
242810
243445
243393
243730
245417
246051
245706
246117
248434
249083
248425
249060
251687
252494
250516
254068
254974
253873
254309
257457
258608
257277
257888
260958
262310
261171
262074
264532
266017
265096
266068
268038
269123
269117
270027
271034
272095
272736
273646
275373
274964
275832
277291
278176
276884
277969
280625
281091
279597
280583
283584
283882
282943
283278
286576
287238
287050
287426
290209
290036
291445
292483
293342
293902
293834
298797
299357
297347
298479
304305
305854
303060
235843
233430
233693
233070
230796
231299
230963
229310
228590
229505
229297
227192
228534
228645
227081
226844
228362
228427
226475
228367
228782
227344
227428
229231
229572
227784
229805
230458
229250
229518
231251
231808
230664
231162
232768
233150
232097
233694
234397
233774
234251
235394
236029
235671
236203
237194
237736
237594
238450
239093
239296
239627
240461
241166
241303
241624
242791
243429
243377
243714
245391
246023
245688
246097
248399
249039
248409
249045
251644
252455
250487
254031
254940
253833
254279
257413
258572
257243
257861
260919
262276
261141
262045
264505
265990
265076
266046
268040
269113
269099
270027
271043
272100
272741
273658
275394
274981
275843
277305
278202
276914
277985
280635
281115
279627
280602
283594
283903
282961
283302
286581
287243
287056
287441
290200
290032
291435
292466
293320
293883
293819
298752
299324
297324
298435
304243
305819
303028
235806
233416
233664
233045
230788
231273
230951
229300
228587
229499
229283
227194
228524
228642
227082
226852
228365
228421
226484
228372
228784
227349
227437
229239
229571
227793
229814
230463
229255
229524
231264
231810
230666
231174
232776
233146
232100
233701
234397
233776
234256
235400
236026
235666
236206
237196
237729
237590
238450
239083
239284
239617
240450
241154
241293
241617
242789
243419
243368
243720
245394
246008
245687
246105
248405
249019
248417
249056
251664
252452
250495
254042
254949
253837
254285
257425
258585
257255
257872
260935
262290
261151
262054
264521
265998
265084
266053
268047
269126
269097
270019
271046
272081
272725
273659
275367
274953
275808
277283
278177
276883
277939
280602
281087
279597
280554
283559
283882
282927
283276
286540
287218
287035
287426
290167
290025
291422
292467
293324
293879
293837
298759
299336
297337
298450
304260
305848
303040
235758
233375
233594
232996
230764
231206
230900
229283
228545
229450
229250
227174
228470
228602
227068
226817
228323
228392
226467
228325
228749
227334
227407
229202
229546
227777
229770
230432
229244
229496
231235
231794
230653
231143
232756
233141
232080
233670
234387
233775
234230
235374
236028
235664
236178
237181
237734
237582
238422
239075
239289
239598
240420
241153
241297
241592
242759
243416
243365
243696
245366
245992
245680
246083
248377
248984
248412
249015
251670
252425
250494
253998
254922
253821
254264
257383
258560
257245
257852
260899
262269
261143
262035
264505
265980
265082
266036
268018
269125
269095
270003
271030
272068
272737
273665
275349
274954
275814
277294
278173
276890
277955
280607
281085
279602
280565
283563
283882
282918
283285
286542
287205
287028
287430
290162
290017
291401
292456
293324
293866
293828
298732
299319
297329
298419
304229
305838
303030
235673
233312
233515
232911
230704
231139
230818
229216
228491
229376
229180
227129
228404
228527
227014
226773
228252
228324
226431
228263
228680
227284
227368
229140
229484
227744
229717
230371
229198
229462
231191
231747
230620
231110
232715
233109
232053
233646
234355
233747
234213
235353
236005
235649
236171
237165
237715
237573
238414
239061
239274
239587
240407
241135
241282
241581
242738
243393
243346
243678
245335
245954
245658
246062
248337
248930