/*--------------------------------*- C++ -*----------------------------------*\
| =========                 |                                                 |
| \\      /  F ield         | OpenFOAM: The Open Source CFD Toolbox           |
|  \\    /   O peration     | Version:  v2012                                 |
|   \\  /    A nd           | Website:  www.openfoam.com                      |
|    \\/     M anipulation  |                                                 |
\*---------------------------------------------------------------------------*/
FoamFile
{
    version     2.0;
    format      ascii;
    class       surfaceScalarField;
    location    "1e-06";
    object      phi;
}
// * * * * * * * * * * * * * * * * * * * * * * * * * * * * * * * * * * * * * //

dimensions      [0 3 -1 0 0 0 0];
oriented        oriented;


internalField   nonuniform List<scalar> 
20033
(
-8.63612e-07
-1.11001e-08
-8.5286e-07
-1.07522e-08
-8.39452e-07
-1.34079e-08
-8.28931e-07
-1.05221e-08
-8.20469e-07
-8.46176e-09
-8.03052e-07
-1.74173e-08
-7.90073e-07
-1.29788e-08
-7.83259e-07
-6.81466e-09
-7.68935e-07
-1.43244e-08
-7.52146e-07
-1.67886e-08
-7.26071e-07
-2.60757e-08
-7.1455e-07
-1.15217e-08
-7.10886e-07
-3.66399e-09
-6.97697e-07
-1.31891e-08
-6.88746e-07
-8.9515e-09
-6.73204e-07
-1.55423e-08
-6.55961e-07
-1.72434e-08
-6.30314e-07
-2.56473e-08
-6.18043e-07
-1.22711e-08
-6.12235e-07
-5.80855e-09
-5.98185e-07
-1.40502e-08
-5.88257e-07
-9.92763e-09
-5.73206e-07
-1.50512e-08
-5.56443e-07
-1.67634e-08
-5.32803e-07
-2.36398e-08
-5.21652e-07
-1.11507e-08
-5.14299e-07
-7.3528e-09
-5.00603e-07
-1.36963e-08
-4.91357e-07
-9.24636e-09
-4.78346e-07
-1.30103e-08
-4.63731e-07
-1.46153e-08
-4.51814e-07
-1.19162e-08
-4.42501e-07
-9.31283e-09
-4.30438e-07
-1.2063e-08
-4.19219e-07
-1.12197e-08
-4.10231e-07
-8.98755e-09
-4.01578e-07
-8.65273e-09
-3.90903e-07
-1.06747e-08
-3.82129e-07
-8.77451e-09
-3.76493e-07
-5.63534e-09
-3.68642e-07
-7.85145e-09
-3.60237e-07
-8.40481e-09
-3.53679e-07
-6.5575e-09
-3.47793e-07
-5.88631e-09
-3.39509e-07
-8.28372e-09
-3.32711e-07
-6.7981e-09
-3.21946e-07
-1.07651e-08
-3.18411e-07
-3.53511e-09
-3.21129e-07
2.71798e-09
-3.15195e-07
-5.93337e-09
-3.12998e-07
-2.19757e-09
-3.0862e-07
-4.37787e-09
-3.02637e-07
-5.98262e-09
-2.9931e-07
-3.32685e-09
-2.97038e-07
-2.27192e-09
-2.91843e-07
-5.1953e-09
-2.85164e-07
-6.67831e-09
-2.80803e-07
-4.36175e-09
-2.76674e-07
-4.12869e-09
-2.69549e-07
-7.12505e-09
-2.60689e-07
-8.85955e-09
-2.53425e-07
-7.26399e-09
-2.46611e-07
-6.81394e-09
-2.37455e-07
-9.1561e-09
-2.25794e-07
-1.16612e-08
-2.1474e-07
-1.10547e-08
-2.05686e-07
-9.05433e-09
-1.95341e-07
-1.0345e-08
-1.81531e-07
-1.38092e-08
-1.66514e-07
-1.5017e-08
-1.56318e-07
-1.01964e-08
-1.4346e-07
-1.2858e-08
-1.28277e-07
-1.51832e-08
-1.17154e-07
-1.11227e-08
-1.07485e-07
-9.66865e-09
-9.42703e-08
-1.32143e-08
-7.90307e-08
-1.52394e-08
-6.81733e-08
-1.08573e-08
-5.89515e-08
-9.22174e-09
-4.60815e-08
-1.287e-08
-3.13485e-08
-1.47329e-08
-2.08455e-08
-1.05031e-08
-1.16776e-08
-9.16794e-09
-2.35836e-09
-9.31934e-09
9.02913e-09
-1.13875e-08
1.84812e-08
-9.45194e-09
2.55472e-08
-7.06597e-09
3.25071e-08
-6.95986e-09
4.14825e-08
-8.97511e-09
4.16398e-08
-1.57514e-10
4.7018e-08
-5.37764e-09
5.8038e-08
-1.10207e-08
6.19416e-08
-3.90307e-09
6.82177e-08
-6.27658e-09
7.18553e-08
-3.63737e-09
7.38392e-08
-1.98394e-09
7.40567e-08
-2.17374e-10
7.86257e-08
-4.56851e-09
7.84777e-08
1.47757e-10
7.39195e-08
4.5587e-09
6.69951e-08
6.92387e-09
6.29005e-08
4.0948e-09
6.03204e-08
2.57963e-09
5.41648e-08
6.15559e-09
4.48371e-08
9.32755e-09
3.76243e-08
7.21262e-09
3.34338e-08
4.1908e-09
2.66083e-08
6.82511e-09
1.84472e-08
8.16136e-09
1.13697e-08
7.07704e-09
7.23837e-09
4.13118e-09
2.2583e-09
4.97962e-09
-1.62028e-09
3.8784e-09
-4.82038e-09
3.19983e-09
-6.13285e-09
1.31237e-09
-5.66106e-09
-4.71794e-10
-1.45013e-09
-4.21092e-09
2.86593e-09
-4.31611e-09
8.61425e-09
-5.7485e-09
1.59342e-08
-7.32022e-09
2.39178e-08
-7.98431e-09
3.78054e-08
-1.38876e-08
5.20243e-08
-1.42203e-08
6.18965e-08
-9.87173e-09
7.23856e-08
-1.04906e-08
8.98556e-08
-1.74691e-08
1.08637e-07
-1.8783e-08
-1.31484e-08
-9.56129e-07
-2.8246e-08
-9.44903e-07
-2.19779e-08
-9.33491e-07
-2.48205e-08
-9.16296e-07
-2.77175e-08
-9.03431e-07
-2.13264e-08
-8.9273e-07
-2.81192e-08
-8.77253e-07
-2.84557e-08
-8.62029e-07
-2.20394e-08
-8.50006e-07
-2.6348e-08
-8.3545e-07
-3.13456e-08
-8.23847e-07
-3.76783e-08
-8.09936e-07
-2.54342e-08
-7.89328e-07
-2.42725e-08
-7.72008e-07
-3.05094e-08
-7.5665e-07
-2.431e-08
-7.4394e-07
-2.8253e-08
-7.27362e-07
-3.38226e-08
-7.13672e-07
-3.93375e-08
-6.99418e-07
-2.65253e-08
-6.78648e-07
-2.65795e-08
-6.60583e-07
-3.21151e-08
-6.45021e-07
-2.54895e-08
-6.3206e-07
-2.80125e-08
-6.15828e-07
-3.29957e-08
-6.0196e-07
-3.75075e-08
-5.88317e-07
-2.47934e-08
-5.68655e-07
-2.70147e-08
-5.52189e-07
-3.0163e-08
-5.37427e-07
-2.40075e-08
-5.25176e-07
-2.52611e-08
-5.11634e-07
-2.81571e-08
-4.95239e-07
-2.8311e-08
-4.83246e-07
-2.13061e-08
-4.73919e-07
-2.13899e-08
-4.61808e-07
-2.33302e-08
-4.48428e-07
-2.23676e-08
-4.39264e-07
-1.78165e-08
-4.30496e-07
-1.94426e-08
-4.19403e-07
-1.98678e-08
-4.10509e-07
-1.45289e-08
-4.03903e-07
-1.44577e-08
-3.96362e-07
-1.59458e-08
-3.86608e-07
-1.63106e-08
-3.7937e-07
-1.31249e-08
-3.74076e-07
-1.35775e-08
-3.67458e-07
-1.34157e-08
-3.63163e-07
-1.50601e-08
-3.59248e-07
-7.44955e-09
-3.54211e-07
-2.31948e-09
-3.47111e-07
-1.3033e-08
-3.41624e-07
-7.684e-09
-3.37855e-07
-8.14675e-09
-3.3372e-07
-1.01175e-08
-3.28481e-07
-8.56619e-09
-3.23766e-07
-6.98603e-09
-3.19655e-07
-9.30637e-09
-3.1388e-07
-1.24538e-08
-3.06895e-07
-1.13467e-08
-3.00721e-07
-1.03025e-08
-2.94646e-07
-1.32002e-08
-2.85829e-07
-1.76768e-08
-2.75604e-07
-1.74887e-08
-2.66824e-07
-1.55942e-08
-2.58113e-07
-1.7867e-08
-2.45757e-07
-2.40182e-08
-2.32252e-07
-2.45596e-08
-2.21077e-07
-2.02293e-08
-2.09647e-07
-2.1775e-08
-1.94611e-07
-2.88445e-08
-1.79968e-07
-2.96604e-08
-1.67237e-07
-2.29272e-08
-1.50751e-07
-2.93438e-08
-1.34098e-07
-3.18358e-08
-1.20326e-07
-2.48943e-08
-1.08372e-07
-2.16222e-08
-9.32146e-08
-2.83711e-08
-7.63755e-08
-3.20782e-08
-6.35264e-08
-2.37063e-08
-5.12973e-08
-2.14507e-08
-3.52683e-08
-2.88991e-08
-1.94582e-08
-3.0543e-08
-7.96143e-09
-2.2e-08
3.78266e-09
-2.09121e-08
1.69175e-08
-2.24541e-08
2.98547e-08
-2.43248e-08
3.89688e-08
-1.85658e-08
4.79798e-08
-1.60767e-08
5.83198e-08
-1.73e-08
6.80785e-08
-1.8733e-08
7.77922e-08
-9.87207e-09
8.41131e-08
-1.16974e-08
8.72788e-08
-1.41877e-08
9.12881e-08
-7.9116e-09
9.3445e-08
-8.434e-09
9.66653e-08
-6.85732e-09
1.0167e-07
-6.98836e-09
1.01752e-07
-2.99594e-10
1.01629e-07
-4.44457e-09
9.91819e-08
2.59451e-09
9.62186e-08
7.52261e-09
8.90649e-08
1.40767e-08
8.10662e-08
1.20936e-08
7.5328e-08
8.31723e-09
6.88411e-08
1.26423e-08
5.9075e-08
1.90938e-08
4.92804e-08
1.70066e-08
4.21937e-08
1.1278e-08
3.39527e-08
1.50654e-08
2.50591e-08
1.7055e-08
1.67256e-08
1.54096e-08
1.0828e-08
1.00284e-08
4.35653e-09
1.14504e-08
-5.05813e-10
8.74046e-09
-3.78546e-09
6.47919e-09
-5.68036e-09
3.20717e-09
-5.14538e-09
-1.00682e-09
-7.55e-10
-8.60148e-09
4.29015e-09
-9.36154e-09
1.13196e-08
-1.27788e-08
2.08095e-08
-1.68104e-08
3.20399e-08
-1.92169e-08
4.79515e-08
-2.97986e-08
6.31075e-08
-2.93792e-08
7.59348e-08
-2.26975e-08
9.21845e-08
-2.67434e-08
1.1354e-07
-3.88225e-08
1.33018e-07
-3.82627e-08
-2.76914e-08
-1.05793e-06
-4.71234e-08
-1.04429e-06
-3.56162e-08
-1.03194e-06
-3.71717e-08
-1.0139e-06
-4.57567e-08
-9.98905e-07
-3.63239e-08
-9.85823e-07
-4.12015e-08
-9.6912e-07
-4.51589e-08
-9.52085e-07
-3.90748e-08
-9.37396e-07
-4.10382e-08
-9.21282e-07
-4.74601e-08
-9.00038e-07
-5.8923e-08
-8.84017e-07
-4.14556e-08
-8.69977e-07
-3.8313e-08
-8.51295e-07
-4.91929e-08
-8.3388e-07
-4.17249e-08
-8.18323e-07
-4.38109e-08
-8.00071e-07
-5.20751e-08
-7.78586e-07
-6.08231e-08
-7.62059e-07
-4.30528e-08
-7.46191e-07
-4.24481e-08
-7.26747e-07
-5.15585e-08
-7.09229e-07
-4.30079e-08
-6.93558e-07
-4.36838e-08
-6.75652e-07
-5.09012e-08
-6.54737e-07
-5.84226e-08
-6.38877e-07
-4.06539e-08
-6.23547e-07
-4.23444e-08
-6.05815e-07
-4.78944e-08
-5.89336e-07
-4.0487e-08
-5.74893e-07
-3.97033e-08
-5.60009e-07
-4.30411e-08
-5.4288e-07
-4.54399e-08
-5.29158e-07
-3.50276e-08
-5.1767e-07
-3.28775e-08
-5.04617e-07
-3.63831e-08
-4.90474e-07
-3.65109e-08
-4.79783e-07
-2.85068e-08
-4.69959e-07
-2.92671e-08
-4.58241e-07
-3.15859e-08
-4.48413e-07
-2.43566e-08
-4.40511e-07
-2.23593e-08
-4.32253e-07
-2.42034e-08
-4.22368e-07
-2.61962e-08
-4.14699e-07
-2.07937e-08
-4.08755e-07
-1.95211e-08
-4.01928e-07
-2.02426e-08
-3.9415e-07
-2.28375e-08
-3.89525e-07
-1.20748e-08
-3.87099e-07
-4.74499e-09
-3.79898e-07
-2.02342e-08
-3.74016e-07
-1.35656e-08
-3.69442e-07
-1.27201e-08
-3.64756e-07
-1.48037e-08
-3.59302e-07
-1.402e-08
-3.53969e-07
-1.23186e-08
-3.48743e-07
-1.45325e-08
-3.42268e-07
-1.89294e-08
-3.34908e-07
-1.87066e-08
-3.27648e-07
-1.75625e-08
-3.19969e-07
-2.08792e-08
-3.10214e-07
-2.74312e-08
-2.9941e-07
-2.82929e-08
-2.89003e-07
-2.60018e-08
-2.78063e-07
-2.88069e-08
-2.64424e-07
-3.76577e-08
-2.50037e-07
-3.89466e-08
-2.36657e-07
-3.36098e-08
-2.2251e-07
-3.59219e-08
-2.05939e-07
-4.54148e-08
-1.8894e-07
-4.66591e-08
-1.73418e-07
-3.84496e-08
-1.55491e-07
-4.72701e-08
-1.36919e-07
-5.04084e-08
-1.20874e-07
-4.09386e-08
-1.06075e-07
-3.64201e-08
-8.81126e-08
-4.63335e-08
-6.90387e-08
-5.11518e-08
-5.34249e-08
-3.932e-08
-3.79024e-08
-3.6973e-08
-1.94104e-08
-4.73913e-08
-2.28745e-09
-4.76659e-08
1.245e-08
-3.67377e-08
2.63888e-08
-3.4851e-08
4.22177e-08
-3.82829e-08
5.69705e-08
-3.90776e-08
6.76148e-08
-2.92099e-08
7.84382e-08
-2.68998e-08
9.04514e-08
-2.93134e-08
1.01401e-07
-2.96821e-08
1.07256e-07
-1.5728e-08
1.14247e-07
-1.8687e-08
1.22773e-07
-2.2715e-08
1.26887e-07
-1.20247e-08
1.29219e-07
-1.07666e-08
1.31954e-07
-9.59247e-09
1.35793e-07
-1.08268e-08
1.3501e-07
4.83895e-10
1.34348e-07
-3.78137e-09
1.29816e-07
7.12527e-09
1.2422e-07
1.31195e-08
1.15507e-07
2.27886e-08
1.0602e-07
2.15802e-08
9.75808e-08
1.67564e-08
8.82398e-08
2.1983e-08
7.66776e-08
3.06562e-08
6.51669e-08
2.85168e-08
5.55768e-08
2.08685e-08
4.4907e-08
2.57344e-08
3.4441e-08
2.75211e-08
2.48475e-08
2.50022e-08
1.73001e-08
1.75754e-08
9.21061e-09
1.95391e-08
3.56644e-09
1.43843e-08
-8.61998e-11
1.01315e-08
-3.41661e-09
6.53749e-09
-2.47457e-09
-1.94892e-09
2.82736e-09
-1.39036e-08
8.66711e-09
-1.52016e-08
1.70193e-08
-2.11321e-08
2.91674e-08
-2.89587e-08
4.38651e-08
-3.39168e-08
6.22539e-08
-4.81869e-08
8.03279e-08
-4.74563e-08
9.77374e-08
-4.01054e-08
1.18833e-07
-4.78426e-08
1.31467e-07
-5.14537e-08
1.53998e-07
-6.07959e-08
-5.85647e-08
-1.1171e-06
-6.17086e-08
-1.10276e-06
-4.99555e-08
-1.08473e-06
-5.51989e-08
-1.06792e-06
-6.25686e-08
-1.05254e-06
-5.17066e-08
-1.03623e-06
-5.7513e-08
-1.01866e-06
-6.27315e-08
-1.00206e-06
-5.56731e-08
-9.86183e-07
-5.69142e-08
-9.68023e-07
-6.56208e-08
-9.51779e-07
-7.51674e-08
-9.34971e-07
-5.82644e-08
-9.14337e-07
-5.89477e-08
-8.9489e-07
-6.86412e-08
-8.76962e-07
-5.96522e-08
-8.59863e-07
-6.09117e-08
-8.40219e-07
-7.17189e-08
-8.22271e-07
-7.87717e-08
-8.0476e-07
-6.05651e-08
-7.83735e-07
-6.34724e-08
-7.63609e-07
-7.16853e-08
-7.45484e-07
-6.11328e-08
-7.28382e-07
-6.07858e-08
-7.09229e-07
-7.00542e-08
-6.91335e-07
-7.63163e-08
-6.74538e-07
-5.74516e-08
-6.54891e-07
-6.19914e-08
-6.36227e-07
-6.65583e-08
-6.19348e-07
-5.7366e-08
-6.03955e-07
-5.50961e-08
-5.8776e-07
-5.92349e-08
-5.70752e-07
-6.24486e-08
-5.56455e-07
-4.93238e-08
-5.43366e-07
-4.59662e-08
-5.2948e-07
-5.02687e-08
-5.15715e-07
-5.02759e-08
-5.04484e-07
-3.9738e-08
-4.92978e-07
-4.07727e-08
-4.808e-07
-4.3764e-08
-4.70686e-07
-3.44704e-08
-4.62184e-07
-3.08611e-08
-4.53278e-07
-3.31094e-08
-4.43559e-07
-3.5915e-08
-4.35568e-07
-2.87851e-08
-4.28687e-07
-2.64017e-08
-4.21478e-07
-2.74518e-08
-4.14928e-07
-2.9387e-08
-4.09921e-07
-1.70817e-08
-4.05544e-07
-9.12192e-09
-3.98306e-07
-2.74718e-08
-3.92534e-07
-1.93371e-08
-3.87669e-07
-1.75856e-08
-3.82393e-07
-2.00792e-08
-3.76767e-07
-1.96462e-08
-3.71252e-07
-1.78329e-08
-3.65628e-07
-2.01571e-08
-3.5873e-07
-2.58271e-08
-3.51183e-07
-2.62536e-08
-3.4354e-07
-2.52052e-08
-3.35238e-07
-2.91813e-08
-3.24981e-07
-3.76888e-08
-3.13926e-07
-3.93475e-08
-3.02923e-07
-3.70047e-08
-2.91101e-07
-4.06296e-08
-2.76839e-07
-5.19199e-08
-2.61972e-07
-5.38142e-08
-2.47826e-07
-4.77558e-08
-2.3289e-07
-5.08575e-08
-2.15513e-07
-6.27918e-08
-1.97583e-07
-6.45891e-08
-1.81107e-07
-5.49252e-08
-1.62144e-07
-6.62328e-08
-1.42728e-07
-6.98244e-08
-1.24823e-07
-5.88428e-08
-1.09012e-07
-5.22301e-08
-9.09928e-08
-6.43527e-08
-7.08976e-08
-7.12468e-08
-5.27156e-08
-5.75019e-08
-3.62938e-08
-5.33947e-08
-1.85753e-08
-6.511e-08
-7.60522e-10
-6.54807e-08
1.72257e-08
-5.4724e-08
3.19173e-08
-4.95428e-08
4.61912e-08
-5.25567e-08
6.16203e-08
-5.45068e-08
7.62268e-08
-4.38162e-08
8.76296e-08
-3.83022e-08
9.67988e-08
-3.84828e-08
1.08257e-07
-4.11395e-08
1.18574e-07
-2.60455e-08
1.25891e-07
-2.60036e-08
1.30603e-07
-2.74277e-08
1.34852e-07
-1.62727e-08
1.40336e-07
-1.62513e-08
1.43286e-07
-1.25419e-08
1.44102e-07
-1.16427e-08
1.43195e-07
1.39107e-09
1.43338e-07
-3.92353e-09
1.3853e-07
1.19324e-08
1.31552e-07
2.00981e-08
1.22339e-07
3.2001e-08
1.12613e-07
3.1306e-08
1.0368e-07
2.5689e-08
9.35091e-08
3.21534e-08
8.13348e-08
4.28306e-08
6.9287e-08
4.0564e-08
5.91494e-08
3.10066e-08
4.78208e-08
3.70623e-08
3.67847e-08
3.85572e-08
2.67251e-08
3.50608e-08
1.8781e-08
2.55192e-08
1.02219e-08
2.80974e-08
4.20587e-09
2.04e-08
2.94511e-10
1.40426e-08
-2.9256e-09
9.7575e-09
-2.00812e-09
-2.86646e-09
3.16713e-09
-1.9079e-08
9.27778e-09
-2.13125e-08
1.88396e-08
-3.06949e-08
3.16532e-08
-4.17724e-08
4.62591e-08
-4.85251e-08
6.55603e-08
-6.74875e-08
8.48051e-08
-6.67043e-08
1.03383e-07
-5.86814e-08
1.25511e-07
-6.99738e-08
1.51427e-07
-7.73677e-08
1.75246e-07
-8.46168e-08
-7.81377e-08
-1.19967e-06
-7.91602e-08
-1.1835e-06
-6.61278e-08
-1.16592e-06
-7.27789e-08
-1.1473e-06
-8.11924e-08
-1.13005e-06
-6.89489e-08
-1.11279e-06
-7.47722e-08
-1.09402e-06
-8.15053e-08
-1.07533e-06
-7.43634e-08
-1.05748e-06
-7.47623e-08
-1.03834e-06
-8.47657e-08
-1.01991e-06
-9.36022e-08
-1.00119e-06
-7.69836e-08
-9.80033e-07
-8.01022e-08
-9.59209e-07
-8.94664e-08
-9.39252e-07
-7.96094e-08
-9.20079e-07
-8.00853e-08
-8.99248e-07
-9.25506e-08
-8.7923e-07
-9.87896e-08
-8.59731e-07
-8.00651e-08
-8.38097e-07
-8.51065e-08
-8.16651e-07
-9.31315e-08
-7.96593e-07
-8.11914e-08
-7.77514e-07
-7.98649e-08
-7.57173e-07
-9.03954e-08
-7.37425e-07
-9.60641e-08
-7.18828e-07
-7.60481e-08
-6.98559e-07
-8.22605e-08
-6.78719e-07
-8.63984e-08
-6.6012e-07
-7.59649e-08
-6.43074e-07
-7.21423e-08
-6.25855e-07
-7.64534e-08
-6.07699e-07
-8.06046e-08
-5.92024e-07
-6.49981e-08
-5.77714e-07
-6.02757e-08
-5.62956e-07
-6.50267e-08
-5.48062e-07
-6.51697e-08
-5.35669e-07
-5.21309e-08
-5.23719e-07
-5.27226e-08
-5.10923e-07
-5.65598e-08
-4.99947e-07
-4.54468e-08
-4.90548e-07
-4.026e-08
-4.81111e-07
-4.25456e-08
-4.70884e-07
-4.61419e-08
-4.62439e-07
-3.72305e-08
-4.55278e-07
-3.35625e-08
-4.47852e-07
-3.48779e-08
-4.41018e-07
-3.62202e-08
-4.35454e-07
-2.26458e-08
-4.30422e-07
-1.41534e-08
-4.23164e-07
-3.473e-08
-4.16881e-07
-2.56201e-08
-4.11432e-07
-2.30343e-08
-4.05851e-07
-2.56597e-08
-3.99889e-07
-2.56077e-08
-3.93748e-07
-2.39741e-08
-3.8731e-07
-2.65951e-08
-3.79857e-07
-3.32801e-08
-3.71771e-07
-3.43392e-08
-3.63171e-07
-3.3805e-08
-3.53703e-07
-3.86495e-08
-3.42618e-07
-4.87743e-08
-3.30728e-07
-5.12371e-08
-3.18341e-07
-4.93927e-08
-3.04977e-07
-5.39937e-08
-2.89625e-07
-6.72719e-08
-2.73535e-07
-6.99042e-08
-2.57638e-07
-6.36529e-08
-2.40829e-07
-6.76665e-08
-2.21855e-07
-8.17657e-08
-2.02224e-07
-8.42205e-08
-1.83537e-07
-7.3612e-08
-1.62874e-07
-8.68951e-08
-1.42066e-07
-9.06321e-08
-1.22552e-07
-7.83561e-08
-1.04141e-07
-7.06411e-08
-8.36574e-08
-8.48355e-08
-6.18504e-08
-9.30535e-08
-4.19621e-08
-7.739e-08
-2.27831e-08
-7.25735e-08
-2.68773e-09
-8.52055e-08
1.75924e-08
-8.57609e-08
3.57628e-08
-7.28945e-08
5.24195e-08
-6.61996e-08
6.91435e-08
-6.92806e-08
8.59045e-08
-7.12678e-08
1.00828e-07
-5.87391e-08
1.13589e-07
-5.10635e-08
1.24935e-07
-4.9829e-08
1.37229e-07
-5.34326e-08
1.47883e-07
-3.66998e-08
1.55695e-07
-3.38151e-08
1.6105e-07
-3.27834e-08
1.65333e-07
-2.05555e-08
1.69819e-07
-2.0737e-08
1.72353e-07
-1.50759e-08
1.73321e-07
-1.26099e-08
1.7172e-07
2.99137e-09
1.70886e-07
-3.08845e-09
1.64485e-07
1.83332e-08
1.55946e-07
2.86379e-08
1.45476e-07
4.24693e-08
1.34402e-07
4.23808e-08
1.23433e-07
3.6657e-08
1.113e-07
4.42858e-08
9.77619e-08
5.63692e-08
8.43373e-08
5.39879e-08
7.23644e-08
4.298e-08
5.9344e-08
5.00818e-08
4.71536e-08
5.07477e-08
3.61014e-08
4.6112e-08
2.70327e-08
3.45875e-08
1.75329e-08
3.75963e-08
1.10129e-08
2.69197e-08
6.08289e-09
1.89723e-08
3.32345e-09
1.25168e-08
4.44812e-09
-3.9912e-09
1.04431e-08
-2.50742e-08
1.73551e-08
-2.82248e-08
2.80207e-08
-4.13616e-08
4.29699e-08
-5.67219e-08
6.05018e-08
-6.60593e-08
8.19821e-08
-8.89672e-08
1.03449e-07
-8.81747e-08
1.25307e-07
-8.05375e-08
1.50908e-07
-9.55779e-08
1.79676e-07
-1.06134e-07
2.06002e-07
-1.10945e-07
-1.00252e-07
-1.2724e-06
-9.84627e-08
-1.25468e-06
-8.38452e-08
-1.23678e-06
-9.06828e-08
-1.2168e-06
-1.01167e-07
-1.19808e-06
-8.76756e-08
-1.17978e-06
-9.30657e-08
-1.15971e-06
-1.01585e-07
-1.1395e-06
-9.45708e-08
-1.1202e-06
-9.40613e-08
-1.09984e-06
-1.05123e-07
-1.07823e-06
-1.15221e-07
-1.05794e-06
-9.72695e-08
-1.03747e-06
-1.00569e-07
-1.01536e-06
-1.11581e-07
-9.9372e-07
-1.0125e-07
-9.72889e-07
-1.00917e-07
-9.50856e-07
-1.14584e-07
-9.28178e-07
-1.21469e-07
-9.06944e-07
-1.013e-07
-8.85497e-07
-1.06553e-07
-8.62852e-07
-1.15777e-07
-8.41163e-07
-1.0288e-07
-8.2045e-07
-1.00578e-07
-7.98951e-07
-1.11895e-07
-7.76934e-07
-1.1808e-07
-7.56668e-07
-9.6315e-08
-7.36468e-07
-1.0246e-07
-7.15386e-07
-1.07481e-07
-6.95465e-07
-9.58853e-08
-6.77147e-07
-9.04597e-08
-6.58836e-07
-9.47646e-08
-6.39703e-07
-9.97373e-08
-6.22799e-07
-8.19013e-08
-6.07432e-07
-7.56424e-08
-5.91814e-07
-8.06447e-08
-5.76094e-07
-8.08892e-08
-5.6269e-07
-6.55353e-08
-5.50087e-07
-6.53249e-08
-5.36674e-07
-6.99728e-08
-5.24943e-07
-5.71776e-08
-5.14803e-07
-5.04004e-08
-5.04872e-07
-5.24764e-08
-4.94274e-07
-5.67399e-08
-4.85379e-07
-4.61256e-08
-4.77788e-07
-4.11536e-08
-4.70087e-07
-4.25781e-08
-4.62404e-07
-4.39031e-08
-4.56328e-07
-2.87213e-08
-4.51197e-07
-1.92845e-08
-4.43981e-07
-4.19459e-08
-4.3734e-07
-3.22608e-08
-4.3139e-07
-2.89842e-08
-4.25424e-07
-3.1625e-08
-4.19147e-07
-3.1885e-08
-4.12471e-07
-3.06502e-08
-4.05328e-07
-3.37377e-08
-3.97349e-07
-4.12594e-08
-3.88802e-07
-4.28862e-08
-3.79375e-07
-4.32321e-08
-3.68874e-07
-4.915e-08
-3.57056e-07
-6.05924e-08
-3.44501e-07
-6.37921e-08
-3.30897e-07
-6.2997e-08
-3.16164e-07
-6.87275e-08
-2.99881e-07
-8.35542e-08
-2.82863e-07
-8.69229e-08
-2.65398e-07
-8.11179e-08
-2.46693e-07
-8.63712e-08
-2.26085e-07
-1.02373e-07
-2.05364e-07
-1.04942e-07
-1.84769e-07
-9.4207e-08
-1.62178e-07
-1.09485e-07
-1.40196e-07
-1.12614e-07
-1.19372e-07
-9.91793e-08
-9.86598e-08
-9.13533e-08
-7.59431e-08
-1.07552e-07
-5.26166e-08
-1.1638e-07
-3.1343e-08
-9.86635e-08
-9.60994e-09
-9.43064e-08
1.19841e-08
-1.068e-07
3.42051e-08
-1.07982e-07
5.31523e-08
-9.18419e-08
7.14759e-08
-8.45234e-08
9.03034e-08
-8.8108e-08
1.08254e-07
-8.92185e-08
1.23432e-07
-7.3917e-08
1.37309e-07
-6.49402e-08
1.50544e-07
-6.30635e-08
1.63574e-07
-6.64619e-08
1.72997e-07
-4.61234e-08
1.81191e-07
-4.20082e-08
1.8861e-07
-4.02043e-08
1.92977e-07
-2.49216e-08
1.96536e-07
-2.42964e-08
1.98698e-07
-1.72372e-08
1.99913e-07
-1.38249e-08
1.97806e-07
5.09808e-09
1.96036e-07
-1.31711e-09
1.88297e-07
2.60714e-08
1.78586e-07
3.83498e-08
1.67041e-07
5.40128e-08
1.54747e-07
5.46758e-08
1.421e-07
4.93028e-08
1.28422e-07
5.79634e-08
1.13713e-07
7.10789e-08
9.90929e-08
6.86072e-08
8.56112e-08
5.64622e-08
7.12414e-08
6.44507e-08
5.80886e-08
6.39004e-08
4.61724e-08
5.80272e-08
3.61788e-08
4.45807e-08
2.5985e-08
4.77893e-08
1.91101e-08
3.37942e-08
1.36832e-08
2.43989e-08
1.10969e-08
1.5103e-08
1.24082e-08
-5.3026e-09
1.92962e-08
-3.19624e-08
2.69439e-08
-3.58728e-08
3.83712e-08
-5.27901e-08
5.50686e-08
-7.34195e-08
7.52379e-08
-8.62311e-08
9.86816e-08
-1.1241e-07
1.22016e-07
-1.11513e-07
1.46545e-07
-1.05064e-07
1.75019e-07
-1.24056e-07
2.05971e-07
-1.37084e-07
2.34403e-07
-1.3938e-07
-1.24647e-07
-1.33409e-06
-1.17414e-07
-1.31541e-06
-1.02524e-07
-1.2954e-06
-1.10692e-07
-1.27524e-06
-1.21328e-07
-1.25567e-06
-1.07248e-07
-1.23566e-06
-1.13074e-07
-1.21468e-06
-1.22563e-07
-1.19386e-06
-1.15387e-07
-1.17341e-06
-1.14518e-07
-1.15165e-06
-1.26879e-07
-1.13035e-06
-1.3653e-07
-1.10902e-06
-1.18594e-07
-1.08622e-06
-1.2337e-07
-1.06314e-06
-1.34658e-07
-1.04053e-06
-1.23864e-07
-1.01845e-06
-1.23e-07
-9.95252e-07
-1.37782e-07
-9.72094e-07
-1.44627e-07
-9.49722e-07
-1.23673e-07
-9.26646e-07
-1.29629e-07
-9.03009e-07
-1.39415e-07
-8.80284e-07
-1.25605e-07
-8.58408e-07
-1.22453e-07
-8.35822e-07
-1.34481e-07
-8.13435e-07
-1.40467e-07
-7.92113e-07
-1.17637e-07
-7.70323e-07
-1.2425e-07
-7.48254e-07
-1.2955e-07
-7.2744e-07
-1.16699e-07
-7.08132e-07
-1.09768e-07
-6.88825e-07
-1.1407e-07
-6.68898e-07
-1.19664e-07
-6.51192e-07
-9.96071e-08
-6.34945e-07
-9.18888e-08
-6.18531e-07
-9.70585e-08
-6.02069e-07
-9.73514e-08
-5.88001e-07
-7.96025e-08
-5.74781e-07
-7.85451e-08
-5.60743e-07
-8.40111e-08
-5.48422e-07
-6.94981e-08
-5.37791e-07
-6.10312e-08
-5.27406e-07
-6.28609e-08
-5.16323e-07
-6.78228e-08
-5.07012e-07
-5.54365e-08
-4.9909e-07
-4.90762e-08
-4.91055e-07
-5.06121e-08
-4.82952e-07
-5.20065e-08
-4.76514e-07
-3.51586e-08
-4.70882e-07
-2.49171e-08
-4.63743e-07
-4.90837e-08
-4.56751e-07
-3.92533e-08
-4.50498e-07
-3.52364e-08
-4.44298e-07
-3.78255e-08
-4.37699e-07
-3.84835e-08
-4.30643e-07
-3.77062e-08
-4.23153e-07
-4.12276e-08
-4.14842e-07
-4.95705e-08
-4.05809e-07
-5.19188e-08
-3.95852e-07
-5.31895e-08
-3.84971e-07
-6.00302e-08
-3.72731e-07
-7.28334e-08
-3.59284e-07
-7.72389e-08
-3.44939e-07
-7.73418e-08
-3.29902e-07
-8.37649e-08
-3.12749e-07
-1.00708e-07
-2.94187e-07
-1.05485e-07
-2.75837e-07
-9.94675e-08
-2.56615e-07
-1.05593e-07
-2.34743e-07
-1.24246e-07
-2.1245e-07
-1.27234e-07
-1.90753e-07
-1.15905e-07
-1.67704e-07
-1.32534e-07
-1.44774e-07
-1.35543e-07
-1.21565e-07
-1.22387e-07
-9.96294e-08
-1.13288e-07
-7.69554e-08
-1.30225e-07
-5.24869e-08
-1.40848e-07
-2.87157e-08
-1.22435e-07
-5.77631e-09
-1.17246e-07
1.53831e-08
-1.27959e-07
3.86284e-08
-1.31227e-07
6.02852e-08
-1.13499e-07
7.95333e-08
-1.03772e-07
9.74886e-08
-1.06063e-07
1.16249e-07
-1.07979e-07
1.34276e-07
-9.19439e-08
1.48829e-07
-7.94926e-08
1.60549e-07
-7.47842e-08
1.7416e-07
-8.00717e-08
1.85843e-07
-5.78075e-08
1.94397e-07
-5.05613e-08
2.00292e-07
-4.61002e-08
2.04799e-07
-2.94282e-08
2.1046e-07
-2.99575e-08
2.12727e-07
-1.95044e-08
2.11846e-07
-1.29426e-08
2.09541e-07
7.40222e-09
2.084e-07
-1.74081e-10
2.0028e-07
3.41899e-08
1.89147e-07
4.94841e-08
1.76964e-07
6.61942e-08
1.64306e-07
6.7334e-08
1.50975e-07
6.26336e-08
1.36249e-07
7.26886e-08
1.2076e-07
8.65676e-08
1.05493e-07
8.38738e-08
9.13323e-08
7.06238e-08
7.61328e-08
7.96493e-08
6.22613e-08
7.77719e-08
4.98065e-08
7.04809e-08
3.94165e-08
5.49704e-08
2.86724e-08
5.85325e-08
2.13035e-08
4.11628e-08
1.56327e-08
3.00694e-08
1.3531e-08
1.72046e-08
1.49313e-08
-6.70294e-09
2.15141e-08
-3.85454e-08
2.95007e-08
-4.38597e-08
4.24633e-08
-6.57539e-08
5.99775e-08
-9.0934e-08
8.01794e-08
-1.06436e-07
1.04794e-07
-1.37025e-07
1.29536e-07
-1.36258e-07
1.5543e-07
-1.30956e-07
1.85039e-07
-1.53668e-07
2.17306e-07
-1.69349e-07
2.47178e-07
-1.69254e-07
-1.50454e-07
-1.40216e-06
-1.37788e-07
-1.38214e-06
-1.2254e-07
-1.36142e-06
-1.31413e-07
-1.34004e-06
-1.42707e-07
-1.31909e-06
-1.28195e-07
-1.29806e-06
-1.34113e-07
-1.276e-06
-1.4462e-07
-1.25371e-06
-1.37676e-07
-1.23183e-06
-1.36396e-07
-1.20903e-06
-1.49684e-07
-1.18642e-06
-1.59143e-07
-1.16363e-06
-1.41386e-07
-1.13971e-06
-1.47285e-07
-1.11544e-06
-1.58932e-07
-1.09132e-06
-1.47983e-07
-1.06775e-06
-1.46576e-07
-1.04337e-06
-1.62161e-07
-1.01911e-06
-1.68882e-07
-9.95246e-07
-1.47541e-07
-9.70762e-07
-1.54112e-07
-9.45907e-07
-1.64271e-07
-9.21716e-07
-1.49796e-07
-8.98368e-07
-1.45801e-07
-8.74607e-07
-1.58243e-07
-8.50873e-07
-1.642e-07
-8.28148e-07
-1.40362e-07
-8.05349e-07
-1.47048e-07
-7.82159e-07
-1.52741e-07
-7.60059e-07
-1.38798e-07
-7.39487e-07
-1.3034e-07
-7.19158e-07
-1.34399e-07
-6.98282e-07
-1.4054e-07
-6.7947e-07
-1.18419e-07
-6.62145e-07
-1.09213e-07
-6.44894e-07
-1.14309e-07
-6.27639e-07
-1.14607e-07
-6.12689e-07
-9.45518e-08
-5.98725e-07
-9.25092e-08
-5.8405e-07
-9.86865e-08
-5.7102e-07
-8.25276e-08
-5.59711e-07
-7.23402e-08
-5.48817e-07
-7.37546e-08
-5.37344e-07
-7.9296e-08
-5.27582e-07
-6.51979e-08
-5.19196e-07
-5.74628e-08
-5.10846e-07
-5.89613e-08
-5.02564e-07
-6.02884e-08
-4.95691e-07
-4.20313e-08
-4.8937e-07
-3.12386e-08
-4.82148e-07
-5.63048e-08
-4.74857e-07
-4.65444e-08
-4.68157e-07
-4.19358e-08
-4.61603e-07
-4.43793e-08
-4.54657e-07
-4.54292e-08
-4.47092e-07
-4.52714e-08
-4.39081e-07
-4.92388e-08
-4.30365e-07
-5.82858e-08
-4.20838e-07
-6.14455e-08
-4.10139e-07
-6.38888e-08
-3.98571e-07
-7.1598e-08
-3.85596e-07
-8.58091e-08
-3.71304e-07
-9.1531e-08
-3.55985e-07
-9.26606e-08
-3.39674e-07
-1.00076e-07
-3.21099e-07
-1.19283e-07
-3.016e-07
-1.24984e-07
-2.8182e-07
-1.19248e-07
-2.60742e-07
-1.26671e-07
-2.37434e-07
-1.47553e-07
-2.1351e-07
-1.51158e-07
-1.90068e-07
-1.39347e-07
-1.65748e-07
-1.56853e-07
-1.41386e-07
-1.59905e-07
-1.16884e-07
-1.46889e-07
-9.30975e-08
-1.37074e-07
-6.83577e-08
-1.54964e-07
-4.24914e-08
-1.66714e-07
-1.74955e-08
-1.4743e-07
7.16092e-09
-1.41902e-07
3.07152e-08
-1.51514e-07
5.55092e-08
-1.56021e-07
7.79923e-08
-1.35982e-07
9.87994e-08
-1.24579e-07
1.18768e-07
-1.26032e-07
1.38711e-07
-1.27922e-07
1.57072e-07
-1.10304e-07
1.72675e-07
-9.50957e-08
1.86107e-07
-8.82159e-08
2.00435e-07
-9.43983e-08
2.12977e-07
-7.03509e-08
2.21937e-07
-5.95198e-08
2.27771e-07
-5.19356e-08
2.32377e-07
-3.40335e-08
2.37166e-07
-3.47471e-08
2.39116e-07
-2.14548e-08
2.38566e-07
-1.23915e-08
2.35792e-07
1.01759e-08
2.3366e-07
1.95974e-09
2.24386e-07
4.34625e-08
2.12379e-07
6.1492e-08
1.99156e-07
7.94156e-08
1.85285e-07
8.12054e-08
1.70475e-07
7.74432e-08
1.54425e-07
8.87383e-08
1.37811e-07
1.03181e-07
1.21362e-07
1.00322e-07
1.05842e-07
8.61446e-08
8.94601e-08
9.60305e-08
7.46944e-08
9.25377e-08
6.13839e-08
8.37903e-08
5.01515e-08
6.62023e-08
3.88354e-08
6.98476e-08
3.11855e-08
4.88124e-08
2.51781e-08
3.60764e-08
2.29383e-08
1.94444e-08
2.46786e-08
-8.4434e-09
3.21743e-08
-4.60412e-08
4.08812e-08
-5.2567e-08
5.45226e-08
-7.93964e-08
7.36739e-08
-1.10086e-07
9.63514e-08
-1.29116e-07
1.2277e-07
-1.63443e-07
1.49226e-07
-1.62718e-07
1.77507e-07
-1.59234e-07
2.09733e-07
-1.85899e-07
2.44098e-07
-2.03711e-07
2.75952e-07
-2.0111e-07
-1.78268e-07
-1.46672e-06
-1.58857e-07
-1.44566e-06
-1.43603e-07
-1.42371e-06
-1.53361e-07
-1.40158e-06
-1.64839e-07
-1.37958e-06
-1.50192e-07
-1.35728e-06
-1.5641e-07
-1.33424e-06
-1.67666e-07
-1.31091e-06
-1.61002e-07
-1.28786e-06
-1.59446e-07
-1.26393e-06
-1.73623e-07
-1.23982e-06
-1.83252e-07
-1.21587e-06
-1.65337e-07
-1.19126e-06
-1.71893e-07
-1.1659e-06
-1.84292e-07
-1.14058e-06
-1.73301e-07
-1.11577e-06
-1.71384e-07
-1.09025e-06
-1.87689e-07
-1.06441e-06
-1.94719e-07
-1.03934e-06
-1.72611e-07
-1.01415e-06
-1.79306e-07
-9.88132e-07
-1.90288e-07
-9.62711e-07
-1.75217e-07
-9.38197e-07
-1.70315e-07
-9.13343e-07
-1.83098e-07
-8.87955e-07
-1.89588e-07
-8.64093e-07
-1.64223e-07
-8.40775e-07
-1.70366e-07
-8.16498e-07
-1.77019e-07
-7.93219e-07
-1.62077e-07
-7.71651e-07
-1.51908e-07
-7.50461e-07
-1.55588e-07
-7.28429e-07
-1.62572e-07
-7.08667e-07
-1.38181e-07
-6.90707e-07
-1.27173e-07
-6.72665e-07
-1.32351e-07
-6.54278e-07
-1.32994e-07
-6.38609e-07
-1.1022e-07
-6.24337e-07
-1.06781e-07
-6.08942e-07
-1.14082e-07
-5.95195e-07
-9.62737e-08
-5.83413e-07
-8.41221e-08
-5.72112e-07
-8.50562e-08
-5.59877e-07
-9.15301e-08
-5.49648e-07
-7.54268e-08
-5.41152e-07
-6.59584e-08
-5.32455e-07
-6.76589e-08
-5.23159e-07
-6.95843e-08
-5.1595e-07
-4.924e-08
-5.09911e-07
-3.72773e-08
-5.02451e-07
-6.37644e-08
-4.94751e-07
-5.42439e-08
-4.87834e-07
-4.88528e-08
-4.81279e-07
-5.09343e-08
-4.73861e-07
-5.28472e-08
-4.65832e-07
-5.32996e-08
-4.57676e-07
-5.73951e-08
-4.48673e-07
-6.72888e-08
-4.38357e-07
-7.17609e-08
-4.27137e-07
-7.51087e-08
-4.15285e-07
-8.34501e-08
-4.01513e-07
-9.95812e-08
-3.85975e-07
-1.07069e-07
-3.69938e-07
-1.08698e-07
-3.53095e-07
-1.1692e-07
-3.33431e-07
-1.38947e-07
-3.1216e-07
-1.46255e-07
-2.91342e-07
-1.40066e-07
-2.69981e-07
-1.48032e-07
-2.45539e-07
-1.71995e-07
-2.19477e-07
-1.77219e-07
-1.94815e-07
-1.64009e-07
-1.70299e-07
-1.81369e-07
-1.44759e-07
-1.85444e-07
-1.17715e-07
-1.73933e-07
-9.27285e-08
-1.62059e-07
-6.81007e-08
-1.79591e-07
-4.10107e-08
-1.93803e-07
-1.32964e-08
-1.75145e-07
1.24107e-08
-1.67609e-07
3.57735e-08
-1.74877e-07
6.16953e-08
-1.81943e-07
8.70464e-08
-1.61333e-07
1.08853e-07
-1.46386e-07
1.2798e-07
-1.45159e-07
1.48823e-07
-1.48764e-07
1.70056e-07
-1.31537e-07
1.86394e-07
-1.11433e-07
1.98415e-07
-1.00238e-07
2.13364e-07
-1.09346e-07
2.2802e-07
-8.50082e-08
2.3737e-07
-6.88687e-08
2.41868e-07
-5.64352e-08
2.46607e-07
-3.8771e-08
2.5336e-07
-4.15014e-08
2.55401e-07
-2.34955e-08
2.52847e-07
-9.83602e-09
2.49817e-07
1.32049e-08
2.484e-07
3.37844e-09
2.38683e-07
5.3179e-08
2.25054e-07
7.51209e-08
2.11095e-07
9.33739e-08
1.96876e-07
9.54243e-08
1.81322e-07
9.29965e-08
1.64034e-07
1.06026e-07
1.46531e-07
1.20685e-07
1.29388e-07
1.17464e-07
1.13125e-07
1.02408e-07
9.5801e-08
1.13354e-07
8.02195e-08
1.08119e-07
6.63107e-08
9.7698e-08
5.46795e-08
7.7833e-08
4.27679e-08
8.17583e-08
3.45567e-08
5.70232e-08
2.8302e-08
4.23306e-08
2.66969e-08
2.10494e-08
2.8559e-08
-1.03056e-08
3.56088e-08
-5.30912e-08
4.47275e-08
-6.16861e-08
6.01928e-08
-9.4863e-08
8.03294e-08
-1.30222e-07
1.0296e-07
-1.51749e-07
1.30576e-07
-1.91059e-07
1.58627e-07
-1.90773e-07
1.88419e-07
-1.89025e-07
2.21843e-07
-2.19326e-07
2.57654e-07
-2.3952e-07
2.91128e-07
-2.34586e-07
-2.07719e-07
-1.53384e-06
-1.81083e-07
-1.51138e-06
-1.66061e-07
-1.48846e-06
-1.76289e-07
-1.46527e-06
-1.88021e-07