/*--------------------------------*- C++ -*----------------------------------*\
| =========                 |                                                 |
| \\      /  F ield         | OpenFOAM: The Open Source CFD Toolbox           |
|  \\    /   O peration     | Version:  v2012                                 |
|   \\  /    A nd           | Website:  www.openfoam.com                      |
|    \\/     M anipulation  |                                                 |
\*---------------------------------------------------------------------------*/
FoamFile
{
    version     2.0;
    format      ascii;
    class       volScalarField;
    location    "1e-06";
    object      pMean;
}
// * * * * * * * * * * * * * * * * * * * * * * * * * * * * * * * * * * * * * //

dimensions      [1 -1 -2 0 0 0 0];


internalField   nonuniform List<scalar> 
10123
(
9.88438e+06
1.0137e+07
1.03924e+07
1.064e+07
1.08811e+07
1.11248e+07
1.13622e+07
1.1593e+07
1.18246e+07
1.20593e+07
1.22861e+07
1.25068e+07
1.27332e+07
1.29505e+07
1.31608e+07
1.33747e+07
1.35935e+07
1.3804e+07
1.4007e+07
1.42184e+07
1.44206e+07
1.46153e+07
1.48146e+07
1.50194e+07
1.52162e+07
1.54055e+07
1.56041e+07
1.57938e+07
1.59763e+07
1.61629e+07
1.63542e+07
1.65396e+07
1.67174e+07
1.69e+07
1.70855e+07
1.72656e+07
1.74394e+07
1.76177e+07
1.77917e+07
1.79595e+07
1.8129e+07
1.83001e+07
1.84671e+07
1.86285e+07
1.87906e+07
1.89527e+07
1.91108e+07
1.92646e+07
1.94189e+07
1.95738e+07
1.97214e+07
1.98671e+07
2.00114e+07
2.01519e+07
2.02888e+07
2.04244e+07
2.05596e+07
2.06901e+07
2.08162e+07
2.09426e+07
2.10702e+07
2.11916e+07
2.13076e+07
2.14265e+07
2.15495e+07
2.16647e+07
2.17735e+07
2.18889e+07
2.20107e+07
2.21244e+07
2.22302e+07
2.23493e+07
2.2463e+07
2.25673e+07
2.2682e+07
2.28115e+07
2.29364e+07
2.3053e+07
2.31825e+07
2.33284e+07
2.34697e+07
2.3602e+07
2.37451e+07
2.38987e+07
2.40488e+07
2.41892e+07
2.43372e+07
2.44918e+07
2.46423e+07
2.47876e+07
2.49337e+07
2.50804e+07
2.52275e+07
2.5371e+07
2.55131e+07
2.56524e+07
2.57762e+07
2.58947e+07
2.60051e+07
2.61033e+07
2.61865e+07
2.62725e+07
2.63582e+07
2.64243e+07
2.64722e+07
2.65229e+07
2.65745e+07
2.66051e+07
2.6619e+07
2.66317e+07
2.66497e+07
2.66488e+07
2.66291e+07
2.66026e+07
2.65768e+07
2.65327e+07
2.64823e+07
2.64235e+07
2.63579e+07
2.62897e+07
2.62262e+07
2.61772e+07
2.61114e+07
2.60371e+07
2.59886e+07
2.59662e+07
2.59285e+07
2.58769e+07
9.88376e+06
1.01364e+07
1.03919e+07
1.06393e+07
1.08803e+07
1.11244e+07
1.13616e+07
1.15921e+07
1.1824e+07
1.20588e+07
1.22861e+07
1.25062e+07
1.27323e+07
1.295e+07
1.31602e+07
1.33744e+07
1.35933e+07
1.3804e+07
1.40068e+07
1.42176e+07
1.44203e+07
1.46148e+07
1.48143e+07
1.50193e+07
1.52162e+07
1.54052e+07
1.56033e+07
1.57932e+07
1.59756e+07
1.61624e+07
1.63538e+07
1.65391e+07
1.67169e+07
1.68996e+07
1.70852e+07
1.72651e+07
1.7439e+07
1.76174e+07
1.77914e+07
1.79591e+07
1.81287e+07
1.82999e+07
1.84668e+07
1.86282e+07
1.87904e+07
1.89526e+07
1.91108e+07
1.92644e+07
1.94185e+07
1.95731e+07
1.97207e+07
1.98664e+07
2.00107e+07
2.01513e+07
2.02881e+07
2.04238e+07
2.0559e+07
2.06895e+07
2.08156e+07
2.0942e+07
2.10696e+07
2.1191e+07
2.1307e+07
2.1426e+07
2.1549e+07
2.16642e+07
2.1773e+07
2.18884e+07
2.20102e+07
2.2124e+07
2.22297e+07
2.23488e+07
2.24624e+07
2.25668e+07
2.26815e+07
2.28114e+07
2.29364e+07
2.3053e+07
2.31825e+07
2.33284e+07
2.34697e+07
2.3602e+07
2.37451e+07
2.38987e+07
2.40488e+07
2.41892e+07
2.43372e+07
2.44919e+07
2.46423e+07
2.47876e+07
2.49337e+07
2.50804e+07
2.52276e+07
2.5371e+07
2.55131e+07
2.56524e+07
2.57761e+07
2.58947e+07
2.60051e+07
2.61033e+07
2.61865e+07
2.62725e+07
2.63582e+07
2.64243e+07
2.64723e+07
2.65229e+07
2.65745e+07
2.66052e+07
2.66191e+07
2.66318e+07
2.66498e+07
2.66489e+07
2.66292e+07
2.66028e+07
2.65769e+07
2.65328e+07
2.64824e+07
2.64235e+07
2.63579e+07
2.62897e+07
2.62262e+07
2.61772e+07
2.61114e+07
2.60372e+07
2.59889e+07
2.59664e+07
2.59288e+07
2.58769e+07
9.88351e+06
1.01359e+07
1.03914e+07
1.0639e+07
1.08797e+07
1.1124e+07
1.13612e+07
1.15914e+07
1.18234e+07
1.20584e+07
1.22859e+07
1.25057e+07
1.27318e+07
1.29498e+07
1.31597e+07
1.33741e+07
1.35932e+07
1.38039e+07
1.40065e+07
1.42173e+07
1.44202e+07
1.46144e+07
1.4814e+07
1.50192e+07
1.52162e+07
1.5405e+07
1.56027e+07
1.57928e+07
1.5975e+07
1.61619e+07
1.63535e+07
1.65388e+07
1.67165e+07
1.68992e+07
1.70849e+07
1.72648e+07
1.74387e+07
1.76172e+07
1.77912e+07
1.79588e+07
1.81285e+07
1.82997e+07
1.84667e+07
1.8628e+07
1.87902e+07
1.89525e+07
1.91108e+07
1.92644e+07
1.94183e+07
1.95725e+07
1.97201e+07
1.98658e+07
2.00101e+07
2.01507e+07
2.02875e+07
2.04233e+07
2.05584e+07
2.06889e+07
2.08151e+07
2.09414e+07
2.10691e+07
2.11906e+07
2.13065e+07
2.14255e+07
2.15485e+07
2.16638e+07
2.17726e+07
2.18879e+07
2.20097e+07
2.21236e+07
2.22293e+07
2.23484e+07
2.24619e+07
2.25663e+07
2.2681e+07
2.28114e+07
2.29364e+07
2.3053e+07
2.31825e+07
2.33283e+07
2.34696e+07
2.3602e+07
2.37451e+07
2.38987e+07
2.40487e+07
2.41892e+07
2.43371e+07
2.44918e+07
2.46422e+07
2.47876e+07
2.49337e+07
2.50803e+07
2.52275e+07
2.53709e+07
2.5513e+07
2.56524e+07
2.57761e+07
2.58946e+07
2.60051e+07
2.61033e+07
2.61865e+07
2.62725e+07
2.63582e+07
2.64243e+07
2.64722e+07
2.65229e+07
2.65745e+07
2.66052e+07
2.66191e+07
2.66319e+07
2.66498e+07
2.6649e+07
2.66294e+07
2.6603e+07
2.65771e+07
2.6533e+07
2.64825e+07
2.64237e+07
2.63579e+07
2.62897e+07
2.62261e+07
2.61773e+07
2.61116e+07
2.60374e+07
2.59891e+07
2.59667e+07
2.59291e+07
2.58769e+07
9.88352e+06
1.01357e+07
1.0391e+07
1.0639e+07
1.08794e+07
1.11237e+07
1.13612e+07
1.1591e+07
1.18231e+07
1.20584e+07
1.22859e+07
1.25055e+07
1.27314e+07
1.29498e+07
1.31597e+07
1.3374e+07
1.35932e+07
1.3804e+07
1.40065e+07
1.42171e+07
1.44202e+07
1.46144e+07
1.4814e+07
1.50192e+07
1.52162e+07
1.5405e+07
1.56023e+07
1.57927e+07
1.59747e+07
1.61616e+07
1.63535e+07
1.65388e+07
1.67163e+07
1.68989e+07
1.70849e+07
1.72648e+07
1.74385e+07
1.76172e+07
1.77912e+07
1.79587e+07
1.81284e+07
1.82997e+07
1.84667e+07
1.8628e+07
1.87902e+07
1.89525e+07
1.91108e+07
1.92643e+07
1.94181e+07
1.95718e+07
1.97194e+07
1.98651e+07
2.00095e+07
2.01501e+07
2.02869e+07
2.04226e+07
2.05578e+07
2.06884e+07
2.08145e+07
2.09409e+07
2.10686e+07
2.11901e+07
2.1306e+07
2.1425e+07
2.1548e+07
2.16633e+07
2.17721e+07
2.18875e+07
2.20095e+07
2.21234e+07
2.2229e+07
2.23481e+07
2.24614e+07
2.25658e+07
2.26807e+07
2.28114e+07
2.29364e+07
2.3053e+07
2.31824e+07
2.33283e+07
2.34696e+07
2.3602e+07
2.37451e+07
2.38987e+07
2.40487e+07
2.41892e+07
2.43371e+07
2.44918e+07
2.46422e+07
2.47875e+07
2.49337e+07
2.50803e+07
2.52275e+07
2.53709e+07
2.5513e+07
2.56523e+07
2.57761e+07
2.58946e+07
2.60051e+07
2.61033e+07
2.61865e+07
2.62724e+07
2.63582e+07
2.64243e+07
2.64722e+07
2.65229e+07
2.65745e+07
2.66053e+07
2.66192e+07
2.66319e+07
2.66499e+07
2.66492e+07
2.66296e+07
2.66032e+07
2.65773e+07
2.65332e+07
2.64828e+07
2.64239e+07
2.63581e+07
2.62898e+07
2.62262e+07
2.61777e+07
2.61119e+07
2.60377e+07
2.59893e+07
2.59669e+07
2.59294e+07
2.58771e+07
9.88354e+06
1.01356e+07
1.0391e+07
1.0639e+07
1.08793e+07
1.11237e+07
1.13612e+07
1.1591e+07
1.1823e+07
1.20584e+07
1.22859e+07
1.25055e+07
1.27314e+07
1.29498e+07
1.31597e+07
1.3374e+07
1.35932e+07
1.3804e+07
1.40065e+07
1.42171e+07
1.44202e+07
1.46144e+07
1.4814e+07
1.50192e+07
1.52162e+07
1.5405e+07
1.56023e+07
1.57927e+07
1.59747e+07
1.61616e+07
1.63535e+07
1.65388e+07
1.67163e+07
1.68989e+07
1.70849e+07
1.72648e+07
1.74385e+07
1.76172e+07
1.77912e+07
1.79587e+07
1.81284e+07
1.82997e+07
1.84667e+07
1.8628e+07
1.87902e+07
1.89525e+07
1.91108e+07
1.92643e+07
1.9418e+07
1.95711e+07
1.97187e+07
1.98644e+07
2.00088e+07
2.01494e+07
2.02863e+07
2.0422e+07
2.05573e+07
2.06878e+07
2.08139e+07
2.09403e+07
2.1068e+07
2.11896e+07
2.13055e+07
2.14245e+07
2.15476e+07
2.1663e+07
2.17717e+07
2.18871e+07
2.20095e+07
2.21234e+07
2.22289e+07
2.23481e+07
2.24611e+07
2.25655e+07
2.26806e+07
2.28114e+07
2.29364e+07
2.3053e+07
2.31824e+07
2.33284e+07
2.34696e+07
2.3602e+07
2.37451e+07
2.38986e+07
2.40487e+07
2.41892e+07
2.43371e+07
2.44918e+07
2.46422e+07
2.47875e+07
2.49336e+07
2.50803e+07
2.52274e+07
2.53709e+07
2.5513e+07
2.56523e+07
2.57761e+07
2.58945e+07
2.6005e+07
2.61032e+07
2.61864e+07
2.62724e+07
2.63581e+07
2.64243e+07
2.64722e+07
2.65228e+07
2.65745e+07
2.66053e+07
2.66192e+07
2.66319e+07
2.66499e+07
2.66493e+07
2.66297e+07
2.66034e+07
2.65775e+07
2.65334e+07
2.64831e+07
2.64242e+07
2.63584e+07
2.629e+07
2.62264e+07
2.6178e+07
2.61123e+07
2.60381e+07
2.59896e+07
2.59672e+07
2.59297e+07
2.58774e+07
9.88353e+06
1.01355e+07
1.03909e+07
1.0639e+07
1.08791e+07
1.11235e+07
1.13612e+07
1.15907e+07
1.18227e+07
1.20584e+07
1.22859e+07
1.25053e+07
1.27312e+07
1.29498e+07
1.31596e+07
1.33739e+07
1.35932e+07
1.38039e+07
1.40064e+07
1.4217e+07
1.44202e+07
1.46143e+07
1.48139e+07
1.50191e+07
1.52162e+07
1.54049e+07
1.56021e+07
1.57927e+07
1.59744e+07
1.61613e+07
1.63534e+07
1.65388e+07
1.67161e+07
1.68987e+07
1.70849e+07
1.72648e+07
1.74385e+07
1.76171e+07
1.77912e+07
1.79587e+07
1.81284e+07
1.82997e+07
1.84667e+07
1.8628e+07
1.87902e+07
1.89525e+07
1.91108e+07
1.92643e+07
1.94179e+07
1.95704e+07
1.9718e+07
1.98637e+07
2.00081e+07
2.01488e+07
2.02856e+07
2.04214e+07
2.05566e+07
2.06872e+07
2.08133e+07
2.09397e+07
2.10674e+07
2.1189e+07
2.1305e+07
2.14239e+07
2.15471e+07
2.16626e+07
2.17712e+07
2.18865e+07
2.20095e+07
2.21234e+07
2.22288e+07
2.2348e+07
2.24608e+07
2.25651e+07
2.26806e+07
2.28114e+07
2.29365e+07
2.30529e+07
2.31823e+07
2.33284e+07
2.34696e+07
2.36021e+07
2.37451e+07
2.38986e+07
2.40487e+07
2.41891e+07
2.43371e+07
2.44917e+07
2.46422e+07
2.47875e+07
2.49336e+07
2.50803e+07
2.52275e+07
2.53709e+07
2.5513e+07
2.56523e+07
2.57761e+07
2.58945e+07
2.60051e+07
2.61033e+07
2.61864e+07
2.62724e+07
2.63581e+07
2.64243e+07
2.64722e+07
2.65228e+07
2.65746e+07
2.66054e+07
2.66193e+07
2.6632e+07
2.665e+07
2.66494e+07
2.66299e+07
2.66036e+07
2.65777e+07
2.65337e+07
2.64834e+07
2.64246e+07
2.63587e+07
2.62902e+07
2.62265e+07
2.61784e+07
2.61127e+07
2.60385e+07
2.59899e+07
2.59674e+07
2.593e+07
2.58776e+07
9.88356e+06
1.01355e+07
1.03909e+07
1.0639e+07
1.08791e+07
1.11235e+07
1.13612e+07
1.15907e+07
1.18226e+07
1.20584e+07
1.22859e+07
1.25052e+07
1.27312e+07
1.29498e+07
1.31596e+07
1.33739e+07
1.35932e+07
1.3804e+07
1.40064e+07
1.4217e+07
1.44202e+07
1.46143e+07
1.48139e+07
1.50192e+07
1.52162e+07
1.54049e+07
1.56021e+07
1.57927e+07
1.59744e+07
1.61613e+07
1.63535e+07
1.65388e+07
1.67161e+07
1.68987e+07
1.70849e+07
1.72648e+07
1.74384e+07
1.76172e+07
1.77912e+07
1.79587e+07
1.81284e+07
1.82997e+07
1.84667e+07
1.8628e+07
1.87902e+07
1.89525e+07
1.91108e+07
1.92643e+07
1.94179e+07
1.95696e+07
1.97173e+07
1.9863e+07
2.00074e+07
2.01481e+07
2.02849e+07
2.04207e+07
2.0556e+07
2.06866e+07
2.08127e+07
2.09391e+07
2.10669e+07
2.11885e+07
2.13044e+07
2.14233e+07
2.15469e+07
2.16626e+07
2.1771e+07
2.18864e+07
2.20095e+07
2.21234e+07
2.22287e+07
2.2348e+07
2.24607e+07
2.2565e+07
2.26805e+07
2.28114e+07
2.29365e+07
2.30529e+07
2.31823e+07
2.33284e+07
2.34696e+07
2.36021e+07
2.37451e+07
2.38986e+07
2.40487e+07
2.41891e+07
2.43371e+07
2.44918e+07
2.46422e+07
2.47875e+07
2.49336e+07
2.50803e+07
2.52275e+07
2.53709e+07
2.55131e+07
2.56523e+07
2.5776e+07
2.58945e+07
2.60051e+07
2.61033e+07
2.61864e+07
2.62724e+07
2.63581e+07
2.64243e+07
2.64721e+07
2.65228e+07
2.65746e+07
2.66054e+07
2.66194e+07
2.66321e+07
2.66501e+07
2.66496e+07
2.66302e+07
2.66039e+07
2.65779e+07
2.6534e+07
2.64837e+07
2.64249e+07
2.6359e+07
2.62906e+07
2.62269e+07
2.61788e+07
2.61132e+07
2.60388e+07
2.59902e+07
2.59678e+07
2.59304e+07
2.58779e+07
9.88359e+06
1.01355e+07
1.03909e+07
1.06391e+07
1.0879e+07
1.11235e+07
1.13612e+07
1.15907e+07
1.18226e+07
1.20584e+07
1.2286e+07
1.25052e+07
1.27312e+07
1.29498e+07
1.31596e+07
1.33739e+07
1.35932e+07
1.3804e+07
1.40064e+07
1.42171e+07
1.44202e+07
1.46143e+07
1.48139e+07
1.50192e+07
1.52162e+07
1.54049e+07
1.56021e+07
1.57927e+07
1.59744e+07
1.61613e+07
1.63535e+07
1.65388e+07
1.67161e+07
1.68986e+07
1.7085e+07
1.72649e+07
1.74384e+07
1.76172e+07
1.77913e+07
1.79587e+07
1.81284e+07
1.82998e+07
1.84668e+07
1.8628e+07
1.87902e+07
1.89526e+07
1.91108e+07
1.92643e+07
1.94179e+07
1.95691e+07
1.97165e+07
1.98622e+07
2.00067e+07
2.01474e+07
2.02843e+07
2.042e+07
2.05553e+07
2.0686e+07
2.08121e+07
2.09384e+07
2.10665e+07
2.11883e+07
2.1304e+07
2.14229e+07
2.15469e+07
2.16626e+07
2.17709e+07
2.18863e+07
2.20095e+07
2.21234e+07
2.22287e+07
2.23481e+07
2.24607e+07
2.2565e+07
2.26805e+07
2.28115e+07
2.29366e+07
2.30529e+07
2.31823e+07
2.33284e+07
2.34696e+07
2.36021e+07
2.37452e+07
2.38987e+07
2.40487e+07
2.41892e+07
2.43371e+07
2.44918e+07
2.46423e+07
2.47875e+07
2.49337e+07
2.50803e+07
2.52275e+07
2.5371e+07
2.55131e+07
2.56523e+07
2.5776e+07
2.58944e+07
2.60051e+07
2.61033e+07
2.61864e+07
2.62724e+07
2.63581e+07
2.64242e+07
2.64721e+07
2.65228e+07
2.65746e+07
2.66055e+07
2.66194e+07
2.66322e+07
2.66502e+07
2.66497e+07
2.66304e+07
2.66041e+07
2.65782e+07
2.65344e+07
2.64841e+07
2.64253e+07
2.63594e+07
2.6291e+07
2.62272e+07
2.61792e+07
2.61136e+07
2.60393e+07
2.59906e+07
2.59681e+07
2.59308e+07
2.58782e+07
9.88363e+06
1.01355e+07
1.0391e+07
1.06391e+07
1.0879e+07
1.11236e+07
1.13612e+07
1.15907e+07
1.18226e+07
1.20584e+07
1.2286e+07
1.25052e+07
1.27312e+07
1.29498e+07
1.31596e+07
1.33739e+07
1.35933e+07
1.3804e+07
1.40064e+07
1.42171e+07
1.44202e+07
1.46143e+07
1.48139e+07
1.50192e+07
1.52163e+07
1.54049e+07
1.56021e+07
1.57927e+07
1.59744e+07
1.61613e+07
1.63535e+07
1.65388e+07
1.67161e+07
1.68986e+07
1.7085e+07
1.72649e+07
1.74384e+07
1.76172e+07
1.77913e+07
1.79587e+07
1.81284e+07
1.82998e+07
1.84668e+07
1.8628e+07
1.87902e+07
1.89526e+07
1.91108e+07
1.92643e+07
1.94179e+07
1.95689e+07
1.97158e+07
1.98615e+07
2.00059e+07
2.01467e+07
2.02835e+07
2.04193e+07
2.05548e+07
2.06856e+07
2.08116e+07
2.0938e+07
2.10664e+07
2.11883e+07
2.13038e+07
2.14228e+07
2.15469e+07
2.16626e+07
2.17709e+07
2.18863e+07
2.20096e+07
2.21234e+07
2.22287e+07
2.23481e+07
2.24608e+07
2.2565e+07
2.26804e+07
2.28116e+07
2.29366e+07
2.30529e+07
2.31824e+07
2.33284e+07
2.34696e+07
2.36022e+07
2.37452e+07
2.38987e+07
2.40488e+07
2.41892e+07
2.43371e+07
2.44918e+07
2.46423e+07
2.47876e+07
2.49337e+07
2.50804e+07
2.52275e+07
2.5371e+07
2.55132e+07
2.56523e+07
2.5776e+07
2.58944e+07
2.60052e+07
2.61033e+07
2.61864e+07
2.62724e+07
2.63581e+07
2.64242e+07
2.64721e+07
2.65228e+07
2.65747e+07
2.66056e+07
2.66195e+07
2.66323e+07
2.66504e+07
2.66499e+07
2.66306e+07
2.66044e+07
2.65785e+07
2.65347e+07
2.64845e+07
2.64257e+07
2.63599e+07
2.62914e+07
2.62276e+07
2.61797e+07
2.61141e+07
2.60397e+07
2.59909e+07
2.59685e+07
2.59313e+07
2.58786e+07
9.88369e+06
1.01355e+07
1.0391e+07
1.06391e+07
1.08791e+07
1.11236e+07
1.13613e+07
1.15907e+07
1.18226e+07
1.20584e+07
1.2286e+07
1.25052e+07
1.27312e+07
1.29499e+07
1.31596e+07
1.33739e+07
1.35933e+07
1.38041e+07
1.40064e+07
1.42171e+07
1.44203e+07
1.46143e+07
1.48139e+07
1.50193e+07
1.52163e+07
1.54049e+07
1.56021e+07
1.57928e+07
1.59744e+07
1.61613e+07
1.63535e+07
1.65389e+07
1.67161e+07
1.68987e+07
1.7085e+07
1.72649e+07
1.74384e+07
1.76172e+07
1.77913e+07
1.79587e+07
1.81284e+07
1.82998e+07
1.84668e+07
1.86281e+07
1.87902e+07
1.89526e+07
1.91109e+07
1.92643e+07
1.94179e+07
1.95688e+07
1.97154e+07
1.98608e+07
2.00054e+07
2.01463e+07
2.0283e+07
2.04188e+07
2.05546e+07
2.06855e+07
2.08114e+07
2.09377e+07
2.10664e+07
2.11883e+07
2.13038e+07
2.14227e+07
2.15469e+07
2.16626e+07
2.17709e+07
2.18863e+07
2.20096e+07
2.21235e+07
2.22287e+07
2.23482e+07
2.24609e+07
2.2565e+07
2.26804e+07
2.28116e+07
2.29367e+07
2.30529e+07
2.31825e+07
2.33284e+07
2.34697e+07
2.36023e+07
2.37453e+07
2.38988e+07
2.40488e+07
2.41893e+07
2.43371e+07
2.44919e+07
2.46424e+07
2.47876e+07
2.49337e+07
2.50804e+07
2.52276e+07
2.53711e+07
2.55132e+07
2.56523e+07
2.57759e+07
2.58943e+07
2.60052e+07
2.61033e+07
2.61864e+07
2.62723e+07
2.63581e+07
2.64242e+07
2.6472e+07
2.65228e+07
2.65747e+07
2.66056e+07
2.66196e+07
2.66324e+07
2.66505e+07
2.665e+07
2.66308e+07
2.66047e+07
2.65787e+07
2.65351e+07
2.64849e+07
2.64262e+07
2.63603e+07
2.62918e+07
2.62281e+07
2.61802e+07
2.61147e+07
2.60402e+07
2.59914e+07
2.59689e+07
2.59317e+07
2.58789e+07
9.88373e+06
1.01355e+07
1.0391e+07
1.06392e+07
1.0879e+07
1.11236e+07
1.13613e+07
1.15907e+07
1.18226e+07
1.20584e+07
1.22861e+07
1.25052e+07
1.27312e+07
1.29499e+07
1.31596e+07
1.33738e+07
1.35933e+07
1.38041e+07
1.40063e+07
1.42171e+07
1.44203e+07
1.46143e+07
1.48138e+07
1.50192e+07
1.52163e+07
1.54048e+07
1.56021e+07
1.57928e+07
1.59744e+07
1.61612e+07
1.63535e+07
1.65389e+07
1.67161e+07
1.68986e+07
1.7085e+07
1.72649e+07
1.74384e+07
1.76172e+07
1.77914e+07
1.79587e+07
1.81284e+07
1.82999e+07
1.84669e+07
1.86281e+07
1.87902e+07
1.89527e+07
1.91109e+07
1.92643e+07
1.94179e+07
1.95688e+07
1.97152e+07
1.98603e+07
2.00049e+07
2.0146e+07
2.02827e+07
2.04183e+07
2.05543e+07
2.06854e+07
2.08112e+07
2.09375e+07
2.10663e+07
2.11882e+07
2.13037e+07
2.14226e+07
2.15469e+07
2.16626e+07
2.17709e+07
2.18862e+07
2.20096e+07
2.21235e+07
2.22286e+07
2.23482e+07
2.24609e+07
2.2565e+07
2.26804e+07
2.28117e+07
2.29368e+07
2.30529e+07
2.31825e+07
2.33285e+07
2.34697e+07
2.36023e+07
2.37453e+07
2.38988e+07
2.40489e+07
2.41893e+07
2.43372e+07
2.44919e+07
2.46425e+07
2.47877e+07
2.49338e+07
2.50805e+07
2.52277e+07
2.53712e+07
2.55133e+07
2.56523e+07
2.5776e+07
2.58944e+07
2.60053e+07
2.61034e+07
2.61864e+07
2.62724e+07
2.63582e+07
2.64242e+07
2.64721e+07
2.65229e+07
2.65748e+07
2.66058e+07
2.66197e+07
2.66325e+07
2.66507e+07
2.66503e+07
2.66311e+07
2.6605e+07
2.65791e+07
2.65355e+07
2.64853e+07
2.64266e+07
2.63608e+07
2.62923e+07
2.62285e+07
2.61806e+07
2.61152e+07
2.60406e+07
2.59917e+07
2.59693e+07
2.59321e+07
2.58792e+07
9.8838e+06
1.01355e+07
1.0391e+07
1.06392e+07
1.08791e+07
1.11236e+07
1.13613e+07
1.15907e+07
1.18226e+07
1.20585e+07
1.22861e+07
1.25052e+07
1.27312e+07
1.295e+07
1.31596e+07
1.33738e+07
1.35934e+07
1.38042e+07
1.40063e+07
1.42171e+07
1.44204e+07
1.46143e+07
1.48138e+07
1.50193e+07
1.52164e+07
1.54048e+07
1.56021e+07
1.57928e+07
1.59744e+07
1.61612e+07
1.63535e+07
1.65389e+07
1.67161e+07
1.68986e+07
1.70851e+07
1.7265e+07
1.74384e+07
1.76173e+07
1.77914e+07
1.79588e+07
1.81284e+07
1.82999e+07
1.84669e+07
1.86281e+07
1.87903e+07
1.89527e+07
1.9111e+07
1.92643e+07
1.9418e+07
1.95688e+07
1.97152e+07
1.98601e+07
2.00047e+07
2.01459e+07
2.02825e+07
2.04181e+07
2.05543e+07
2.06854e+07
2.08111e+07
2.09374e+07
2.10663e+07
2.11882e+07
2.13037e+07
2.14226e+07
2.15469e+07
2.16626e+07
2.17709e+07
2.18862e+07
2.20097e+07
2.21236e+07
2.22286e+07
2.23482e+07
2.24609e+07
2.2565e+07
2.26804e+07
2.28118e+07
2.29369e+07
2.3053e+07
2.31827e+07
2.33285e+07
2.34698e+07
2.36024e+07
2.37454e+07
2.38989e+07
2.4049e+07
2.41894e+07
2.43373e+07
2.4492e+07
2.46426e+07
2.47878e+07
2.49339e+07
2.50806e+07
2.52278e+07
2.53713e+07
2.55135e+07
2.56524e+07
2.5776e+07
2.58944e+07
2.60054e+07
2.61035e+07
2.61865e+07
2.62724e+07
2.63582e+07
2.64243e+07
2.64721e+07
2.65229e+07
2.65749e+07
2.66059e+07
2.66199e+07
2.66327e+07
2.66509e+07
2.66505e+07
2.66314e+07
2.66054e+07
2.65794e+07
2.65359e+07
2.64857e+07
2.64271e+07
2.63613e+07
2.62928e+07
2.62289e+07
2.61812e+07
2.61157e+07
2.60411e+07
2.59921e+07
2.59697e+07
2.59326e+07
2.58796e+07
9.88389e+06
1.01356e+07
1.03911e+07
1.06393e+07
1.08791e+07
1.11236e+07
1.13614e+07
1.15907e+07
1.18226e+07
1.20585e+07
1.22862e+07
1.25052e+07
1.27313e+07
1.295e+07
1.31596e+07
1.33739e+07
1.35934e+07
1.38042e+07
1.40064e+07
1.42171e+07
1.44204e+07
1.46143e+07
1.48138e+07
1.50193e+07
1.52165e+07
1.54049e+07
1.56021e+07
1.57929e+07
1.59744e+07
1.61612e+07
1.63536e+07
1.6539e+07
1.67161e+07
1.68986e+07
1.70851e+07
1.72651e+07
1.74384e+07
1.76173e+07
1.77915e+07
1.79588e+07
1.81285e+07
1.83e+07
1.8467e+07
1.86282e+07
1.87903e+07
1.89528e+07
1.9111e+07
1.92644e+07
1.9418e+07
1.95688e+07
1.97152e+07
1.986e+07
2.00046e+07
2.01459e+07
2.02825e+07
2.04181e+07
2.05542e+07
2.06854e+07
2.08111e+07
2.09374e+07
2.10663e+07
2.11883e+07
2.13037e+07
2.14226e+07
2.1547e+07
2.16627e+07
2.17709e+07
2.18862e+07
2.20098e+07
2.21237e+07
2.22287e+07
2.23483e+07
2.2461e+07
2.2565e+07
2.26804e+07
2.28119e+07
2.2937e+07
2.30531e+07
2.31828e+07
2.33286e+07
2.34699e+07
2.36025e+07
2.37455e+07
2.38991e+07
2.40491e+07
2.41895e+07
2.43374e+07
2.44921e+07
2.46427e+07
2.47879e+07
2.4934e+07
2.50808e+07
2.52279e+07
2.53714e+07
2.55136e+07
2.56524e+07
2.5776e+07
2.58944e+07
2.60055e+07
2.61036e+07
2.61865e+07
2.62725e+07
2.63583e+07
2.64243e+07
2.64722e+07
2.6523e+07
2.6575e+07
2.66061e+07
2.66201e+07
2.66329e+07
2.66511e+07
2.66508e+07
2.66318e+07
2.66058e+07
2.65798e+07
2.65363e+07
2.64862e+07
2.64276e+07
2.63619e+07
2.62933e+07
2.62294e+07
2.61817e+07
2.61163e+07
2.60417e+07
2.59926e+07
2.59702e+07
2.59331e+07
2.588e+07
9.88399e+06
1.01356e+07
1.03912e+07
1.06394e+07
1.08792e+07
1.11237e+07
1.13615e+07
1.15908e+07
1.18226e+07
1.20586e+07
1.22863e+07
1.25052e+07
1.27313e+07
1.29501e+07
1.31597e+07
1.33739e+07
1.35935e+07
1.38043e+07
1.40064e+07
1.42172e+07
1.44205e+07
1.46144e+07
1.48139e+07
1.50194e+07
1.52166e+07
1.54049e+07
1.56022e+07
1.57929e+07
1.59745e+07
1.61613e+07
1.63537e+07
1.65391e+07
1.67162e+07
1.68987e+07
1.70852e+07
1.72651e+07
1.74385e+07
1.76174e+07
1.77916e+07
1.79589e+07
1.81285e+07
1.83e+07
1.84671e+07
1.86282e+07
1.87903e+07
1.89528e+07
1.91111e+07
1.92644e+07
1.9418e+07
1.95688e+07
1.97151e+07
1.986e+07
2.00046e+07
2.01459e+07
2.02825e+07
2.0418e+07
2.05542e+07
2.06854e+07
2.08111e+07
2.09374e+07
2.10664e+07
2.11883e+07
2.13037e+07
2.14226e+07
2.1547e+07
2.16628e+07
2.17709e+07
2.18862e+07
2.20099e+07
2.21237e+07
2.22287e+07
2.23484e+07
2.24611e+07
2.25651e+07
2.26804e+07
2.2812e+07
2.29371e+07
2.30532e+07
2.31829e+07
2.33287e+07
2.347e+07
2.36027e+07
2.37456e+07
2.38992e+07
2.40493e+07
2.41897e+07
2.43375e+07
2.44923e+07
2.46429e+07
2.4788e+07
2.49342e+07
2.50809e+07
2.5228e+07
2.53716e+07
2.55138e+07
2.56525e+07
2.5776e+07
2.58944e+07
2.60056e+07
2.61037e+07
2.61866e+07
2.62725e+07
2.63583e+07
2.64244e+07
2.64723e+07
2.65231e+07
2.65751e+07
2.66063e+07
2.66202e+07
2.66331e+07
2.66513e+07
2.6651e+07
2.66321e+07
2.66062e+07
2.65802e+07
2.65368e+07
2.64868e+07
2.64282e+07
2.63624e+07
2.62939e+07
2.623e+07
2.61823e+07
2.6117e+07
2.60423e+07
2.59931e+07
2.59707e+07
2.59337e+07
2.58804e+07
9.88412e+06
1.01357e+07
1.03912e+07
1.06395e+07
1.08792e+07
1.11238e+07
1.13616e+07
1.15909e+07
1.18227e+07
1.20587e+07
1.22864e+07
1.25053e+07
1.27314e+07
1.29502e+07
1.31597e+07
1.33739e+07
1.35936e+07
1.38044e+07
1.40065e+07
1.42173e+07
1.44206e+07
1.46144e+07
1.48139e+07
1.50195e+07
1.52166e+07
1.5405e+07
1.56023e+07
1.5793e+07
1.59745e+07
1.61613e+07
1.63537e+07
1.65392e+07
1.67162e+07
1.68987e+07
1.70853e+07
1.72652e+07
1.74385e+07
1.76174e+07
1.77917e+07
1.79589e+07
1.81286e+07
1.83001e+07
1.84672e+07
1.86283e+07
1.87904e+07
1.89529e+07
1.91112e+07
1.92645e+07
1.94181e+07
1.95688e+07
1.97151e+07
1.986e+07
2.00046e+07
2.01459e+07
2.02825e+07
2.0418e+07
2.05543e+07
2.06855e+07
2.08111e+07
2.09374e+07
2.10664e+07
2.11884e+07
2.13038e+07
2.14226e+07
2.15471e+07
2.16628e+07
2.1771e+07
2.18863e+07
2.201e+07
2.21239e+07
2.22287e+07
2.23485e+07
2.24613e+07
2.25651e+07
2.26804e+07
2.28122e+07
2.29372e+07
2.30534e+07
2.31831e+07
2.33288e+07
2.34702e+07
2.36028e+07
2.37458e+07
2.38994e+07
2.40495e+07
2.41898e+07
2.43377e+07
2.44925e+07
2.46431e+07
2.47882e+07
2.49344e+07
2.50811e+07
2.52282e+07
2.53718e+07
2.55139e+07
2.56525e+07
2.5776e+07
2.58944e+07
2.60057e+07
2.61039e+07
2.61867e+07
2.62726e+07
2.63584e+07
2.64245e+07
2.64724e+07
2.65233e+07
2.65753e+07
2.66065e+07
2.66204e+07
2.66334e+07
2.66516e+07
2.66513e+07
2.66325e+07
2.66066e+07
2.65807e+07
2.65373e+07
2.64873e+07
2.64288e+07
2.6363e+07
2.62945e+07
2.62305e+07
2.6183e+07
2.61177e+07
2.60429e+07
2.59936e+07
2.59712e+07
2.59342e+07
2.58808e+07
9.88425e+06
1.01358e+07
1.03913e+07
1.06396e+07
1.08793e+07
1.11238e+07
1.13617e+07
1.1591e+07
1.18227e+07
1.20587e+07
1.22865e+07
1.25053e+07
1.27314e+07
1.29503e+07
1.31598e+07
1.3374e+07
1.35937e+07
1.38045e+07
1.40065e+07
1.42173e+07
1.44207e+07
1.46145e+07
1.4814e+07
1.50196e+07
1.52168e+07
1.5405e+07
1.56023e+07
1.57931e+07
1.59746e+07
1.61613e+07
1.63538e+07
1.65393e+07
1.67163e+07
1.68988e+07
1.70854e+07
1.72653e+07
1.74386e+07
1.76175e+07
1.77918e+07
1.7959e+07
1.81286e+07
1.83002e+07
1.84673e+07
1.86284e+07
1.87905e+07
1.8953e+07
1.91113e+07
1.92646e+07
1.94182e+07
1.95689e+07
1.97152e+07
1.986e+07
2.00046e+07
2.0146e+07
2.02825e+07
2.0418e+07
2.05543e+07
2.06856e+07
2.08112e+07
2.09374e+07
2.10665e+07
2.11885e+07
2.13039e+07
2.14227e+07
2.15472e+07
2.16629e+07
2.1771e+07
2.18863e+07
2.20101e+07
2.2124e+07
2.22288e+07
2.23487e+07
2.24614e+07
2.25652e+07
2.26804e+07
2.28123e+07
2.29373e+07
2.30536e+07
2.31833e+07
2.3329e+07
2.34704e+07
2.3603e+07
2.3746e+07
2.38996e+07
2.40497e+07
2.419e+07
2.43379e+07
2.44927e+07
2.46433e+07
2.47884e+07
2.49346e+07
2.50814e+07
2.52284e+07
2.5372e+07
2.55141e+07
2.56527e+07
2.57761e+07
2.58945e+07
2.60059e+07
2.6104e+07
2.61868e+07
2.62727e+07
2.63586e+07
2.64247e+07
2.64725e+07
2.65235e+07
2.65755e+07
2.66067e+07
2.66207e+07
2.66337e+07
2.66519e+07
2.66517e+07
2.66329e+07
2.66071e+07
2.65812e+07
2.65378e+07
2.64879e+07
2.64294e+07
2.63637e+07
2.62951e+07
2.62312e+07
2.61836e+07
2.61184e+07
2.60435e+07
2.59941e+07
2.59718e+07
2.59348e+07
2.58813e+07
9.8844e+06
1.01359e+07
1.03914e+07
1.06398e+07
1.08794e+07
1.11239e+07
1.13618e+07
1.15911e+07
1.18228e+07
1.20588e+07
1.22866e+07
1.25054e+07
1.27315e+07
1.29504e+07
1.31599e+07
1.3374e+07
1.35938e+07
1.38046e+07
1.40066e+07
1.42174e+07
1.44208e+07
1.46146e+07
1.4814e+07
1.50197e+07
1.52169e+07
1.54051e+07
1.56024e+07
1.57932e+07
1.59747e+07
1.61614e+07
1.63539e+07
1.65394e+07
1.67164e+07
1.68988e+07
1.70855e+07
1.72654e+07
1.74387e+07
1.76176e+07
1.77919e+07
1.79591e+07
1.81287e+07
1.83003e+07
1.84674e+07
1.86285e+07
1.87906e+07
1.89531e+07
1.91114e+07
1.92647e+07
1.94183e+07
1.9569e+07
1.97153e+07
1.986e+07
2.00047e+07
2.0146e+07
2.02826e+07
2.04181e+07
2.05544e+07
2.06856e+07
2.08113e+07
2.09375e+07
2.10666e+07
2.11886e+07
2.1304e+07
2.14228e+07
2.15473e+07
2.1663e+07
2.17711e+07
2.18864e+07
2.20102e+07
2.21241e+07
2.22289e+07
2.23488e+07
2.24616e+07
2.25652e+07
2.26805e+07
2.28125e+07
2.29374e+07
2.30538e+07
2.31835e+07
2.33292e+07
2.34706e+07
2.36032e+07
2.37462e+07
2.38998e+07
2.40499e+07
2.41903e+07
2.43381e+07
2.44929e+07
2.46436e+07
2.47886e+07
2.49348e+07
2.50816e+07
2.52287e+07
2.53723e+07
2.55144e+07
2.56527e+07
2.57761e+07
2.58945e+07
2.60061e+07
2.61042e+07
2.61869e+07
2.62729e+07
2.63588e+07
2.64249e+07
2.64727e+07
2.65236e+07
2.65757e+07
2.6607e+07
2.6621e+07
2.6634e+07
2.66522e+07
2.6652e+07
2.66333e+07
2.66077e+07
2.65817e+07
2.65384e+07
2.64885e+07
2.64301e+07
2.63644e+07
2.62958e+07
2.62318e+07
2.61843e+07
2.61191e+07
2.60442e+07
2.59947e+07
2.59724e+07
2.59355e+07
2.58818e+07
9.88455e+06
1.0136e+07
1.03915e+07
1.06399e+07
1.08795e+07
1.1124e+07
1.13619e+07
1.15911e+07
1.18228e+07
1.20589e+07
1.22866e+07
1.25055e+07
1.27316e+07
1.29505e+07
1.316e+07
1.33741e+07
1.35938e+07
1.38047e+07
1.40067e+07
1.42175e+07
1.44209e+07
1.46147e+07
1.48141e+07
1.50198e+07
1.52169e+07
1.54052e+07
1.56024e+07
1.57933e+07
1.59747e+07
1.61614e+07
1.63539e+07
1.65394e+07
1.67164e+07
1.68989e+07
1.70855e+07
1.72655e+07
1.74387e+07
1.76177e+07
1.7792e+07
1.79592e+07
1.81288e+07
1.83004e+07
1.84675e+07
1.86286e+07
1.87907e+07
1.89533e+07
1.91115e+07
1.92648e+07
1.94184e+07
1.9569e+07
1.97153e+07
1.98601e+07
2.00048e+07
2.01461e+07
2.02826e+07
2.04181e+07
2.05545e+07
2.06857e+07
2.08114e+07
2.09376e+07
2.10667e+07
2.11887e+07
2.1304e+07
2.14229e+07
2.15474e+07
2.16631e+07
2.17712e+07
2.18865e+07
2.20103e+07
2.21242e+07
2.22289e+07
2.23489e+07
2.24617e+07
2.25653e+07
2.26806e+07
2.28126e+07
2.29376e+07
2.3054e+07
2.31837e+07
2.33294e+07
2.34708e+07
2.36034e+07
2.37464e+07
2.39e+07
2.40501e+07
2.41905e+07
2.43383e+07
2.44931e+07
2.46438e+07
2.47889e+07
2.49351e+07
2.50819e+07
2.5229e+07
2.53726e+07
2.55147e+07
2.56529e+07
2.57763e+07
2.58947e+07
2.60063e+07
2.61044e+07
2.61871e+07
2.62731e+07
2.6359e+07
2.64251e+07
2.64729e+07
2.65239e+07
2.6576e+07
2.66073e+07
2.66213e+07
2.66344e+07
2.66526e+07
2.66525e+07
2.66339e+07
2.66083e+07
2.65823e+07
2.6539e+07
2.64892e+07
2.64308e+07
2.63651e+07
2.62965e+07
2.62325e+07
2.6185e+07
2.61199e+07
2.60449e+07
2.59953e+07
2.59729e+07
2.59361e+07
2.58822e+07
9.88476e+06
1.01362e+07
1.03917e+07
1.06401e+07
1.08797e+07
1.11241e+07
1.1362e+07
1.15913e+07
1.1823e+07
1.2059e+07
1.22868e+07
1.25056e+07
1.27317e+07
1.29506e+07
1.31601e+07
1.33742e+07
1.3594e+07
1.38049e+07
1.40068e+07
1.42176e+07
1.4421e+07
1.46148e+07
1.48142e+07
1.50199e+07
1.52171e+07
1.54053e+07
1.56025e+07
1.57934e+07
1.59748e+07
1.61615e+07
1.63541e+07
1.65396e+07
1.67166e+07
1.6899e+07
1.70857e+07
1.72656e+07
1.74389e+07
1.76178e+07
1.77921e+07
1.79593e+07
1.81289e+07
1.83005e+07
1.84677e+07
1.86287e+07
1.87908e+07
1.89534e+07
1.91117e+07
1.92649e+07
1.94185e+07
1.95692e+07
1.97154e+07
1.98602e+07
2.00049e+07
2.01462e+07
2.02827e+07
2.04182e+07
2.05546e+07
2.06858e+07
2.08115e+07
2.09377e+07
2.10668e+07
2.11888e+07
2.13042e+07
2.1423e+07
2.15476e+07
2.16633e+07
2.17713e+07
2.18866e+07
2.20105e+07
2.21244e+07
2.2229e+07
2.23491e+07
2.24619e+07
2.25654e+07
2.26808e+07
2.28128e+07
2.29378e+07
2.30543e+07
2.31839e+07
2.33297e+07
2.34711e+07
2.36037e+07
2.37467e+07
2.39004e+07
2.40505e+07
2.41908e+07
2.43387e+07
2.44935e+07
2.46442e+07
2.47892e+07
2.49354e+07
2.50823e+07
2.52293e+07
2.53729e+07
2.55149e+07
2.5653e+07
2.57764e+07
2.58947e+07
2.60064e+07
2.61046e+07
2.61872e+07
2.62732e+07
2.63591e+07
2.64252e+07
2.6473e+07
2.65239e+07
2.65761e+07
2.66075e+07
2.66215e+07
2.66346e+07
2.66529e+07
2.66528e+07
2.66343e+07
2.66088e+07
2.65828e+07
2.65397e+07
2.649e+07
2.64316e+07
2.6366e+07
2.62973e+07
2.62334e+07
2.6186e+07
2.61208e+07
2.60458e+07
2.59961e+07
2.59738e+07
2.59369e+07
2.58829e+07
9.88498e+06
1.01363e+07
1.03919e+07
1.06403e+07
1.08798e+07
1.11242e+07
1.13622e+07
1.15914e+07
1.18231e+07
1.20592e+07
1.22869e+07
1.25057e+07
1.27318e+07
1.29508e+07
1.31603e+07
1.33743e+07
1.35941e+07
1.3805e+07