/*--------------------------------*- C++ -*----------------------------------*\
| =========                 |                                                 |
| \\      /  F ield         | OpenFOAM: The Open Source CFD Toolbox           |
|  \\    /   O peration     | Version:  v2012                                 |
|   \\  /    A nd           | Website:  www.openfoam.com                      |
|    \\/     M anipulation  |                                                 |
\*---------------------------------------------------------------------------*/
FoamFile
{
    version     2.0;
    format      ascii;
    class       volScalarField;
    location    "1e-06";
    object      totalP;
}
// * * * * * * * * * * * * * * * * * * * * * * * * * * * * * * * * * * * * * //

dimensions      [1 -1 -2 0 0 0 0];


internalField   nonuniform List<scalar> 
10123
(
239554
237221
237399
236449
234320
234744
234101
232424
231789
232504
232120
229968
231379
231223
229672
229477
230790
230741
228756
230697
230865
229447
229584
231198
231412
229621
231728
232101
230941
231269
232834
233261
232172
232748
234108
234442
233513
235012
235575
235019
235543
236583
237120
236823
237390
238274
238776
238671
239433
240229
240333
240788
241594
242165
242374
242809
243872
244428
244454
244920
246469
247052
246761
247336
249474
250091
249408
250185
252729
253457
251670
254933
255985
254887
255385
258441
259505
258257
258972
261934
263151
262108
263174
265443
266905
265957
267043
269022
269897
270049
270952
271840
273077
273566
274423
276300
275837
276834
278047
278997
277752
278850
281478
281944
280468
281480
284484
284715
283907
284125
287539
288242
288017
288305
291308
291029
292572
293639
294445
295003
294958
300022
300464
298492
299985
305670
306918
304334
239922
237553
237754
236810
234582
235040
234452
232688
232028
232789
232385
230411
231606
231476
229856
229658
231003
230928
229077
230855
231042
229572
229706
231340
231540
229837
231825
232218
231022
231340
232918
233341
232227
232807
234179
234499
233558
235063
235633
235060
235580
236629
237164
236855
237426
238318
238816
238746
239466
240262
240357
240806
241619
242192
242392
242823
243892
244450
244466
244930
246481
247066
246767
247338
249477
250096
249409
250178
252723
253455
251671
254918
255976
254878
255373
258426
259500
258254
258970
261932
263154
262112
263173
265445
266914
265968
267051
269032
269913
270065
270972
271861
273096
273586
274439
276312
275848
276846
278067
279018
277770
278863
281489
281955
280477
281484
284488
284721
283911
284127
287541
288243
288018
288305
291308
291029
292568
293636
294442
295002
294957
300021
300466
298495
299991
305682
306930
304346
240337
237933
238124
237184
234935
235370
234780
233002
232321
233066
232658
230575
231857
231717
230083
229867
231198
231119
229192
231026
231207
229726
229846
231468
231665
229909
231937
232326
231121
231427
232998
233424
232305
232872
234242
234565
233616
235114
235687
235111
235624
236670
237209
236898
237464
238357
238855
238769
239506
240303
240403
240845
241655
242231
242431
242856
243922
244484
244498
244954
246503
247090
246789
247352
249488
250110
249420
250177
252726
253458
251667
254919
255976
254876
255366
258412
259493
258247
258957
261915
263147
262105
263160
265433
266911
265965
267043
269026
269913
270067
270968
271855
273096
273586
274436
276330
275865
276858
278061
279019
277772
278855
281483
281956
280479
281476
284486
284722
283912
284128
287540
288244
288019
288304
291309
291029
292564
293633
294440
295002
294957
300020
300468
298499
299986
305693
306930
304361
240391
238040
238162
237232
234998
235410
234816
233039
232364
233097
232694
230665
231881
231746
230110
229892
231218
231141
229249
231039
231225
229742
229859
231479
231680
229947
231941
232339
231129
231435
233005
233433
232316
232874
234249
234571
233625
235116
235692
235114
235626
236671
237213
236904
237464
238357
238859
238777
239507
240301
240403
240844
241653
242231
242429
242852
243919
244484
244498
244949
246499
247091
246789
247346
249489
250110
249419
250168
252727
253459
251662
254919
255974
254873
255358
258412
259491
258245
258951
261915
263148
262102
263152
265435
266912
265966
267047
269028
269915
270069
270975
271861
273100
273591
274446
276332
275867
276857
278073
279028
277775
278857
281487
281959
280480
281477
284487
284723
283913
284129
287541
288244
288019
288303
291310
291029
292563
293630
294438
295002
294956
300020
300467
298499
299977
305681
306947
304364
240619
238228
238368
237444
235178
235592
234999
233206
232516
233247
232846
230785
232010
231875
230225
229997
231319
231242
229327
231124
231310
229815
229924
231542
231744
229994
231989
232393
231172
231471
233044
233470
232346
232898
234277
234599
233644
235140
235715
235134
235641
236689
237231
236918
237478
238374
238875
238790
239524
240310
240417
240853
241662
242243
242439
242858
243928
244493
244504
244950
246505
247096
246790
247340
249490
250111
249415
250157
252725
253457
251651
254916
255968
254868
255347
258408
259486
258241
258943
261911
263150
262101
263146
265434
266918
265973
267048
269032
269926
270080
270984
271870
273110
273603
274454
276346
275879
276864
278078
279037
277782
278855
281488
281963
280482
281471
284486
284724
283912
284127
287534
288242
288018
288300
291309
291027
292559
293627
294438
295003
294957
300024
300472
298505
299986
305694
306961
304380
240744
238329
238476
237555
235271
235686
235095
233293
232592
233323
232923
230827
232072
231939
230278
230043
231366
231289
229348
231158
231347
229843
229947
231565
231768
230002
232001
232412
231183
231478
233052
233481
232352
232899
234282
234606
233645
235140
235720
235135
235640
236689
237234
236920
237477
238374
238879
238788
239529
240308
240420
240851
241660
242244
242438
242852
243924
244493
244501
244940
246497
247093
246784
247326
249479
250105
249407
250138
252712
253448
251635
254900
255957
254857
255335
258391
259477
258233
258931
261898
263150
262096
263138
265429
266922
265978
267049
269035
269936
270091
270992
271881
273125
273618
274467
276361
275894
276879
278093
279052
277794
278868
281498
281974
280490
281479
284492
284731
283917
284131
287536
288245
288020
288301
291310
291027
292554
293623
294435
295003
294955
300021
300474
298508
299978
305691
306971
304390
240766
238355
238491
237581
235287
235701
235111
233307
232604
233335
232939
230842
232079
231951
230284
230047
231372
231297
229350
231159
231353
229843
229944
231565
231772
230002
231996
232417
231179
231472
233051
233482
232349
232892
234283
234606
233639
235141
235720
235132
235635
236685
237234
236917
237472
238371
238878
238784
239530
240301
240420
240846
241656
242244
242435
242845
243920
244492
244498
244931
246497
247092
246779
247315
249479
250104
249400
250125
252711
253447
251624
254900
255953
254853
255326
258390
259473
258229
258921
261899
263152
262091
263129
265431
266922
265978
267045
269037
269938
270090
270993
271883
273123
273617
274473
276364
275894
276873
278097
279055
277794
278869
281500
281976
280490
281480
284493
284732
283917
284132
287536
288245
288020
288302
291309
291027
292551
293619
294432
295002
294953
300022
300474
298508
299966
305688
306974
304390
240818
238389
238533
237628
235317
235736
235148
233337
232626
233363
232967
230854
232098
231974
230297
230056
231385
231311
229352
231164
231363
229844
229942
231566
231776
229994
231991
232420
231173
231463
233050
233480
232341
232880
234280
234602
233628
235137
235716
235124
235625
236678
237229
236910
237463
238366
238874
238776
239528
240290
240416
240836
241647
242240
242427
242833
243915
244488
244490
244916
246492
247087
246770
247299
249473
250096
249390
250106
252706
253441
251606
254895
255944
254845
255315
258387
259466
258223
258909
261901
263155
262090
263122
265427
266928
265984
267045
269040
269949
270099
271001
271892
273133
273630
274486
276376
275905
276881
278109
279067
277802
278878
281508
281983
280495
281485
284497
284736
283918
284134
287538
288245
288021
288303
291308
291027
292546
293616
294431
295003
294953
300024
300478
298512
299960
305689
306986
304400
240826
238388
238536
237635
235314
235738
235153
233338
232623
233364
232971
230839
232097
231977
230292
230049
231383
231312
229336
231159
231363
229836
229932
231561
231774
229978
231981
232419
231164
231451
233047
233477
232332
232868
234277
234599
233616
235135
235713
235117
235616
236672
237226
236903
237455
238363
238871
238767
239528
240282
240414
240828
241641
242239
242422
242823
243914
244487
244484
244905
246492
247085
246763
247286
249472
250093
249381
250091
252705
253439
251590
254896
255939
254840
255305
258387
259462
258219
258897
261903
263157
262085
263113
265429
266929
265983
267040
269043
269952
270098
271001
271896
273134
273629
274492
276380
275907
276884
278114
279071
277803
278881
281511
281986
280495
281488
284499
284739
283918
284136
287539
288245
288021
288305
291306
291027
292543
293611
294428
295002
294951
300022
300478
298511
299947
305681
306989
304398
240834
238381
238536
237643
235305
235736
235154
233334
232612
233360
232972
230824
232088
231973
230279
230032
231372
231304
229315
231143
231353
229818
229910
231548
231762
229957
231960
232407
231144
231428
233032
233463
232313
232844
234263
234585
233595
235121
235700
235099
235597
236659
237213
236888
237437
238350
238859
238753
239518
240264
240402
240811
241625
242229
242408
242804
243903
244477
244471
244884
246481
247074
246748
247264
249463
250083
249367
250069
252697
253432
251572
254890
255930
254833
255295
258384
259456
258215
258885
261906
263162
262086
263107
265437
266937
265992
267041
269047
269965
270110
271009
271904
273143
273641
274506
276391
275918
276888
278127
279081
277809
278878
281515
281992
280498
281481
284499
284742
283918
284135
287532
288244
288021
288306
291303
291028
292539
293609
294430
295004
294952
300028
300485
298518
299955
305693
307007
304412
240812
238350
238506
237623
235272
235707
235132
233306
232578
233330
232948
230787
232055
231946
230246
229995
231340
231275
229278
231108
231324
229783
229872
231515
231734
229922
231924
232381
231110
231394
233001
233437
232285
232809
234236
234561
233568
235093
235678
235075
235571
236635
237194
236868
237414
238330
238842
238734
239505
240242
240385
240791
241605
242216
242390
242782
243884
244463
244453
244859
246462
247058
246730
247236
249442
250067
249351
250040
252677
253420
251549
254869
255914
254819
255281
258364
259446
258204
258872
261892
263161
262082
263098
265431
266942
265997
267041
269050
269976
270119
271015
271916
273157
273657
274520
276408
275934
276904
278142
279099
277822
278890
281527
282006
280508
281489
284507
284752
283924
284142
287537
288247
288024
288310
291303
291029
292534
293604
294427
295003
294949
300025
300487
298519
299943
305686
307017
304418
240796
238320
238485
237609
235242
235685
235117
233286
232551
233312
232934
230758
232035
231932
230223
229970
231323
231261
229249
231088
231311
229761
229847
231498
231721
229896
231903
232370
231090
231371
232985
233425
232265
232789
234225
234551
233548
235080
235670
235061
235556
236623
237186
236855
237401
238320
238834
238721
239500
240230
240377
240778
241595
242211
242380
242767
243879
244457
244442
244842
246458
247052
246719
247219
249439
250060
249339
250022
252674
253415
251530
254868
255906
254812
255272
258349
259442
258193
258860
261894
263162
262077
263088
265434
266942
265996
267036
269053
269980
270119
271018
271921
273156
273657
274528
276411
275937
276898
278151
279105
277824
278894
281532
282010
280510
281491
284510
284756
283924
284144
287538
288247
288024
288312
291299
291029
292530
293600
294423
295003
294945
300022
300487
298518
299928
305679
307021
304415
240752
238268
238435
237567
235192
235638
235076
233243
232504
233268
232897
230708
231991
231894
230181
229924
231284
231226
229203
231048
231277
229722
229805
231461
231690
229856
231865
232341
231055
231334
232953
233398
232235
232753
234200
234527
233517
235053
235648
235035
235529
236598
237165
236833
237376
238300
238816
238700
239485
240206
240359
240755
241573
242196
242361
242742
243864
244442
244424
244817
246445
247037
246701
247193
249428
250047
249324
249997
252667
253407
251507
254865
255894
254803
255263
258332
259439
258183
258849
261894
263166
262077
263081
265431
266950
266004
267037
269057
269994
270129
271026
271937
273166
273673
274542
276424
275950
276904
278164
279119
277833
278905
281543
282020
280516
281500
284517
284763
283927
284149
287541
288248
288026
288315
291297
291030
292525
293596
294422
295004
294945
300024
300492
298523
299919
305681
307035
304424
240723
238224
238401
237541
235151
235606
235052
233214
232467
233241
232874
230669
231962
231873
230150
229891
231261
231205
229167
231021
231257
229694
229774
231439
231672
229825
231839
232325
231031
231307
232933
233383
232212
232729
234185
234514
233494
235037
235637
235019
235511
236583
237156
236818
237361
238289
238806
238684
239479
240192
240349
240739
241561
242189
242349
242725
243858
244435
244411
244799
246440
247029
246688
247174
249424
250039
249312
249977
252665
253402
251487
254865
255884
254795
255257
258315
259437
258171
258837
261896
263167
262072
263071
265435
266950
266003
267032
269057
269999
270128
271028
271942
273165
273674
274551
276429
275953
276900
278174
279125
277836
278910
281548
282025
280518
281504
284520
284768
283927
284152
287542
288248
288026
288318
291293
291031
292522
293591
294418
295003
294941
300021
300492
298521
299903
305672
307040
304421
240656
238153
238329
237477
235084
235538
234991
233153
232403
233180
232820
230607
231902
231820
230095
229832
231207
231156
229110
230968
231211
229645
229722
231392
231631
229778
231791
232287
230988
231263
232892
233349
232176
232686
234152
234483
233459
235003
235609
234989
235479
236553
237131
236792
237332
238265
238783
238660
239460
240165
240326
240714
241535
242170
242326
242698
243836
244417
244390
244771
246425
247011
246668
247147
249412
250023
249295
249951
252657
253392
251464
254860
255870
254786
255251
258296
259434
258161
258826
261885
263171
262073
263064
265433
266958
266012
267033
269061
270015
270140
271037
271960
273176
273693
274568
276441
275968
276908
278191
279141
277847
278925
281561
282036
280525
281514
284528
284776
283930
284158
287546
288249
288028
288323
291290
291033
292518
293588
294418
295004
294941
300022
300498
298526
299894
305673
307055
304430
240615
238096
238282
237441
235031
235493
234957
233114
232355
233143
232789
230558
231863
231789
230057
229790
231176
231128
229067
230934
231185
229611
229685
231365
231607
229741
231760
232267
230960
231231
232868
233330
232149
232658
234135
234467
233432
234983
235596
234970
235458
236537
237118
236774
237314
238254
238772
238643
239453
240149
240313
240696
241520
242161
242312
242679
243824
244408
244376
244752
246419
247001
246653
247126
249403
250013
249282
249930
252653
253386
251442
254861
255858
254779
255243
258284
259430
258150
258814
261886
263172
262068
263054
265438
266959
266012
267029
269066
270020
270140
271040
271967
273174
273696
274578
276451
275972
276903
278201
279148
277850
278930
281567
282041
280528
281519
284531
284782
283929
284161
287548
288249
288029
288325
291285
291033
292518
293582
294414
295002
294937
300018
300498
298525
299878
305666
307060
304427
240525
238008
238188
237358
234948
235406
234878
233037
232275
233063
232718
230484
231786
231720
229989
229718
231108
231066
229001
230866
231126
229552
229621
231306
231555
229687
231701
232218
230910
231180
232819
233288
232107
232609
234093
234430
233393
234942
235562
234935
235421
236502
237089
236745
237281
238224
238745
238617
239430
240119
240288
240668
241492
242138
242287
242649
243796
244387
244353
244722
246393
246980
246632
247096
249379
249995
249265
249901
252632
253374
251418
254845
255840
254768
255229
258285
259425
258140
258802
261873
263175
262070
263047
265435
266967
266022
267031
269071
270038
270153
271049
271987
273187
273717
274597
276456
275990
276913
278221
279166
277864
278945
281582
282055
280538
281531
284541
284793
283934
284170
287553
288251
288031
288331
291284
291035
292514
293579
294414
295003
294937
300018
300504
298529
299868
305664
307076
304436
240488
237948
238145
237327
234894
235363
234849
233000
232228
233029
232688
230432
231749
231692
229951
229677
231079
231038
228955
230834
231101
229519
229585
231280
231531
229648
231672
232198
230883
231148
232796
233270
232079
232583
234076
234414
233366
234924
235550
234917
235402
236488
237078
236727
237266
238213
238735
238599
239425
240106
240276
240651
241480
242131
242274
242632
243785
244378
244338
244704
246378
246970
246616
247076
249364
249983
249251
249880
252615
253363
251396
254830
255822
254756
255211
258289
259417
258125
258788
261853
263169
262060
263035
265421
266962
266018
267025
269062
270040
270149
271053
271992
273192
273722
274609
276469
275998
276917
278233
279178
277872
278954
281591
282066
280546
281538
284546
284803
283937
284178
287557
288253
288034
288338
291279
291035
292507
293571
294407
294999
294929
300004
300497
298522
299843
305638
307072
304425
240450
237888
238107
237295
234844
235325
234822
232963
232185
233004
232664
230385
231721
231674
229921
229644
231061
231019
228915
230815
231088
229494
229557
231269
231518
229615
231660
232189
230864
231124
232788
233261
232057
232569
234071
234404
233343
234917
235544
234902
235386
236481
237071
236711
237258
238207
238726
238583
239420
240094
240265
240634
241475
242124
242261
242617
243780
244372
244326
244690
246375
246964
246604
247063
249363
249979
249242
249878
252616
253364
251380
254832
255815
254757
255197
258295
259422
258123
258784
261859
263176
262061
263042
265428
266966
266021
267033
269067
270048
270149
271061
271999
273186
273720
274618
276459
275993
276904
278243
279175
277865
278936
281584
282061
280538
281520
284537
284800
283929
284174
287542
288247
288029
288341
291268
291036
292509
293569
294408
295000
294932
300008
300504
298527
299848
305644
307086
304428
240335
237778
237988
237188
234742
235215
234722
232869
232089
232906
232575
230297
231627
231589
229842
229560
230979
230945
228840
230735
231018
229428
229486
231200
231457
229554
231592
232133
230809
231066
232732
233213
232010
232514
234025
234363
233299
234871
235506
234864
235345
236442
237038
236678
237220
238178
238696
238553
239393
240060
240236
240603
241442
242096
242233
242585
243749
244347
244300
244659
246347
246941
246581
247032
249339
249960
249225
249851
252598
253351
251359
254830
255794
254750
255178
258304
259421
258119
258775
261852
263182
262067
263037
265445
266978
266037
267038
269074
270072
270166
271073
272024
273201
273746
274641
276477
276014
276921
278264
279194
277882
278957
281600
282075
280551
281534
284548
284812
283933
284185
287549
288247
288033
288349
291266
291038
292505
293566
294410
295001
294933
300009
300512
298533
299840
305656
307105
304438
240264
237697
237912
237126
234668
235142
234663
232807
232019
232845
232521
230234
231566
231539
229787
229501
230930
230898
228786
230683
230976
229382
229435
231159
231420
229510
231548
232099
230773
231025
232698
233185
231976
232479
233999
234338
233268
234844
235486
234840
235318
236421
237020
236656
237198
238161
238679
238533
239382
240041
240218
240581
241423
242081
242215
242563
243731
244333
244282
244637
246327
246926
246563
247008
249320
249945
249211
249829
252580
253338
251340
254830
255774
254742
255159
258310
259416
258109
258763
261854
263180
262062
263028
265452
266977
266038
267047
269079
270080
270166
271076
272034
273200
273755
274656
276482
276019
276917
278278
279203
277888
278965
281609
282082
280556
281543
284553
284819
283933
284191
287552
288246
288034
288354
291260
291039
292507
293559
294405
294998
294930
300000
300510
298531
299822
305648
307109
304434
240122
237562
237763
236992
234545
235007
234535
232693
231903
232722
232409
230130
231450
231432
229692
229400
230828
230806
228699
230586
230888
229303
229351
231076
231345
229440
231468
232030
230709
230959
232631
233127
231922
232416
233944
234289
233218
234790
235441
234797
235273
236376
236981
236619
237156
238122
238644
238500
239347
240003
240185
240547
241386
242049
242184
242529
243696
244304
244253
244603
246294
246900
246538
246975
249290
249922
249193
249801
252555
253321
251321
254818
255752
254733
255142
258317
259415
258106
258755
261843
263187
262069
263025
265471
266990
266056
267054
269089
270108
270186
271092
272064
273219
273785
274683
276503
276044
276944
278303
279226
277910
278988
281629
282099
280572
281560
284566
284833
283939
284204
287561
288248
288038
288364
291258
291042
292503
293557
294408
294999
294933
299999
300519
298538
299814
305651
307130
304446
240038
237472
237672
236917
234462
234920
234464
232621
231824
232650
232344
230061
231377
231372
229631
229334
230770
230752
228642
230526
230840
229252
229296
231028
231302
229394
231418
231991
230669
230914
232594
233096
231886
232377
233915
234261
233185
234760
235419
234771
235244
236352
236961
236595
237132
238104
238625
238479
239334
239982
240165
240524
241365
242031
242164
242506
243676
244287
244233
244580
246272
246883
246519
246951
249269
249906
249180
249781
252534
253305
251307
254817
255739
254716
255125
258323
259411
258098
258744
261848
263185
262066
263015
265480
266990
266059
267064
269098
270120
270188
271097
272076
273217
273796
274697
276507
276050
276940
278321
279236
277916
278998
281639
282106
280578
281569
284572
284841
283938
284212
287561
288247
288039
288370
291250
291043
292504
293550
294403
294996
294930
299989
300517
298537
299797
305646
307136
304443
239872
237317
237496
236756
234323
234761
234308
232488
231689
232502
232210
229945
231240
231244
229522
229218
230647
230643
228546
230411
230735
229163
229200
230928
231214
229317
231324
231908
230598
230839
232515
233028
231827
232307
233851
234205
233132
234699
235367
234724
235194
236302
236919
236556
237084
238059
238589
238445
239292
239942
240133
240487
241323
241998
242133
242470
243638
244256
244203
244545
246235
246853
246492
246915
249235
249879
249162
249752
252503
253281
251292
254792
255729
254690
255109
258304
259408
258095
258737
261836
263190
262075
263014
265482
267004
266081
267073
269110
270150
270213
271123
272110
273241
273833
274728
276527
276081
276972
278352
279264
277945
279031
281663
282127
280599
281593
284590
284859
283949
284232
287575
288251
288046
288383
291252
291047
292502
293549
294407
294997
294933
299988
300526
298545
299789
305643
307156
304456
239789
237222
237413
236682
234236
234678
234241
232417
231612
232435
232143
229869
231171
231185
229460
229154
230590
230584
228483
230352
230683
229111
229146
230880
231166
229265
231274
231866
230556
230795
232477
232992
231788
232271
233821
234174
233098
234671
235343
234697
235167
236282
236899
236531
237063
238041
238573
238424
239276
239926
240116
240466
241305
241984
242116
242451
243620
244240
244182
244525
246212
246832
246472
246892
249209
249855
249146
249733
252471
253250
251277
254769
255714
254655
255088
258276
259391
258076
258721
261809
263175
262060
263000
265465
266992
266074
267067
269101
270152
270207
271130
272123
273248
273842
274747
276545
276097
276983
278373
279286
277965
279045
281678
282146
280619
281607
284600
284877
283960
284249
287580
288255
288050
288396
291247
291048
292493
293538
294395
294989
294923
299962
300510
298533
299757
305602
307142
304438
239711
237138
237344
236619
234164
234610
234192
232356
231548
232389
232095
229813
231122
231149
229414
229109
230560
230549
228440
230319
230658
229077
229112
230862
231141
229233
231256
231849
230533
230769
232467
232977
231763
232258
233814
234157
233075
234663
235333
234679
235154
236275
236887
236512
237053
238034
238559
238406
239267
239912
240100
240444
241288
241972
242100
242435
243615
244227
244167
244516
246209
246821
246459
246889
249209
249846
249142
249741
252473
253239
251274
254783
255722
254646
255089
258287
259402
258083
258731
261823
263186
262069
263013
265481
267000
266085
267081
269112
270167
270210
271139
272133
273242
273841
274762
276534
276086
276965
278384
279278
277952
279020
281666
282135
280605
281579
284584
284869
283942
284239
287557
288244
288040
288398
291228
291047
292496
293540
294399
294990
294934
299969
300521
298545
299768
305616
307164
304449
239508
236952
237134
236425
233998
234424
234007
232202
231393
232218
231940
229678
230965
231002
229293
228981
230423
230426
228333
230192
230542
228982
229010
230754
231046
229150
231156
231759
230460
230691
232384
232906
231701
232186
233747
234099
233019
234599
235279
234632
235103
236221
236842
236470
237004
237988
238521
238369
239221
239871
240066
240405
241242
241937
242069
242397
243573
244194
244138
244481
246171
246791
246434
246856
249176
249820
249126
249737
252442
253215
251255
254791
255715
254633
255077
258271
259405
258091
258730
261835
263201
262087
263017
265514
267023
266117
267104
269130
270208
270244
271161
272176
273272
273887
274803
276563
276123
277007
278422
279310
277986
279055
281694
282157
280632
281608
284604
284888
283953
284261
287572
288246
288049
288415
291231
291053
292494
293542
294407
294992
294942
299969
300532
298557
299765
305642
307190
304467
239383
236838
237008
236312
233893
234306
233904
232106
231295
232119
231847
229599
230868
230918
229216
228902
230344
230351
228271
230113
230475
228921
228947
230692
230988
229102
231093
231707
230413
230642
232337
232864
231661
232145
233711
234063
232985
234564
235249
234602
235073
236202
236816
236443
236981
237966
238496
238348
239207
239847
240041
240382
241221
241913
242045
242375
243550
244171
244114
244459
246144
246767
246415
246833
249149
249794
249116
249739
252409
253195
251233
254798
255704
254615
255063
258250
259398
258085
258723
261845
263198
262087
263028
265528
267022
266125
267119
269144
270223
270249
271169
272194
273272
273903
274822
276570
276132
277006
278442
279322
277997
279071
281709
282167
280643
281621
284607
284898
283952
284273
287568
288243
288051
288423
291221
291053
292487
293533
294402
294987
294943
299955
300527
298557
299752
305638
307194
304464
239141
236622
236756
236075
233701
234082
233677
231923
231111
231911
231657
229445
230679
230736
229073
228750
230175
230201
228151
229958
230331
228809
228826
230559
230872
229009
230971
231595
230328
230552
232237
232779
231592
232057
233632
234001
232922
234490
235188
234551
235013
236140
236770
236404
236926
237914
238458
238311
239155
239804
240010
240341
241171
241876
242015
242334
243503
244138
244086
244419
246101
246735
246389
246796
249110
249760
249102
249738
252369
253180
251210
254774
255689
254604
255054
258229
259396
258093
258726
261837
263210
262108
263035
265539
267047
266162
267155
269165
270269
270291
271208
272243
273312
273960
274866
276601
276180
277053
278485
279361
278043
279122
281744
282197
280678
281661
284634
284923
283970
284305
287592
288251
288063
288446
291229
291061
292487
293537
294413
294991
294953
299954
300538
298570
299748
305637
307217
304485
239011
236492
236638
235955
233581
233969
233571
231816
231010
231812
231551
229348
230585
230644
228986
228670
230091
230111
228073
229878
230252
228737
228761
230489
230797
228946
230906
231532
230271
230500
232186
232724
231543
232012
233589
233959
232882
234458
235154
234515
234981
236113
236744
236378
236905
237892
238433
238289
239141
239785
239988
240319
241151
241857
241994
242314
243479
244116
244063
244398
246071
246703
246365
246773
249072
249714
249084
249723
252326
253142
251183
254739
255657
254568
255030
258191
259365
258066
258709
261805
263182
262087
263019
265521
267027
266151
267150
269177
270268
270283
271228
272263
273325
273975
274897
276633
276207
277073
278515
279397
278080
279145
281765
282229
280714
281685
284651
284950
283992
284333
287601
288261
288072
288464
291224
291063
292480
293523
294394
294978
294942
299913
300509
298554
299709
305580
307188
304460
238899
236397
236542
235866
233500
233876
233506
231741
230941
231756
231484
229292
230524
230598
228935
228628
230057
230064
228038
229847
230222
228703
228733
230471
230767
228924
230889
231515
230250
230480
232181
232707
231522
232006
233584
233938
232867
234451
235141
234502
234971
236108
236730
236361
236896
237885
238416
238273
239132
239767
239966
240299
241132
241838
241976
242299
243470
244101
244047
244398
246070
246684
246360
246778
249076
249693
249091
249734
252346
253140
251194
254753
255669
254576
255043
258209
259383
258085
258730
261830
263203
262107
263042
265548
267044
266171
267171
269195
270290
270293
271236
272278
273316
273971
274914
276618
276187
277048
278507
279382
278056
279108
281743
282210
280690
281642
284624
284937
283963
284311
287566
288243
288055
288451
291195
291061
292470
293527
294401
294980
294964
299925
300525
298574
299731
305601
307222
304481
238610
236135
236242
235588
233274
233607
233238
231537
230721
231517
231272
229112
230308
230390
228778
228456
229868
229899
227902
229677
230062
228583
228602
230326
230643
228823
230758
231394
230164
230383
232077
232620
231450
231915
233501
233879
232799
234371
235081
234459
234905
236039
236691
236324
236834
237833
238387
238235
239073
239727
239944
240254
241075
241810
241956
242252
243418
244076
244027
244357
246026
246654
246342
246746
249042
249652
249084
249693
252357
253119
251200
254723
255659
254579
255041
258193
259388
258107
258740
261832
263225
262142
263063
265581
267080
266222
267204
269224
270352
270351
271273
272323
273368
274044
274972
276658
276248
277112
278564
279429
278115
279171
281787
282247
280735
281691
284658
284966
283984
284349
287591
288250
288071
288478
291210
291071
292471
293539
294424
294987
294980
299927
300537
298593
299732
305610
307252
304509
238448
235994
236094
235439
233138
233473
233103
231405
230602
231392
231148
229013
230192
230273
228672
228362
229760
229792
227824
229579
229963
228496
228528
230238
230553
228760
230680
231313
230093
230324
232015
232556
231396
231864
233447
233831
232756
234334
235038
234416
234875
236009
236659
236297
236817
237810
238360
238217
239057
239707
239920
240235
241056
241787
241935
242234
243392
244049
244002
244335
245992
246613
246318
246723
249001
249597