/*--------------------------------*- C++ -*----------------------------------*\
| =========                 |                                                 |
| \\      /  F ield         | OpenFOAM: The Open Source CFD Toolbox           |
|  \\    /   O peration     | Version:  v2012                                 |
|   \\  /    A nd           | Website:  www.openfoam.com                      |
|    \\/     M anipulation  |                                                 |
\*---------------------------------------------------------------------------*/
FoamFile
{
    version     2.0;
    format      ascii;
    class       volScalarField;
    location    "1e-06";
    object      totalPMean;
}
// * * * * * * * * * * * * * * * * * * * * * * * * * * * * * * * * * * * * * //

dimensions      [1 -1 -2 0 0 0 0];


internalField   nonuniform List<scalar> 
10123
(
9.88733e+06
1.01398e+07
1.03952e+07
1.06427e+07
1.08837e+07
1.11273e+07
1.13646e+07
1.15953e+07
1.18269e+07
1.20614e+07
1.22882e+07
1.25087e+07
1.27352e+07
1.29523e+07
1.31626e+07
1.33765e+07
1.35951e+07
1.38056e+07
1.40084e+07
1.42198e+07
1.4422e+07
1.46166e+07
1.48159e+07
1.50206e+07
1.52173e+07
1.54064e+07
1.56051e+07
1.57947e+07
1.59772e+07
1.61638e+07
1.6355e+07
1.65403e+07
1.67181e+07
1.69006e+07
1.70862e+07
1.72662e+07
1.74399e+07
1.76183e+07
1.77923e+07
1.796e+07
1.81295e+07
1.83005e+07
1.84675e+07
1.86289e+07
1.8791e+07
1.89531e+07
1.91112e+07
1.92649e+07
1.94193e+07
1.95742e+07
1.97217e+07
1.98674e+07
2.00117e+07
2.01522e+07
2.02891e+07
2.04247e+07
2.05599e+07
2.06903e+07
2.08164e+07
2.09428e+07
2.10704e+07
2.11918e+07
2.13078e+07
2.14267e+07
2.15497e+07
2.16649e+07
2.17737e+07
2.1889e+07
2.20108e+07
2.21245e+07
2.22303e+07
2.23494e+07
2.2463e+07
2.25674e+07
2.26821e+07
2.28115e+07
2.29364e+07
2.30531e+07
2.31825e+07
2.33284e+07
2.34697e+07
2.3602e+07
2.37451e+07
2.38987e+07
2.40488e+07
2.41892e+07
2.43372e+07
2.44918e+07
2.46423e+07
2.47876e+07
2.49337e+07
2.50804e+07
2.52275e+07
2.5371e+07
2.55131e+07
2.56524e+07
2.57762e+07
2.58947e+07
2.60051e+07
2.61033e+07
2.61865e+07
2.62725e+07
2.63582e+07
2.64243e+07
2.64722e+07
2.65229e+07
2.65745e+07
2.66051e+07
2.6619e+07
2.66317e+07
2.66497e+07
2.66488e+07
2.66291e+07
2.66026e+07
2.65768e+07
2.65328e+07
2.64823e+07
2.64235e+07
2.63579e+07
2.62897e+07
2.62262e+07
2.61772e+07
2.61114e+07
2.60371e+07
2.59886e+07
2.59662e+07
2.59285e+07
2.5877e+07
9.88706e+06
1.01396e+07
1.0395e+07
1.06424e+07
1.08832e+07
1.11272e+07
1.13644e+07
1.15947e+07
1.18266e+07
1.20613e+07
1.22885e+07
1.25086e+07
1.27345e+07
1.29521e+07
1.31622e+07
1.33763e+07
1.35952e+07
1.38057e+07
1.40085e+07
1.42192e+07
1.44218e+07
1.46162e+07
1.48157e+07
1.50205e+07
1.52175e+07
1.54064e+07
1.56044e+07
1.57943e+07
1.59766e+07
1.61633e+07
1.63547e+07
1.65399e+07
1.67177e+07
1.69003e+07
1.70859e+07
1.72658e+07
1.74396e+07
1.7618e+07
1.7792e+07
1.79597e+07
1.81293e+07
1.83004e+07
1.84673e+07
1.86287e+07
1.87908e+07
1.8953e+07
1.91112e+07
1.92649e+07
1.94189e+07
1.95735e+07
1.97211e+07
1.98667e+07
2.0011e+07
2.01516e+07
2.02884e+07
2.04241e+07
2.05593e+07
2.06898e+07
2.08159e+07
2.09422e+07
2.10698e+07
2.11913e+07
2.13072e+07
2.14262e+07
2.15492e+07
2.16644e+07
2.17732e+07
2.18886e+07
2.20103e+07
2.21241e+07
2.22298e+07
2.23489e+07
2.24625e+07
2.25668e+07
2.26815e+07
2.28114e+07
2.29364e+07
2.30531e+07
2.31825e+07
2.33284e+07
2.34697e+07
2.3602e+07
2.37451e+07
2.38987e+07
2.40488e+07
2.41892e+07
2.43372e+07
2.44919e+07
2.46423e+07
2.47876e+07
2.49338e+07
2.50804e+07
2.52276e+07
2.53711e+07
2.55131e+07
2.56524e+07
2.57762e+07
2.58947e+07
2.60052e+07
2.61034e+07
2.61865e+07
2.62725e+07
2.63583e+07
2.64244e+07
2.64723e+07
2.65229e+07
2.65745e+07
2.66052e+07
2.66191e+07
2.66318e+07
2.66498e+07
2.66489e+07
2.66292e+07
2.66028e+07
2.65769e+07
2.65328e+07
2.64824e+07
2.64235e+07
2.63579e+07
2.62897e+07
2.62262e+07
2.61772e+07
2.61114e+07
2.60372e+07
2.59889e+07
2.59664e+07
2.59288e+07
2.5877e+07
9.88723e+06
1.01395e+07
1.03948e+07
1.06424e+07
1.08829e+07
1.11271e+07
1.13643e+07
1.15943e+07
1.18263e+07
1.20612e+07
1.22886e+07
1.25082e+07
1.27342e+07
1.29521e+07
1.3162e+07
1.33762e+07
1.35952e+07
1.38059e+07
1.40084e+07
1.4219e+07
1.44218e+07
1.4616e+07
1.48155e+07
1.50206e+07
1.52175e+07
1.54063e+07
1.56039e+07
1.57939e+07
1.59761e+07
1.61629e+07
1.63545e+07
1.65397e+07
1.67173e+07
1.69e+07
1.70857e+07
1.72656e+07
1.74393e+07
1.76179e+07
1.77918e+07
1.79594e+07
1.81291e+07
1.83003e+07
1.84672e+07
1.86285e+07
1.87907e+07
1.8953e+07
1.91112e+07
1.92648e+07
1.94187e+07
1.95729e+07
1.97205e+07
1.98662e+07
2.00105e+07
2.01511e+07
2.02879e+07
2.04236e+07
2.05588e+07
2.06893e+07
2.08154e+07
2.09417e+07
2.10694e+07
2.11908e+07
2.13068e+07
2.14257e+07
2.15487e+07
2.1664e+07
2.17728e+07
2.18881e+07
2.20099e+07
2.21237e+07
2.22294e+07
2.23484e+07
2.2462e+07
2.25663e+07
2.2681e+07
2.28114e+07
2.29364e+07
2.3053e+07
2.31825e+07
2.33283e+07
2.34696e+07
2.3602e+07
2.37451e+07
2.38987e+07
2.40488e+07
2.41892e+07
2.43371e+07
2.44918e+07
2.46423e+07
2.47876e+07
2.49337e+07
2.50803e+07
2.52275e+07
2.5371e+07
2.55131e+07
2.56524e+07
2.57762e+07
2.58947e+07
2.60051e+07
2.61033e+07
2.61865e+07
2.62725e+07
2.63582e+07
2.64243e+07
2.64722e+07
2.65229e+07
2.65745e+07
2.66052e+07
2.66191e+07
2.66319e+07
2.66498e+07
2.6649e+07
2.66294e+07
2.6603e+07
2.65771e+07
2.6533e+07
2.64825e+07
2.64237e+07
2.63579e+07
2.62897e+07
2.62262e+07
2.61774e+07
2.61116e+07
2.60374e+07
2.59891e+07
2.59667e+07
2.59291e+07
2.58769e+07
9.88728e+06
1.01393e+07
1.03945e+07
1.06424e+07
1.08827e+07
1.11269e+07
1.13643e+07
1.1594e+07
1.1826e+07
1.20611e+07
1.22886e+07
1.25081e+07
1.27338e+07
1.29521e+07
1.31619e+07
1.33762e+07
1.35953e+07
1.38059e+07
1.40084e+07
1.42188e+07
1.44219e+07
1.4616e+07
1.48155e+07
1.50206e+07
1.52176e+07
1.54063e+07
1.56035e+07
1.57939e+07
1.59758e+07
1.61627e+07
1.63544e+07
1.65397e+07
1.67171e+07
1.68997e+07
1.70857e+07
1.72656e+07
1.74392e+07
1.76178e+07
1.77918e+07
1.79593e+07
1.8129e+07
1.83003e+07
1.84672e+07
1.86285e+07
1.87907e+07
1.8953e+07
1.91112e+07
1.92648e+07
1.94185e+07
1.95722e+07
1.97198e+07
1.98655e+07
2.00098e+07
2.01504e+07
2.02873e+07
2.0423e+07
2.05582e+07
2.06887e+07
2.08148e+07
2.09412e+07
2.10688e+07
2.11903e+07
2.13063e+07
2.14252e+07
2.15482e+07
2.16635e+07
2.17723e+07
2.18876e+07
2.20097e+07
2.21235e+07
2.22291e+07
2.23481e+07
2.24615e+07
2.25658e+07
2.26808e+07
2.28114e+07
2.29364e+07
2.3053e+07
2.31824e+07
2.33284e+07
2.34696e+07
2.3602e+07
2.37451e+07
2.38987e+07
2.40487e+07
2.41892e+07
2.43371e+07
2.44918e+07
2.46423e+07
2.47876e+07
2.49337e+07
2.50803e+07
2.52275e+07
2.5371e+07
2.55131e+07
2.56524e+07
2.57762e+07
2.58946e+07
2.60051e+07
2.61033e+07
2.61865e+07
2.62725e+07
2.63582e+07
2.64243e+07
2.64722e+07
2.65229e+07
2.65745e+07
2.66053e+07
2.66192e+07
2.66319e+07
2.66499e+07
2.66492e+07
2.66296e+07
2.66032e+07
2.65773e+07
2.65332e+07
2.64828e+07
2.64239e+07
2.63581e+07
2.62898e+07
2.62262e+07
2.61777e+07
2.6112e+07
2.60378e+07
2.59894e+07
2.59669e+07
2.59294e+07
2.58772e+07
9.88753e+06
1.01395e+07
1.03947e+07
1.06426e+07
1.08828e+07
1.11271e+07
1.13645e+07
1.15941e+07
1.18261e+07
1.20613e+07
1.22887e+07
1.25082e+07
1.27339e+07
1.29523e+07
1.3162e+07
1.33763e+07
1.35954e+07
1.3806e+07
1.40085e+07
1.42189e+07
1.4422e+07
1.46161e+07
1.48156e+07
1.50207e+07
1.52177e+07
1.54063e+07
1.56036e+07
1.57939e+07
1.59758e+07
1.61627e+07
1.63545e+07
1.65398e+07
1.67171e+07
1.68998e+07
1.70857e+07
1.72656e+07
1.74392e+07
1.76179e+07
1.77919e+07
1.79593e+07
1.8129e+07
1.83003e+07
1.84672e+07
1.86285e+07
1.87907e+07
1.8953e+07
1.91113e+07
1.92648e+07
1.94184e+07
1.95715e+07
1.97191e+07
1.98648e+07
2.00092e+07
2.01498e+07
2.02867e+07
2.04224e+07
2.05576e+07
2.06881e+07
2.08142e+07
2.09406e+07
2.10683e+07
2.11898e+07
2.13058e+07
2.14247e+07
2.15478e+07
2.16632e+07
2.17718e+07
2.18872e+07
2.20096e+07
2.21235e+07
2.2229e+07
2.23481e+07
2.24612e+07
2.25655e+07
2.26807e+07
2.28114e+07
2.29364e+07
2.3053e+07
2.31824e+07
2.33284e+07
2.34696e+07
2.3602e+07
2.37451e+07
2.38987e+07
2.40487e+07
2.41892e+07
2.43371e+07
2.44918e+07
2.46423e+07
2.47876e+07
2.49337e+07
2.50803e+07
2.52275e+07
2.5371e+07
2.55131e+07
2.56524e+07
2.57761e+07
2.58946e+07
2.60051e+07
2.61033e+07
2.61864e+07
2.62724e+07
2.63581e+07
2.64243e+07
2.64722e+07
2.65228e+07
2.65745e+07
2.66053e+07
2.66192e+07
2.66319e+07
2.66499e+07
2.66493e+07
2.66297e+07
2.66034e+07
2.65775e+07
2.65334e+07
2.64831e+07
2.64242e+07
2.63584e+07
2.629e+07
2.62264e+07
2.61781e+07
2.61124e+07
2.60381e+07
2.59897e+07
2.59672e+07
2.59298e+07
2.58775e+07
9.88765e+06
1.01395e+07
1.03948e+07
1.06427e+07
1.08827e+07
1.1127e+07
1.13645e+07
1.15939e+07
1.18258e+07
1.20613e+07
1.22888e+07
1.2508e+07
1.27338e+07
1.29523e+07
1.3162e+07
1.33762e+07
1.35954e+07
1.38061e+07
1.40084e+07
1.42189e+07
1.4422e+07
1.4616e+07
1.48155e+07
1.50207e+07
1.52177e+07
1.54063e+07
1.56034e+07
1.57939e+07
1.59756e+07
1.61624e+07
1.63545e+07
1.65397e+07
1.67171e+07
1.68996e+07
1.70857e+07
1.72656e+07
1.74392e+07
1.76178e+07
1.77919e+07
1.79593e+07
1.8129e+07
1.83003e+07
1.84673e+07
1.86285e+07
1.87907e+07
1.8953e+07
1.91112e+07
1.92648e+07
1.94183e+07
1.95708e+07
1.97184e+07
1.98641e+07
2.00085e+07
2.01491e+07
2.0286e+07
2.04217e+07
2.0557e+07
2.06875e+07
2.08136e+07
2.094e+07
2.10677e+07
2.11893e+07
2.13052e+07
2.14241e+07
2.15473e+07
2.16628e+07
2.17713e+07
2.18867e+07
2.20096e+07
2.21235e+07
2.22288e+07
2.23481e+07
2.24608e+07
2.25651e+07
2.26806e+07
2.28114e+07
2.29365e+07
2.30529e+07
2.31823e+07
2.33284e+07
2.34696e+07
2.36021e+07
2.37451e+07
2.38986e+07
2.40487e+07
2.41892e+07
2.43371e+07
2.44918e+07
2.46423e+07
2.47876e+07
2.49337e+07
2.50804e+07
2.52275e+07
2.5371e+07
2.55131e+07
2.56524e+07
2.57761e+07
2.58946e+07
2.60051e+07
2.61033e+07
2.61865e+07
2.62724e+07
2.63582e+07
2.64243e+07
2.64722e+07
2.65229e+07
2.65746e+07
2.66054e+07
2.66193e+07
2.6632e+07
2.66501e+07
2.66494e+07
2.66299e+07
2.66036e+07
2.65777e+07
2.65337e+07
2.64834e+07
2.64246e+07
2.63587e+07
2.62902e+07
2.62265e+07
2.61784e+07
2.61128e+07
2.60385e+07
2.59899e+07
2.59675e+07
2.59301e+07
2.58778e+07
9.88769e+06
1.01395e+07
1.03948e+07
1.06428e+07
1.08827e+07
1.1127e+07
1.13646e+07
1.15939e+07
1.18258e+07
1.20614e+07
1.22889e+07
1.2508e+07
1.27338e+07
1.29524e+07
1.3162e+07
1.33762e+07
1.35954e+07
1.38061e+07
1.40084e+07
1.42189e+07
1.4422e+07
1.4616e+07
1.48155e+07
1.50207e+07
1.52177e+07
1.54063e+07
1.56034e+07
1.57939e+07
1.59756e+07
1.61624e+07
1.63545e+07
1.65398e+07
1.6717e+07
1.68995e+07
1.70857e+07
1.72656e+07
1.74392e+07
1.76179e+07
1.77919e+07
1.79593e+07
1.8129e+07
1.83003e+07
1.84673e+07
1.86285e+07
1.87907e+07
1.8953e+07
1.91113e+07
1.92648e+07
1.94183e+07
1.95701e+07
1.97177e+07
1.98634e+07
2.00078e+07
2.01485e+07
2.02853e+07
2.0421e+07
2.05563e+07
2.06869e+07
2.0813e+07
2.09394e+07
2.10671e+07
2.11888e+07
2.13046e+07
2.14235e+07
2.15471e+07
2.16628e+07
2.17711e+07
2.18865e+07
2.20096e+07
2.21235e+07
2.22288e+07
2.23481e+07
2.24608e+07
2.25651e+07
2.26805e+07
2.28115e+07
2.29365e+07
2.30529e+07
2.31823e+07
2.33284e+07
2.34696e+07
2.36021e+07
2.37451e+07
2.38987e+07
2.40487e+07
2.41892e+07
2.43371e+07
2.44918e+07
2.46423e+07
2.47876e+07
2.49337e+07
2.50804e+07
2.52275e+07
2.5371e+07
2.55132e+07
2.56524e+07
2.57761e+07
2.58945e+07
2.60052e+07
2.61033e+07
2.61865e+07
2.62724e+07
2.63582e+07
2.64243e+07
2.64722e+07
2.65228e+07
2.65746e+07
2.66055e+07
2.66194e+07
2.66321e+07
2.66501e+07
2.66496e+07
2.66302e+07
2.66039e+07
2.65779e+07
2.6534e+07
2.64837e+07
2.64249e+07
2.6359e+07
2.62906e+07
2.62269e+07
2.61788e+07
2.61132e+07
2.60389e+07
2.59903e+07
2.59678e+07
2.59305e+07
2.5878e+07
9.88778e+06
1.01395e+07
1.03948e+07
1.06429e+07
1.08827e+07
1.11271e+07
1.13646e+07
1.15939e+07
1.18258e+07
1.20614e+07
1.22889e+07
1.2508e+07
1.27339e+07
1.29524e+07
1.3162e+07
1.33762e+07
1.35955e+07
1.38062e+07
1.40084e+07
1.4219e+07
1.44221e+07
1.4616e+07
1.48155e+07
1.50207e+07
1.52177e+07
1.54063e+07
1.56034e+07
1.5794e+07
1.59755e+07
1.61623e+07
1.63545e+07
1.65398e+07
1.6717e+07
1.68995e+07
1.70858e+07
1.72656e+07
1.74391e+07
1.76179e+07
1.77919e+07
1.79593e+07
1.8129e+07
1.83003e+07
1.84673e+07
1.86285e+07
1.87907e+07
1.8953e+07
1.91113e+07
1.92647e+07
1.94183e+07
1.95696e+07
1.97169e+07
1.98626e+07
2.00071e+07
2.01478e+07
2.02846e+07
2.04203e+07
2.05557e+07
2.06863e+07
2.08124e+07
2.09387e+07
2.10668e+07
2.11885e+07
2.13042e+07
2.14231e+07
2.15471e+07
2.16627e+07
2.17711e+07
2.18864e+07
2.20096e+07
2.21235e+07
2.22288e+07
2.23481e+07
2.24608e+07
2.2565e+07
2.26805e+07
2.28115e+07
2.29366e+07
2.30529e+07
2.31823e+07
2.33284e+07
2.34696e+07
2.36022e+07
2.37452e+07
2.38987e+07
2.40487e+07
2.41892e+07
2.43371e+07
2.44918e+07
2.46423e+07
2.47876e+07
2.49337e+07
2.50804e+07
2.52276e+07
2.53711e+07
2.55132e+07
2.56524e+07
2.57761e+07
2.58945e+07
2.60052e+07
2.61034e+07
2.61865e+07
2.62724e+07
2.63582e+07
2.64243e+07
2.64721e+07
2.65228e+07
2.65746e+07
2.66055e+07
2.66194e+07
2.66322e+07
2.66503e+07
2.66497e+07
2.66304e+07
2.66041e+07
2.65782e+07
2.65344e+07
2.64841e+07
2.64253e+07
2.63594e+07
2.6291e+07
2.62272e+07
2.61792e+07
2.61136e+07
2.60393e+07
2.59906e+07
2.59682e+07
2.59309e+07
2.58784e+07
9.88783e+06
1.01395e+07
1.03949e+07
1.06429e+07
1.08827e+07
1.11271e+07
1.13647e+07
1.1594e+07
1.18258e+07
1.20614e+07
1.2289e+07
1.2508e+07
1.27339e+07
1.29524e+07
1.3162e+07
1.33762e+07
1.35955e+07
1.38062e+07
1.40084e+07
1.4219e+07
1.44221e+07
1.4616e+07
1.48155e+07
1.50207e+07
1.52178e+07
1.54062e+07
1.56034e+07
1.5794e+07
1.59755e+07
1.61623e+07
1.63545e+07
1.65398e+07
1.6717e+07
1.68995e+07
1.70858e+07
1.72657e+07
1.74391e+07
1.76179e+07
1.7792e+07
1.79593e+07
1.8129e+07
1.83004e+07
1.84673e+07
1.86285e+07
1.87907e+07
1.89531e+07
1.91113e+07
1.92647e+07
1.94183e+07
1.95693e+07
1.97163e+07
1.98619e+07
2.00063e+07
2.01471e+07
2.02839e+07
2.04196e+07
2.05552e+07
2.0686e+07
2.08119e+07
2.09383e+07
2.10666e+07
2.11885e+07
2.1304e+07
2.1423e+07
2.15471e+07
2.16627e+07
2.1771e+07
2.18864e+07
2.20097e+07
2.21235e+07
2.22287e+07
2.23482e+07
2.24608e+07
2.2565e+07
2.26805e+07
2.28116e+07
2.29366e+07
2.30529e+07
2.31824e+07
2.33284e+07
2.34696e+07
2.36022e+07
2.37452e+07
2.38987e+07
2.40488e+07
2.41892e+07
2.43371e+07
2.44919e+07
2.46424e+07
2.47876e+07
2.49338e+07
2.50805e+07
2.52276e+07
2.53711e+07
2.55133e+07
2.56524e+07
2.57761e+07
2.58945e+07
2.60052e+07
2.61034e+07
2.61865e+07
2.62724e+07
2.63582e+07
2.64243e+07
2.64721e+07
2.65228e+07
2.65747e+07
2.66056e+07
2.66195e+07
2.66323e+07
2.66504e+07
2.66499e+07
2.66306e+07
2.66044e+07
2.65785e+07
2.65347e+07
2.64845e+07
2.64257e+07
2.63599e+07
2.62914e+07
2.62276e+07
2.61797e+07
2.61141e+07
2.60397e+07
2.5991e+07
2.59686e+07
2.59313e+07
2.58787e+07
9.8879e+06
1.01395e+07
1.03949e+07
1.0643e+07
1.08827e+07
1.11271e+07
1.13647e+07
1.1594e+07
1.18258e+07
1.20615e+07
1.2289e+07
1.2508e+07
1.27339e+07
1.29525e+07
1.31621e+07
1.33762e+07
1.35955e+07
1.38062e+07
1.40084e+07
1.4219e+07
1.44221e+07
1.4616e+07
1.48155e+07
1.50208e+07
1.52178e+07
1.54062e+07
1.56034e+07
1.5794e+07
1.59756e+07
1.61624e+07
1.63545e+07
1.65398e+07
1.6717e+07
1.68995e+07
1.70858e+07
1.72657e+07
1.74391e+07
1.76179e+07
1.7792e+07
1.79593e+07
1.8129e+07
1.83004e+07
1.84674e+07
1.86286e+07
1.87907e+07
1.89531e+07
1.91113e+07
1.92648e+07
1.94184e+07
1.95693e+07
1.97159e+07
1.98612e+07
2.00057e+07
2.01467e+07
2.02834e+07
2.04191e+07
2.05549e+07
2.06858e+07
2.08117e+07
2.0938e+07
2.10666e+07
2.11885e+07
2.1304e+07
2.14229e+07
2.15471e+07
2.16628e+07
2.1771e+07
2.18864e+07
2.20097e+07
2.21236e+07
2.22287e+07
2.23482e+07
2.24609e+07
2.2565e+07
2.26804e+07
2.28116e+07
2.29367e+07
2.30529e+07
2.31825e+07
2.33285e+07
2.34697e+07
2.36023e+07
2.37453e+07
2.38988e+07
2.40489e+07
2.41893e+07
2.43372e+07
2.44919e+07
2.46425e+07
2.47877e+07
2.49338e+07
2.50805e+07
2.52277e+07
2.53712e+07
2.55134e+07
2.56524e+07
2.5776e+07
2.58944e+07
2.60053e+07
2.61034e+07
2.61865e+07
2.62724e+07
2.63582e+07
2.64242e+07
2.6472e+07
2.65228e+07
2.65747e+07
2.66057e+07
2.66196e+07
2.66324e+07
2.66505e+07
2.66501e+07
2.66308e+07
2.66047e+07
2.65787e+07
2.65351e+07
2.64849e+07
2.64262e+07
2.63604e+07
2.62919e+07
2.62281e+07
2.61802e+07
2.61147e+07
2.60402e+07
2.59914e+07
2.5969e+07
2.59318e+07
2.58791e+07
9.88792e+06
1.01395e+07
1.03949e+07
1.0643e+07
1.08827e+07
1.11271e+07
1.13647e+07
1.1594e+07
1.18257e+07
1.20614e+07
1.2289e+07
1.2508e+07
1.27338e+07
1.29525e+07
1.3162e+07
1.33761e+07
1.35955e+07
1.38062e+07
1.40083e+07
1.42189e+07
1.44221e+07
1.4616e+07
1.48154e+07
1.50207e+07
1.52178e+07
1.54062e+07
1.56033e+07
1.5794e+07
1.59755e+07
1.61623e+07
1.63545e+07
1.65398e+07
1.6717e+07
1.68994e+07
1.70858e+07
1.72657e+07
1.74391e+07
1.76179e+07
1.7792e+07
1.79593e+07
1.8129e+07
1.83004e+07
1.84674e+07
1.86286e+07
1.87907e+07
1.89531e+07
1.91114e+07
1.92647e+07
1.94183e+07
1.95692e+07
1.97156e+07
1.98607e+07
2.00053e+07
2.01464e+07
2.0283e+07
2.04186e+07
2.05546e+07
2.06857e+07
2.08115e+07
2.09377e+07
2.10665e+07
2.11885e+07
2.13039e+07
2.14228e+07
2.15471e+07
2.16628e+07
2.1771e+07
2.18863e+07
2.20097e+07
2.21236e+07
2.22287e+07
2.23482e+07
2.24609e+07
2.2565e+07
2.26804e+07
2.28117e+07
2.29368e+07
2.30529e+07
2.31825e+07
2.33285e+07
2.34697e+07
2.36024e+07
2.37454e+07
2.38989e+07
2.4049e+07
2.41894e+07
2.43373e+07
2.4492e+07
2.46426e+07
2.47878e+07
2.49339e+07
2.50806e+07
2.52278e+07
2.53713e+07
2.55135e+07
2.56524e+07
2.57761e+07
2.58945e+07
2.60054e+07
2.61035e+07
2.61865e+07
2.62725e+07
2.63582e+07
2.64243e+07
2.64721e+07
2.65229e+07
2.65748e+07
2.66058e+07
2.66198e+07
2.66326e+07
2.66507e+07
2.66503e+07
2.66311e+07
2.6605e+07
2.65791e+07
2.65355e+07
2.64853e+07
2.64266e+07
2.63608e+07
2.62923e+07
2.62285e+07
2.61807e+07
2.61152e+07
2.60407e+07
2.59918e+07
2.59694e+07
2.59323e+07
2.58794e+07
9.88799e+06
1.01395e+07
1.03949e+07
1.0643e+07
1.08827e+07
1.11271e+07
1.13648e+07
1.1594e+07
1.18257e+07
1.20615e+07
1.2289e+07
1.2508e+07
1.27338e+07
1.29525e+07
1.3162e+07
1.33761e+07
1.35955e+07
1.38063e+07
1.40083e+07
1.4219e+07
1.44222e+07
1.4616e+07
1.48154e+07
1.50208e+07
1.52178e+07
1.54062e+07
1.56033e+07
1.5794e+07
1.59755e+07
1.61622e+07
1.63545e+07
1.65399e+07
1.6717e+07
1.68994e+07
1.70858e+07
1.72657e+07
1.74391e+07
1.76179e+07
1.7792e+07
1.79594e+07
1.8129e+07
1.83004e+07
1.84675e+07
1.86286e+07
1.87907e+07
1.89532e+07
1.91114e+07
1.92648e+07
1.94184e+07
1.95692e+07
1.97156e+07
1.98605e+07
2.0005e+07
2.01463e+07
2.02829e+07
2.04184e+07
2.05546e+07
2.06857e+07
2.08114e+07
2.09377e+07
2.10665e+07
2.11885e+07
2.13039e+07
2.14228e+07
2.15471e+07
2.16628e+07
2.1771e+07
2.18863e+07
2.20098e+07
2.21236e+07
2.22287e+07
2.23483e+07
2.2461e+07
2.2565e+07
2.26804e+07
2.28118e+07
2.29369e+07
2.3053e+07
2.31827e+07
2.33285e+07
2.34698e+07
2.36025e+07
2.37454e+07
2.3899e+07
2.40491e+07
2.41895e+07
2.43374e+07
2.44921e+07
2.46427e+07
2.47879e+07
2.4934e+07
2.50808e+07
2.52279e+07
2.53714e+07
2.55136e+07
2.56525e+07
2.57761e+07
2.58945e+07
2.60055e+07
2.61036e+07
2.61866e+07
2.62725e+07
2.63583e+07
2.64243e+07
2.64722e+07
2.6523e+07
2.65749e+07
2.6606e+07
2.66199e+07
2.66327e+07
2.66509e+07
2.66505e+07
2.66314e+07
2.66054e+07
2.65794e+07
2.65359e+07
2.64858e+07
2.64271e+07
2.63613e+07
2.62928e+07
2.6229e+07
2.61812e+07
2.61158e+07
2.60412e+07
2.59922e+07
2.59699e+07
2.59327e+07
2.58798e+07
9.88803e+06
1.01395e+07
1.03949e+07
1.06431e+07
1.08827e+07
1.11271e+07
1.13648e+07
1.1594e+07
1.18257e+07
1.20615e+07
1.22891e+07
1.25079e+07
1.27338e+07
1.29525e+07
1.3162e+07
1.33761e+07
1.35956e+07
1.38063e+07
1.40083e+07
1.4219e+07
1.44222e+07
1.4616e+07
1.48154e+07
1.50208e+07
1.52179e+07
1.54062e+07
1.56034e+07
1.5794e+07
1.59755e+07
1.61622e+07
1.63545e+07
1.65399e+07
1.6717e+07
1.68994e+07
1.70859e+07
1.72658e+07
1.74391e+07
1.76179e+07
1.77921e+07
1.79594e+07
1.8129e+07
1.83005e+07
1.84675e+07
1.86286e+07
1.87907e+07
1.89532e+07
1.91115e+07
1.92648e+07
1.94184e+07
1.95691e+07
1.97155e+07
1.98604e+07
2.0005e+07
2.01462e+07
2.02828e+07
2.04184e+07
2.05545e+07
2.06857e+07
2.08114e+07
2.09376e+07
2.10665e+07
2.11885e+07
2.13039e+07
2.14228e+07
2.15471e+07
2.16628e+07
2.1771e+07
2.18863e+07
2.20098e+07
2.21237e+07
2.22287e+07
2.23484e+07
2.24611e+07
2.2565e+07
2.26804e+07
2.28119e+07
2.2937e+07
2.30531e+07
2.31828e+07
2.33286e+07
2.34699e+07
2.36026e+07
2.37456e+07
2.38991e+07
2.40492e+07
2.41896e+07
2.43375e+07
2.44922e+07
2.46428e+07
2.4788e+07
2.49342e+07
2.50809e+07
2.5228e+07
2.53716e+07
2.55137e+07
2.56525e+07
2.57761e+07
2.58945e+07
2.60056e+07
2.61037e+07
2.61866e+07
2.62726e+07
2.63583e+07
2.64244e+07
2.64722e+07
2.65231e+07
2.6575e+07
2.66061e+07
2.66201e+07
2.66329e+07
2.66511e+07
2.66508e+07
2.66318e+07
2.66058e+07
2.65798e+07
2.65363e+07
2.64862e+07
2.64277e+07
2.63619e+07
2.62933e+07
2.62295e+07
2.61818e+07
2.61164e+07
2.60418e+07
2.59927e+07
2.59703e+07
2.59333e+07
2.58802e+07
9.88812e+06
1.01396e+07
1.0395e+07
1.06432e+07
1.08827e+07
1.11271e+07
1.13648e+07
1.1594e+07
1.18257e+07
1.20615e+07
1.22891e+07
1.2508e+07
1.27339e+07
1.29526e+07
1.3162e+07
1.33761e+07
1.35956e+07
1.38064e+07
1.40083e+07
1.4219e+07
1.44223e+07
1.4616e+07
1.48154e+07
1.50209e+07
1.52179e+07
1.54062e+07
1.56034e+07
1.57941e+07
1.59755e+07
1.61623e+07
1.63546e+07
1.654e+07
1.6717e+07
1.68995e+07
1.70859e+07
1.72658e+07
1.74391e+07
1.7618e+07
1.77922e+07
1.79594e+07
1.8129e+07
1.83005e+07
1.84676e+07
1.86287e+07
1.87908e+07
1.89533e+07
1.91115e+07
1.92648e+07
1.94184e+07
1.95691e+07
1.97155e+07
1.98604e+07
2.0005e+07
2.01462e+07
2.02828e+07
2.04183e+07
2.05545e+07
2.06857e+07
2.08114e+07
2.09376e+07
2.10666e+07
2.11885e+07
2.13039e+07
2.14228e+07
2.15472e+07
2.16629e+07
2.1771e+07
2.18863e+07
2.20099e+07
2.21238e+07
2.22287e+07
2.23485e+07
2.24612e+07
2.25651e+07
2.26804e+07
2.2812e+07
2.29371e+07
2.30533e+07
2.31829e+07
2.33287e+07
2.347e+07
2.36027e+07
2.37457e+07
2.38993e+07
2.40493e+07
2.41898e+07
2.43376e+07
2.44924e+07
2.4643e+07
2.47882e+07
2.49343e+07
2.50811e+07
2.52282e+07
2.53718e+07
2.55139e+07
2.56526e+07
2.57761e+07
2.58945e+07
2.60057e+07
2.61039e+07
2.61867e+07
2.62726e+07
2.63584e+07
2.64245e+07
2.64723e+07
2.65232e+07
2.65752e+07
2.66063e+07
2.66203e+07
2.66332e+07
2.66513e+07
2.66511e+07
2.66321e+07
2.66062e+07
2.65802e+07
2.65368e+07
2.64868e+07
2.64282e+07
2.63624e+07
2.62939e+07
2.623e+07
2.61824e+07
2.6117e+07
2.60423e+07
2.59932e+07
2.59708e+07
2.59338e+07
2.58806e+07
9.88817e+06
1.01396e+07
1.0395e+07
1.06432e+07
1.08828e+07
1.11271e+07
1.13649e+07
1.1594e+07
1.18257e+07
1.20615e+07
1.22892e+07
1.2508e+07
1.27339e+07
1.29526e+07
1.31621e+07
1.33761e+07
1.35956e+07
1.38064e+07
1.40083e+07
1.4219e+07
1.44223e+07
1.4616e+07
1.48154e+07
1.50209e+07
1.5218e+07
1.54062e+07
1.56034e+07
1.57941e+07
1.59755e+07
1.61623e+07
1.63546e+07
1.654e+07
1.6717e+07
1.68995e+07
1.7086e+07
1.72659e+07
1.74392e+07
1.7618e+07
1.77922e+07
1.79595e+07
1.81291e+07
1.83006e+07
1.84676e+07
1.86287e+07
1.87908e+07
1.89533e+07
1.91116e+07
1.92649e+07
1.94185e+07
1.95692e+07
1.97155e+07
1.98603e+07
2.00049e+07
2.01462e+07
2.02828e+07
2.04183e+07
2.05545e+07
2.06858e+07
2.08114e+07
2.09376e+07
2.10666e+07
2.11886e+07
2.13039e+07
2.14228e+07
2.15473e+07
2.1663e+07
2.17711e+07
2.18864e+07
2.201e+07
2.21239e+07
2.22288e+07
2.23486e+07
2.24613e+07
2.25651e+07
2.26804e+07
2.28122e+07
2.29372e+07
2.30534e+07
2.31831e+07
2.33289e+07
2.34702e+07
2.36029e+07
2.37458e+07
2.38994e+07
2.40495e+07
2.41899e+07
2.43378e+07
2.44926e+07
2.46432e+07
2.47884e+07
2.49345e+07
2.50813e+07
2.52284e+07
2.5372e+07
2.55141e+07
2.56527e+07
2.57762e+07
2.58946e+07
2.60059e+07
2.6104e+07
2.61868e+07
2.62727e+07
2.63585e+07
2.64246e+07
2.64724e+07
2.65234e+07
2.65753e+07
2.66065e+07
2.66205e+07
2.66334e+07
2.66516e+07
2.66514e+07
2.66325e+07
2.66067e+07
2.65807e+07
2.65373e+07
2.64873e+07
2.64288e+07
2.63631e+07
2.62945e+07
2.62306e+07
2.6183e+07
2.61177e+07
2.6043e+07
2.59937e+07
2.59714e+07
2.59344e+07
2.5881e+07
9.88828e+06
1.01397e+07
1.03951e+07
1.06433e+07
1.08828e+07
1.11272e+07
1.13649e+07
1.15941e+07
1.18257e+07
1.20616e+07
1.22892e+07
1.2508e+07
1.27339e+07
1.29527e+07
1.31621e+07
1.33762e+07
1.35957e+07
1.38065e+07
1.40084e+07
1.42191e+07
1.44224e+07
1.46161e+07
1.48155e+07
1.5021e+07
1.52181e+07
1.54063e+07
1.56035e+07
1.57942e+07
1.59756e+07
1.61623e+07
1.63547e+07
1.65401e+07
1.67171e+07
1.68995e+07
1.70861e+07
1.7266e+07
1.74392e+07
1.76181e+07
1.77923e+07
1.79595e+07
1.81291e+07
1.83006e+07
1.84677e+07
1.86288e+07
1.87909e+07
1.89534e+07
1.91117e+07
1.9265e+07
1.94185e+07
1.95692e+07
1.97155e+07
1.98603e+07
2.00049e+07
2.01463e+07
2.02828e+07
2.04183e+07
2.05546e+07
2.06858e+07
2.08114e+07
2.09376e+07
2.10667e+07
2.11887e+07
2.1304e+07
2.14229e+07
2.15474e+07
2.16631e+07
2.17711e+07
2.18864e+07
2.20102e+07
2.2124e+07
2.22288e+07
2.23487e+07
2.24614e+07
2.25652e+07
2.26804e+07
2.28123e+07
2.29373e+07
2.30536e+07
2.31833e+07
2.3329e+07
2.34704e+07
2.36031e+07
2.3746e+07
2.38997e+07
2.40497e+07
2.41901e+07
2.4338e+07
2.44928e+07
2.46435e+07
2.47886e+07
2.49347e+07
2.50815e+07
2.52286e+07
2.53722e+07
2.55143e+07
2.56528e+07
2.57762e+07
2.58946e+07
2.6006e+07
2.61042e+07
2.61869e+07
2.62728e+07
2.63587e+07
2.64248e+07
2.64726e+07
2.65235e+07
2.65755e+07
2.66068e+07
2.66207e+07
2.66337e+07
2.66519e+07
2.66517e+07
2.66329e+07
2.66071e+07
2.65812e+07
2.65378e+07
2.64879e+07
2.64295e+07
2.63637e+07
2.62951e+07
2.62312e+07
2.61837e+07
2.61184e+07
2.60436e+07
2.59942e+07
2.59719e+07
2.5935e+07
2.58815e+07
9.88834e+06
1.01397e+07
1.03951e+07
1.06433e+07
1.08829e+07
1.11272e+07
1.1365e+07
1.15941e+07
1.18257e+07
1.20616e+07
1.22893e+07
1.2508e+07
1.27339e+07
1.29527e+07
1.31621e+07
1.33762e+07
1.35958e+07
1.38066e+07
1.40084e+07
1.42191e+07
1.44224e+07
1.46161e+07
1.48155e+07
1.5021e+07
1.52181e+07
1.54063e+07
1.56035e+07
1.57943e+07
1.59756e+07
1.61623e+07
1.63547e+07
1.65402e+07
1.67171e+07
1.68995e+07
1.70861e+07
1.7266e+07
1.74393e+07
1.76181e+07
1.77924e+07
1.79596e+07
1.81292e+07
1.83007e+07
1.84678e+07
1.86289e+07
1.87909e+07
1.89535e+07
1.91118e+07
1.9265e+07
1.94186e+07
1.95693e+07
1.97156e+07
1.98603e+07
2.0005e+07
2.01463e+07
2.02828e+07
2.04183e+07
2.05546e+07
2.06859e+07
2.08115e+07
2.09377e+07
2.10668e+07
2.11888e+07
2.13041e+07
2.14229e+07
2.15474e+07
2.16631e+07
2.17712e+07
2.18865e+07
2.20103e+07
2.21241e+07
2.22289e+07
2.23488e+07
2.24616e+07
2.25652e+07
2.26805e+07
2.28125e+07
2.29374e+07
2.30538e+07
2.31835e+07
2.33292e+07
2.34706e+07
2.36033e+07
2.37462e+07
2.38999e+07
2.405e+07
2.41904e+07
2.43382e+07
2.4493e+07
2.46437e+07
2.47888e+07
2.4935e+07
2.50818e+07
2.52288e+07
2.53725e+07
2.55146e+07
2.56529e+07
2.57763e+07
2.58947e+07
2.60062e+07
2.61043e+07
2.61871e+07
2.6273e+07
2.63589e+07
2.6425e+07
2.64728e+07
2.65237e+07
2.65758e+07
2.6607e+07
2.6621e+07
2.6634e+07
2.66522e+07
2.66521e+07
2.66334e+07
2.66077e+07
2.65817e+07
2.65384e+07
2.64886e+07
2.64301e+07
2.63644e+07
2.62958e+07
2.62319e+07
2.61844e+07
2.61192e+07
2.60443e+07
2.59948e+07
2.59725e+07
2.59356e+07
2.5882e+07
9.88847e+06
1.01398e+07
1.03952e+07
1.06434e+07
1.08829e+07
1.11272e+07
1.13651e+07
1.15942e+07
1.18258e+07
1.20617e+07
1.22893e+07
1.2508e+07
1.2734e+07
1.29528e+07
1.31622e+07
1.33762e+07
1.35958e+07
1.38066e+07
1.40085e+07
1.42192e+07
1.44225e+07
1.46162e+07
1.48155e+07
1.50211e+07
1.52182e+07
1.54063e+07
1.56035e+07
1.57943e+07
1.59757e+07
1.61623e+07
1.63548e+07
1.65403e+07
1.67172e+07
1.68996e+07
1.70862e+07
1.72661e+07
1.74393e+07
1.76182e+07
1.77925e+07
1.79597e+07
1.81292e+07
1.83008e+07
1.84679e+07
1.8629e+07
1.8791e+07
1.89536e+07
1.91119e+07
1.92651e+07
1.94187e+07
1.95694e+07
1.97156e+07
1.98604e+07
2.0005e+07
2.01464e+07
2.02829e+07
2.04184e+07
2.05547e+07
2.06859e+07
2.08116e+07
2.09378e+07
2.10668e+07
2.11888e+07
2.13042e+07
2.1423e+07
2.15475e+07
2.16632e+07
2.17713e+07
2.18865e+07
2.20103e+07
2.21242e+07
2.22289e+07
2.23489e+07
2.24617e+07
2.25653e+07
2.26806e+07
2.28126e+07
2.29376e+07
2.3054e+07
2.31837e+07
2.33294e+07
2.34708e+07
2.36035e+07
2.37464e+07
2.39001e+07
2.40502e+07
2.41906e+07
2.43385e+07
2.44933e+07
2.4644e+07
2.47891e+07
2.49353e+07
2.50821e+07
2.52292e+07
2.53728e+07
2.55149e+07
2.56531e+07
2.57765e+07
2.58949e+07
2.60065e+07
2.61046e+07
2.61873e+07
2.62732e+07
2.63591e+07
2.64252e+07
2.6473e+07
2.6524e+07
2.6576e+07
2.66074e+07
2.66213e+07
2.66344e+07
2.66526e+07
2.66525e+07
2.66339e+07
2.66083e+07
2.65823e+07
2.65391e+07
2.64892e+07
2.64308e+07
2.63651e+07
2.62965e+07
2.62325e+07
2.61851e+07
2.61199e+07
2.6045e+07
2.59954e+07
2.59731e+07
2.59362e+07
2.58825e+07
9.88865e+06
1.01399e+07
1.03953e+07
1.06436e+07
1.0883e+07
1.11273e+07
1.13652e+07
1.15943e+07
1.18258e+07
1.20618e+07
1.22895e+07
1.25081e+07
1.27341e+07
1.2953e+07
1.31623e+07
1.33763e+07
1.35959e+07
1.38068e+07
1.40086e+07
1.42193e+07
1.44226e+07
1.46163e+07
1.48156e+07
1.50212e+07
1.52184e+07
1.54064e+07
1.56036e+07
1.57944e+07
1.59758e+07
1.61624e+07
1.63549e+07
1.65404e+07
1.67173e+07
1.68997e+07
1.70863e+07
1.72662e+07
1.74394e+07
1.76183e+07
1.77926e+07
1.79598e+07
1.81293e+07
1.83009e+07
1.84681e+07
1.86291e+07
1.87912e+07
1.89538e+07
1.9112e+07
1.92652e+07
1.94188e+07
1.95695e+07
1.97157e+07
1.98605e+07
2.00051e+07
2.01465e+07
2.0283e+07
2.04185e+07
2.05548e+07
2.06861e+07
2.08117e+07
2.09379e+07
2.1067e+07
2.1189e+07
2.13043e+07
2.14232e+07
2.15477e+07
2.16634e+07
2.17714e+07
2.18867e+07
2.20105e+07
2.21244e+07
2.22291e+07
2.23491e+07
2.24619e+07
2.25654e+07
2.26808e+07
2.28128e+07
2.29378e+07
2.30543e+07
2.3184e+07
2.33297e+07
2.34711e+07
2.36038e+07
2.37467e+07
2.39005e+07
2.40506e+07
2.41909e+07
2.43388e+07
2.44936e+07
2.46444e+07
2.47894e+07
2.49356e+07
2.50825e+07
2.52294e+07
2.53731e+07
2.55151e+07
2.56532e+07
2.57765e+07
2.58949e+07
2.60066e+07
2.61047e+07
2.61874e+07
2.62733e+07
2.63592e+07
2.64253e+07
2.64731e+07
2.6524e+07
2.65761e+07
2.66075e+07
2.66215e+07
2.66346e+07
2.66529e+07
2.66528e+07
2.66343e+07
2.66088e+07
2.65828e+07
2.65397e+07
2.649e+07
2.64317e+07
2.6366e+07
2.62974e+07
2.62334e+07
2.6186e+07
2.61209e+07
2.60459e+07
2.59962e+07
2.59739e+07
2.5937e+07
2.58831e+07
9.88876e+06
1.014e+07
1.03954e+07
1.06437e+07
1.08831e+07
1.11274e+07
1.13653e+07
1.15944e+07
1.18259e+07
1.20618e+07
1.22895e+07
1.25082e+07
1.27341e+07
1.2953e+07
1.31624e+07
1.33763e+07
1.3596e+07
1.38069e+07