/*--------------------------------*- C++ -*----------------------------------*\
| =========                 |                                                 |
| \\      /  F ield         | OpenFOAM: The Open Source CFD Toolbox           |
|  \\    /   O peration     | Version:  v2012                                 |
|   \\  /    A nd           | Website:  www.openfoam.com                      |
|    \\/     M anipulation  |                                                 |
\*---------------------------------------------------------------------------*/
FoamFile
{
    version     2.0;
    format      ascii;
    class       volScalarField;
    location    "1e-06";
    object      totalPPrime2Mean;
}
// * * * * * * * * * * * * * * * * * * * * * * * * * * * * * * * * * * * * * //

dimensions      [2 -2 -4 0 0 0 0];


internalField   nonuniform List<scalar> 
10123
(
4.93969e+14
5.21677e+14
5.50157e+14
5.78606e+14
6.0711e+14
6.36305e+14
6.65494e+14
6.94651e+14
7.24387e+14
7.54983e+14
7.85292e+14
8.15572e+14
8.46756e+14
8.77403e+14
9.0777e+14
9.3902e+14
9.7129e+14
1.00308e+15
1.03443e+15
1.06702e+15
1.09888e+15
1.13023e+15
1.16251e+15
1.19594e+15
1.2287e+15
1.26091e+15
1.29448e+15
1.32717e+15
1.35923e+15
1.39217e+15
1.42608e+15
1.45954e+15
1.4922e+15
1.52581e+15
1.56018e+15
1.59406e+15
1.62727e+15
1.66123e+15
1.69481e+15
1.72767e+15
1.76094e+15
1.79473e+15
1.82806e+15
1.86067e+15
1.89349e+15
1.9265e+15
1.95895e+15
1.99079e+15
2.02283e+15
2.05512e+15
2.08617e+15
2.11687e+15
2.14734e+15
2.17718e+15
2.20639e+15
2.23544e+15
2.26436e+15
2.29245e+15
2.31974e+15
2.34711e+15
2.37463e+15
2.40099e+15
2.42634e+15
2.45231e+15
2.47899e+15
2.50423e+15
2.52833e+15
2.5538e+15
2.58053e+15
2.60585e+15
2.62989e+15
2.65609e+15
2.68157e+15
2.70546e+15
2.73166e+15
2.76104e+15
2.79009e+15
2.81804e+15
2.8489e+15
2.88334e+15
2.91757e+15
2.95061e+15
2.98593e+15
3.02383e+15
3.06137e+15
3.09727e+15
3.13482e+15
3.17418e+15
3.21292e+15
3.25063e+15
3.28851e+15
3.32673e+15
3.36513e+15
3.40282e+15
3.44003e+15
3.4761e+15
3.50831e+15
3.53842e+15
3.56592e+15
3.58969e+15
3.60951e+15
3.62928e+15
3.64822e+15
3.66181e+15
3.67034e+15
3.67862e+15
3.68621e+15
3.68818e+15
3.6852e+15
3.68123e+15
3.6774e+15
3.66861e+15
3.65432e+15
3.63752e+15
3.61944e+15
3.59719e+15
3.57214e+15
3.54458e+15
3.51503e+15
3.48484e+15
3.4562e+15
3.4302e+15
3.40087e+15
3.37009e+15
3.34569e+15
3.3275e+15
3.30646e+15
3.28267e+15
4.93907e+14
5.21616e+14
5.501e+14
5.78531e+14
6.07023e+14
6.36261e+14
6.65426e+14
6.9454e+14
7.24317e+14
7.54928e+14
7.85291e+14
8.15503e+14
8.46632e+14
8.77346e+14
9.07694e+14
9.38984e+14
9.71267e+14
1.00308e+15
1.0344e+15
1.06692e+15
1.09883e+15
1.13016e+15
1.16247e+15
1.19591e+15
1.2287e+15
1.26087e+15
1.29433e+15
1.32708e+15
1.35911e+15
1.39208e+15
1.42602e+15
1.45945e+15
1.4921e+15
1.52574e+15
1.56012e+15
1.59398e+15
1.6272e+15
1.66119e+15
1.69475e+15
1.72759e+15
1.76089e+15
1.79469e+15
1.82801e+15
1.86062e+15
1.89345e+15
1.92647e+15
1.95895e+15
1.99077e+15
2.02275e+15
2.05498e+15
2.08603e+15
2.11673e+15
2.1472e+15
2.17705e+15
2.20626e+15
2.23531e+15
2.26424e+15
2.29232e+15
2.31961e+15
2.34699e+15
2.37451e+15
2.40088e+15
2.42623e+15
2.4522e+15
2.47887e+15
2.50413e+15
2.52823e+15
2.55369e+15
2.58043e+15
2.60575e+15
2.62978e+15
2.65598e+15
2.68145e+15
2.70535e+15
2.73153e+15
2.76102e+15
2.79009e+15
2.81804e+15
2.8489e+15
2.88334e+15
2.91757e+15
2.95062e+15
2.98593e+15
3.02383e+15
3.06137e+15
3.09727e+15
3.13482e+15
3.17418e+15
3.21292e+15
3.25063e+15
3.28852e+15
3.32673e+15
3.36513e+15
3.40282e+15
3.44003e+15
3.4761e+15
3.50831e+15
3.53842e+15
3.56592e+15
3.58969e+15
3.60951e+15
3.62928e+15
3.64822e+15
3.66181e+15
3.67034e+15
3.67862e+15
3.68622e+15
3.68819e+15
3.68522e+15
3.68125e+15
3.67743e+15
3.66865e+15
3.65436e+15
3.63756e+15
3.61949e+15
3.59721e+15
3.57217e+15
3.5446e+15
3.51503e+15
3.48484e+15
3.4562e+15
3.43022e+15
3.4009e+15
3.37013e+15
3.34576e+15
3.32757e+15
3.30654e+15
3.28267e+15
4.93878e+14
5.21562e+14
5.5004e+14
5.78483e+14
6.06948e+14
6.36205e+14
6.65371e+14
6.94444e+14
7.2424e+14
7.54878e+14
7.85274e+14
8.15436e+14
8.46552e+14
8.77308e+14
9.07632e+14
9.38941e+14
9.71258e+14
1.00308e+15
1.03437e+15
1.06686e+15
1.09881e+15
1.1301e+15
1.16243e+15
1.19591e+15
1.2287e+15
1.26084e+15
1.29423e+15
1.327e+15
1.359e+15
1.39199e+15
1.42597e+15
1.4594e+15
1.49202e+15
1.52566e+15
1.56007e+15
1.59393e+15
1.62714e+15
1.66115e+15
1.69471e+15
1.72753e+15
1.76084e+15
1.79467e+15
1.82799e+15
1.86058e+15
1.89343e+15
1.92647e+15
1.95895e+15
1.99077e+15
2.02269e+15
2.05483e+15
2.08588e+15
2.11659e+15
2.14706e+15
2.1769e+15
2.20612e+15
2.23517e+15
2.2641e+15
2.29219e+15
2.31948e+15
2.34686e+15
2.37438e+15
2.40075e+15
2.4261e+15
2.45208e+15
2.47876e+15
2.50401e+15
2.52812e+15
2.55358e+15
2.58031e+15
2.60565e+15
2.62968e+15
2.65587e+15
2.68133e+15
2.70522e+15
2.73142e+15
2.76102e+15
2.7901e+15
2.81805e+15
2.8489e+15
2.88335e+15
2.91758e+15
2.95062e+15
2.98593e+15
3.02384e+15
3.06137e+15
3.09728e+15
3.13482e+15
3.17418e+15
3.21292e+15
3.25063e+15
3.28852e+15
3.32674e+15
3.36514e+15
3.40282e+15
3.44003e+15
3.4761e+15
3.50831e+15
3.53843e+15
3.56592e+15
3.58969e+15
3.60951e+15
3.62928e+15
3.64823e+15
3.66182e+15
3.67035e+15
3.67863e+15
3.68623e+15
3.68821e+15
3.68525e+15
3.68128e+15
3.67746e+15
3.6687e+15
3.65442e+15
3.63762e+15
3.61956e+15
3.59726e+15
3.57222e+15
3.54465e+15
3.51506e+15
3.48485e+15
3.4562e+15
3.43027e+15
3.40096e+15
3.3702e+15
3.34584e+15
3.32765e+15
3.30663e+15
3.28267e+15
4.93879e+14
5.21536e+14
5.50001e+14
5.78483e+14
6.0691e+14
6.36175e+14
6.65361e+14
6.94398e+14
7.24197e+14
7.54868e+14
7.85274e+14
8.15411e+14
8.46493e+14
8.77309e+14
9.07623e+14
9.38938e+14
9.71259e+14
1.00308e+15
1.03437e+15
1.06683e+15
1.09881e+15
1.13009e+15
1.16243e+15
1.19591e+15
1.2287e+15
1.26084e+15
1.29417e+15
1.32699e+15
1.35895e+15
1.39195e+15
1.42596e+15
1.4594e+15
1.49199e+15
1.52562e+15
1.56007e+15
1.59393e+15
1.62712e+15
1.66114e+15
1.69471e+15
1.72752e+15
1.76083e+15
1.79467e+15
1.82799e+15
1.86058e+15
1.89342e+15
1.92647e+15
1.95895e+15
1.99077e+15
2.02265e+15
2.05468e+15
2.08573e+15
2.11643e+15
2.14691e+15
2.17676e+15
2.20597e+15
2.23503e+15
2.26396e+15
2.29205e+15
2.31935e+15
2.34672e+15
2.37425e+15
2.40063e+15
2.42598e+15
2.45195e+15
2.47864e+15
2.5039e+15
2.528e+15
2.55346e+15
2.58026e+15
2.6056e+15
2.62962e+15
2.65579e+15
2.6812e+15
2.70509e+15
2.73136e+15
2.76103e+15
2.7901e+15
2.81805e+15
2.84891e+15
2.88335e+15
2.91759e+15
2.95062e+15
2.98594e+15
3.02384e+15
3.06138e+15
3.09728e+15
3.13483e+15
3.17419e+15
3.21293e+15
3.25063e+15
3.28852e+15
3.32674e+15
3.36514e+15
3.40283e+15
3.44004e+15
3.4761e+15
3.50832e+15
3.53843e+15
3.56593e+15
3.5897e+15
3.60952e+15
3.62929e+15
3.64823e+15
3.66182e+15
3.67035e+15
3.67863e+15
3.68624e+15
3.68823e+15
3.68527e+15
3.6813e+15
3.6775e+15
3.66875e+15
3.65448e+15
3.63769e+15
3.61964e+15
3.59734e+15
3.57231e+15
3.54473e+15
3.51512e+15
3.48489e+15
3.45623e+15
3.43038e+15
3.40107e+15
3.37031e+15
3.34593e+15
3.32773e+15
3.30672e+15
3.28274e+15
4.9388e+14
5.21532e+14
5.50001e+14
5.78485e+14
6.06904e+14
6.36175e+14
6.65363e+14
6.94391e+14
7.24187e+14
7.54869e+14
7.85276e+14
8.15409e+14
8.46493e+14
8.7731e+14
9.07624e+14
9.38939e+14
9.7126e+14
1.00308e+15
1.03438e+15
1.06683e+15
1.09881e+15
1.1301e+15
1.16243e+15
1.19591e+15
1.2287e+15
1.26084e+15
1.29417e+15
1.32699e+15
1.35895e+15
1.39194e+15
1.42596e+15
1.4594e+15
1.49199e+15
1.52562e+15
1.56008e+15
1.59393e+15
1.62712e+15
1.66114e+15
1.69471e+15
1.72752e+15
1.76083e+15
1.79468e+15
1.82799e+15
1.86059e+15
1.89342e+15
1.92647e+15
1.95896e+15
1.99077e+15
2.02262e+15
2.05452e+15
2.08557e+15
2.11628e+15
2.14676e+15
2.17661e+15
2.20582e+15
2.23488e+15
2.26382e+15
2.29191e+15
2.31921e+15
2.34659e+15
2.37412e+15
2.4005e+15
2.42585e+15
2.45182e+15
2.47852e+15
2.50382e+15
2.52789e+15
2.55337e+15
2.58026e+15
2.60561e+15
2.6296e+15
2.65579e+15
2.68111e+15
2.70502e+15
2.73135e+15
2.76103e+15
2.79011e+15
2.81806e+15
2.84892e+15
2.88336e+15
2.9176e+15
2.95063e+15
2.98594e+15
3.02385e+15
3.06139e+15
3.09729e+15
3.13484e+15
3.17419e+15
3.21294e+15
3.25064e+15
3.28853e+15
3.32675e+15
3.36515e+15
3.40284e+15
3.44005e+15
3.47611e+15
3.50832e+15
3.53843e+15
3.56594e+15
3.58971e+15
3.60952e+15
3.62929e+15
3.64824e+15
3.66183e+15
3.67036e+15
3.67863e+15
3.68625e+15
3.68826e+15
3.6853e+15
3.68133e+15
3.67753e+15
3.6688e+15
3.65455e+15
3.63776e+15
3.61973e+15
3.59743e+15
3.57241e+15
3.54484e+15
3.51521e+15
3.48497e+15
3.45629e+15
3.43049e+15
3.4012e+15
3.37042e+15
3.34602e+15
3.32783e+15
3.30682e+15
3.28283e+15
4.93883e+14
5.21524e+14
5.49993e+14
5.78486e+14
6.06883e+14
6.36153e+14
6.65363e+14
6.94359e+14
7.24144e+14
7.54869e+14
7.85279e+14
8.15386e+14
8.46474e+14
8.77312e+14
9.07624e+14
9.38931e+14
9.71264e+14
1.00309e+15
1.03438e+15
1.06683e+15
1.09881e+15
1.1301e+15
1.16242e+15
1.19591e+15
1.22871e+15
1.26084e+15
1.29414e+15
1.32699e+15
1.35892e+15
1.3919e+15
1.42596e+15
1.4594e+15
1.49198e+15
1.52559e+15
1.56008e+15
1.59394e+15
1.62712e+15
1.66115e+15
1.69472e+15
1.72752e+15
1.76083e+15
1.79468e+15
1.828e+15
1.86059e+15
1.89343e+15
1.92648e+15
1.95896e+15
1.99077e+15
2.02261e+15
2.05436e+15
2.0854e+15
2.11611e+15
2.1466e+15
2.17645e+15
2.20567e+15
2.23473e+15
2.26367e+15
2.29177e+15
2.31907e+15
2.34644e+15
2.37398e+15
2.40037e+15
2.42572e+15
2.45169e+15
2.4784e+15
2.50373e+15
2.52778e+15
2.55325e+15
2.58025e+15
2.60561e+15
2.62958e+15
2.65579e+15
2.68103e+15
2.70494e+15
2.73135e+15
2.76104e+15
2.79012e+15
2.81807e+15
2.84893e+15
2.88337e+15
2.91761e+15
2.95064e+15
2.98595e+15
3.02387e+15
3.0614e+15
3.0973e+15
3.13485e+15
3.17421e+15
3.21295e+15
3.25065e+15
3.28854e+15
3.32677e+15
3.36516e+15
3.40285e+15
3.44007e+15
3.47611e+15
3.50832e+15
3.53843e+15
3.56595e+15
3.58972e+15
3.60953e+15
3.6293e+15
3.64824e+15
3.66183e+15
3.67036e+15
3.67864e+15
3.68627e+15
3.68828e+15
3.68533e+15
3.68137e+15
3.67757e+15
3.66886e+15
3.65462e+15
3.63784e+15
3.61982e+15
3.59753e+15
3.57252e+15
3.54496e+15
3.51532e+15
3.48505e+15
3.45635e+15
3.43062e+15
3.40133e+15
3.37053e+15
3.34612e+15
3.32792e+15
3.30693e+15
3.28291e+15
4.93887e+14
5.21525e+14
5.49994e+14
5.78489e+14
6.06884e+14
6.36153e+14
6.65365e+14
6.9436e+14
7.24139e+14
7.5487e+14
7.85282e+14
8.15387e+14
8.46475e+14
8.77315e+14
9.07626e+14
9.38932e+14
9.71267e+14
1.00309e+15
1.03438e+15
1.06684e+15
1.09882e+15
1.1301e+15
1.16243e+15
1.19592e+15
1.22871e+15
1.26084e+15
1.29414e+15
1.32699e+15
1.35892e+15
1.3919e+15
1.42597e+15
1.45941e+15
1.49198e+15
1.52559e+15
1.56008e+15
1.59394e+15
1.62712e+15
1.66115e+15
1.69472e+15
1.72753e+15
1.76084e+15
1.79468e+15
1.828e+15
1.86059e+15
1.89343e+15
1.92648e+15
1.95897e+15
1.99078e+15
2.02261e+15
2.0542e+15
2.08524e+15
2.11594e+15
2.14643e+15
2.17629e+15
2.20551e+15
2.23457e+15
2.26352e+15
2.29162e+15
2.31892e+15
2.3463e+15
2.37384e+15
2.40025e+15
2.42559e+15
2.45155e+15
2.47835e+15
2.50371e+15
2.52774e+15
2.55321e+15
2.58026e+15
2.60561e+15
2.62958e+15
2.65579e+15
2.68103e+15
2.70494e+15
2.73136e+15
2.76105e+15
2.79013e+15
2.81809e+15
2.84894e+15
2.88339e+15
2.91763e+15
2.95065e+15
2.98597e+15
3.02388e+15
3.06142e+15
3.09732e+15
3.13487e+15
3.17422e+15
3.21297e+15
3.25067e+15
3.28856e+15
3.32678e+15
3.36518e+15
3.40287e+15
3.44009e+15
3.47612e+15
3.50833e+15
3.53843e+15
3.56596e+15
3.58973e+15
3.60954e+15
3.62931e+15
3.64825e+15
3.66184e+15
3.67036e+15
3.67865e+15
3.68629e+15
3.68832e+15
3.68536e+15
3.6814e+15
3.67762e+15
3.66892e+15
3.6547e+15
3.63793e+15
3.61991e+15
3.59764e+15
3.57264e+15
3.54509e+15
3.51545e+15
3.48517e+15
3.45647e+15
3.43075e+15
3.40147e+15
3.37066e+15
3.34623e+15
3.32802e+15
3.30704e+15
3.28301e+15
4.93891e+14
5.21527e+14
5.49997e+14
5.78492e+14
6.06885e+14
6.36155e+14
6.65368e+14
6.94362e+14
7.2414e+14
7.54873e+14
7.85286e+14
8.15389e+14
8.46478e+14
8.77319e+14
9.07629e+14
9.38935e+14
9.71271e+14
1.0031e+15
1.03438e+15
1.06684e+15
1.09882e+15
1.1301e+15
1.16243e+15
1.19592e+15
1.22872e+15
1.26085e+15
1.29415e+15
1.32699e+15
1.35893e+15
1.3919e+15
1.42597e+15
1.45941e+15
1.49199e+15
1.5256e+15
1.56009e+15
1.59395e+15
1.62713e+15
1.66115e+15
1.69473e+15
1.72753e+15
1.76084e+15
1.79469e+15
1.82801e+15
1.8606e+15
1.89343e+15
1.92649e+15
1.95898e+15
1.99078e+15
2.02261e+15
2.05409e+15
2.08506e+15
2.11577e+15
2.14626e+15
2.17612e+15
2.20534e+15
2.23441e+15
2.26336e+15
2.29147e+15
2.31877e+15
2.34615e+15
2.37375e+15
2.4002e+15
2.42549e+15
2.45146e+15
2.47835e+15
2.50372e+15
2.52774e+15
2.55322e+15
2.58027e+15
2.60563e+15
2.62959e+15
2.6558e+15
2.68104e+15
2.70495e+15
2.73137e+15
2.76107e+15
2.79015e+15
2.8181e+15
2.84896e+15
2.88341e+15
2.91765e+15
2.95067e+15
2.98599e+15
3.02391e+15
3.06144e+15
3.09734e+15
3.13489e+15
3.17425e+15
3.21299e+15
3.25069e+15
3.28858e+15
3.32681e+15
3.3652e+15
3.4029e+15
3.44011e+15
3.47613e+15
3.50833e+15
3.53844e+15
3.56598e+15
3.58975e+15
3.60955e+15
3.62932e+15
3.64826e+15
3.66184e+15
3.67036e+15
3.67866e+15
3.68632e+15
3.68835e+15
3.6854e+15
3.68144e+15
3.67767e+15
3.66898e+15
3.65478e+15
3.63801e+15
3.62002e+15
3.59775e+15
3.57277e+15
3.54522e+15
3.51559e+15
3.48531e+15
3.4566e+15
3.43089e+15
3.40161e+15
3.37079e+15
3.34634e+15
3.32814e+15
3.30717e+15
3.2831e+15
4.93896e+14
5.21531e+14
5.5e+14
5.78497e+14
6.06889e+14
6.36158e+14
6.65371e+14
6.94366e+14
7.24143e+14
7.54875e+14
7.8529e+14
8.15392e+14
8.46482e+14
8.77324e+14
9.07633e+14
9.38938e+14
9.71275e+14
1.0031e+15
1.03439e+15
1.06684e+15
1.09883e+15
1.13011e+15
1.16243e+15
1.19593e+15
1.22873e+15
1.26085e+15
1.29415e+15
1.327e+15
1.35893e+15
1.39191e+15
1.42598e+15
1.45942e+15
1.49199e+15
1.5256e+15
1.56009e+15
1.59395e+15
1.62713e+15
1.66116e+15
1.69474e+15
1.72754e+15
1.76085e+15
1.7947e+15
1.82802e+15
1.86061e+15
1.89344e+15
1.9265e+15
1.95898e+15
1.99079e+15
2.02261e+15
2.05404e+15
2.08491e+15
2.11559e+15
2.14609e+15
2.17597e+15
2.20518e+15
2.23424e+15
2.26324e+15
2.29139e+15
2.31866e+15
2.34604e+15
2.37372e+15
2.4002e+15
2.42546e+15
2.45144e+15
2.47836e+15
2.50372e+15
2.52774e+15
2.55323e+15
2.58028e+15
2.60564e+15
2.6296e+15
2.65582e+15
2.68105e+15
2.70496e+15
2.73139e+15
2.76109e+15
2.79017e+15
2.81812e+15
2.84898e+15
2.88344e+15
2.91768e+15
2.95069e+15
2.98601e+15
3.02393e+15
3.06147e+15
3.09737e+15
3.13491e+15
3.17428e+15
3.21302e+15
3.25072e+15
3.28861e+15
3.32684e+15
3.36523e+15
3.40293e+15
3.44015e+15
3.47614e+15
3.50834e+15
3.53844e+15
3.56601e+15
3.58977e+15
3.60957e+15
3.62933e+15
3.64828e+15
3.66185e+15
3.67037e+15
3.67867e+15
3.68634e+15
3.68839e+15
3.68544e+15
3.68148e+15
3.67772e+15
3.66905e+15
3.65486e+15
3.63811e+15
3.62012e+15
3.59787e+15
3.5729e+15
3.54536e+15
3.51574e+15
3.48545e+15
3.45674e+15
3.43104e+15
3.40177e+15
3.37094e+15
3.34646e+15
3.32826e+15
3.3073e+15
3.28321e+15
4.93903e+14
5.21535e+14
5.50005e+14
5.78502e+14
6.06894e+14
6.36162e+14
6.65376e+14
6.9437e+14
7.24148e+14
7.54879e+14
7.85296e+14
8.15396e+14
8.46486e+14
8.77329e+14
9.07638e+14
9.38941e+14
9.71281e+14
1.00311e+15
1.03439e+15
1.06685e+15
1.09884e+15
1.13011e+15
1.16244e+15
1.19593e+15
1.22873e+15
1.26086e+15
1.29416e+15
1.32701e+15
1.35894e+15
1.39192e+15
1.42598e+15
1.45943e+15
1.492e+15
1.52561e+15
1.5601e+15
1.59396e+15
1.62714e+15
1.66117e+15
1.69474e+15
1.72755e+15
1.76085e+15
1.7947e+15
1.82803e+15
1.86061e+15
1.89345e+15
1.92651e+15
1.95899e+15
1.9908e+15
2.02262e+15
2.05404e+15
2.08482e+15
2.11545e+15
2.14596e+15
2.17587e+15
2.20506e+15
2.23412e+15
2.26318e+15
2.29136e+15
2.31861e+15
2.346e+15
2.37372e+15
2.4002e+15
2.42547e+15
2.45145e+15
2.47837e+15
2.50374e+15
2.52775e+15
2.55324e+15
2.5803e+15
2.60566e+15
2.62962e+15
2.65583e+15
2.68107e+15
2.70498e+15
2.73141e+15
2.76111e+15
2.79019e+15
2.81815e+15
2.849e+15
2.88347e+15
2.91771e+15
2.95072e+15
2.98604e+15
3.02397e+15
3.0615e+15
3.0974e+15
3.13495e+15
3.17431e+15
3.21306e+15
3.25075e+15
3.28865e+15
3.32688e+15
3.36527e+15
3.40297e+15
3.44018e+15
3.47616e+15
3.50835e+15
3.53845e+15
3.56604e+15
3.5898e+15
3.60959e+15
3.62935e+15
3.64829e+15
3.66186e+15
3.67038e+15
3.67869e+15
3.68637e+15
3.68842e+15
3.68548e+15
3.68153e+15
3.67778e+15
3.66912e+15
3.65495e+15
3.63821e+15
3.62024e+15
3.59799e+15
3.57304e+15
3.54551e+15
3.51589e+15
3.4856e+15
3.45688e+15
3.4312e+15
3.40194e+15
3.37109e+15
3.3466e+15
3.32839e+15
3.30744e+15
3.28332e+15
4.93911e+14
5.21541e+14
5.50009e+14
5.78509e+14
6.06897e+14
6.36162e+14
6.65382e+14
6.94373e+14
7.24149e+14
7.54884e+14
7.85304e+14
8.154e+14
8.46488e+14
8.77336e+14
9.07645e+14
9.38944e+14
9.7129e+14
1.00312e+15
1.0344e+15
1.06686e+15
1.09885e+15
1.13012e+15
1.16244e+15
1.19594e+15
1.22875e+15
1.26087e+15
1.29416e+15
1.32701e+15
1.35894e+15
1.39192e+15
1.42599e+15
1.45944e+15
1.492e+15
1.52561e+15
1.56011e+15
1.59397e+15
1.62715e+15
1.66118e+15
1.69476e+15
1.72756e+15
1.76086e+15
1.79471e+15
1.82804e+15
1.86062e+15
1.89346e+15
1.92652e+15
1.95901e+15
1.99081e+15
2.02262e+15
2.05404e+15
2.08477e+15
2.11534e+15
2.14585e+15
2.1758e+15
2.20498e+15
2.23402e+15
2.26312e+15
2.29135e+15
2.31858e+15
2.34595e+15
2.37372e+15
2.4002e+15
2.42547e+15
2.45145e+15
2.47838e+15
2.50375e+15
2.52777e+15
2.55325e+15
2.58032e+15
2.60568e+15
2.62964e+15
2.65585e+15
2.68109e+15
2.705e+15
2.73143e+15
2.76113e+15
2.79022e+15
2.81818e+15
2.84903e+15
2.88351e+15
2.91776e+15
2.95076e+15
2.98607e+15
3.02401e+15
3.06155e+15
3.09744e+15
3.13499e+15
3.17435e+15
3.21311e+15
3.25079e+15
3.28869e+15
3.32692e+15
3.36531e+15
3.40301e+15
3.44023e+15
3.47618e+15
3.50837e+15
3.53846e+15
3.56607e+15
3.58983e+15
3.60961e+15
3.62937e+15
3.64831e+15
3.66188e+15
3.6704e+15
3.67872e+15
3.68641e+15
3.68847e+15
3.68553e+15
3.68159e+15
3.67785e+15
3.6692e+15
3.65505e+15
3.63832e+15
3.62037e+15
3.59813e+15
3.57319e+15
3.54567e+15
3.51605e+15
3.48575e+15
3.45703e+15
3.43136e+15
3.40212e+15
3.37125e+15
3.34673e+15
3.32852e+15
3.30758e+15
3.28344e+15
4.9392e+14
5.21548e+14
5.50016e+14
5.78518e+14
6.06904e+14
6.36167e+14
6.65389e+14
6.94379e+14
7.24152e+14
7.5489e+14
7.85312e+14
8.15406e+14
8.46495e+14
8.77345e+14
9.07653e+14
9.38951e+14
9.71299e+14
1.00313e+15
1.03441e+15
1.06687e+15
1.09886e+15
1.13013e+15
1.16245e+15
1.19595e+15
1.22876e+15
1.26087e+15
1.29417e+15
1.32702e+15
1.35895e+15
1.39192e+15
1.426e+15
1.45945e+15
1.49201e+15
1.52562e+15
1.56012e+15
1.59398e+15
1.62716e+15
1.66119e+15
1.69477e+15
1.72757e+15
1.76087e+15
1.79473e+15
1.82806e+15
1.86064e+15
1.89347e+15
1.92653e+15
1.95902e+15
1.99082e+15
2.02263e+15
2.05404e+15
2.08478e+15
2.11529e+15
2.14581e+15
2.17578e+15
2.20495e+15
2.23399e+15
2.26312e+15
2.29135e+15
2.31858e+15
2.34595e+15
2.37372e+15
2.40021e+15
2.42548e+15
2.45146e+15
2.47839e+15
2.50377e+15
2.52778e+15
2.55326e+15
2.58034e+15
2.6057e+15
2.62966e+15
2.65587e+15
2.68111e+15
2.70502e+15
2.73146e+15
2.76116e+15
2.79026e+15
2.81821e+15
2.84907e+15
2.88356e+15
2.9178e+15
2.9508e+15
2.98611e+15
3.02405e+15
3.06159e+15
3.09749e+15
3.13503e+15
3.1744e+15
3.21316e+15
3.25084e+15
3.28874e+15
3.32697e+15
3.36536e+15
3.40306e+15
3.44028e+15
3.47621e+15
3.50838e+15
3.53848e+15
3.56611e+15
3.58987e+15
3.60964e+15
3.6294e+15
3.64834e+15
3.6619e+15
3.67043e+15
3.67876e+15
3.68645e+15
3.68853e+15
3.68559e+15
3.68166e+15
3.67793e+15
3.66929e+15
3.65515e+15
3.63844e+15
3.6205e+15
3.59827e+15
3.57335e+15
3.54584e+15
3.51622e+15
3.48592e+15
3.45719e+15
3.43153e+15
3.4023e+15
3.37141e+15
3.34687e+15
3.32867e+15
3.30773e+15
3.28355e+15
4.93931e+14
5.21556e+14
5.50024e+14
5.78527e+14
6.06912e+14
6.36174e+14
6.65397e+14
6.94387e+14
7.24159e+14
7.54898e+14
7.85322e+14
8.15414e+14
8.46503e+14
8.77355e+14
9.07662e+14
9.38959e+14
9.7131e+14
1.00314e+15
1.03442e+15
1.06687e+15
1.09887e+15
1.13014e+15
1.16246e+15
1.19597e+15
1.22877e+15
1.26088e+15
1.29418e+15
1.32703e+15
1.35896e+15
1.39193e+15
1.42601e+15
1.45946e+15
1.49203e+15
1.52563e+15
1.56013e+15
1.594e+15
1.62717e+15
1.6612e+15
1.69478e+15
1.72758e+15
1.76088e+15
1.79474e+15
1.82807e+15
1.86065e+15
1.89348e+15
1.92655e+15
1.95904e+15
1.99083e+15
2.02264e+15
2.05405e+15
2.08478e+15
2.1153e+15
2.14581e+15
2.17578e+15
2.20495e+15
2.23399e+15
2.26312e+15
2.29135e+15
2.31858e+15
2.34595e+15
2.37373e+15
2.40023e+15
2.42549e+15
2.45147e+15
2.47841e+15
2.50379e+15
2.52781e+15
2.55328e+15
2.58037e+15
2.60573e+15
2.62969e+15
2.6559e+15
2.68114e+15
2.70505e+15
2.73149e+15
2.7612e+15
2.7903e+15
2.81825e+15
2.84911e+15
2.88361e+15
2.91786e+15
2.95085e+15
2.98616e+15
3.02411e+15
3.06165e+15
3.09754e+15
3.13509e+15
3.17446e+15
3.21322e+15
3.2509e+15
3.28879e+15
3.32703e+15
3.36541e+15
3.40312e+15
3.44034e+15
3.47624e+15
3.5084e+15
3.5385e+15
3.56615e+15
3.58991e+15
3.60968e+15
3.62943e+15
3.64837e+15
3.66194e+15
3.67046e+15
3.6788e+15
3.6865e+15
3.68859e+15
3.68566e+15
3.68173e+15
3.67801e+15
3.66939e+15
3.65527e+15
3.63857e+15
3.62064e+15
3.59843e+15
3.57351e+15
3.54602e+15
3.51641e+15
3.48609e+15
3.45736e+15
3.43172e+15
3.40249e+15
3.37159e+15
3.34702e+15
3.32882e+15
3.30788e+15
3.28368e+15
4.93943e+14
5.21566e+14
5.50033e+14
5.78538e+14
6.06921e+14
6.36182e+14
6.65408e+14
6.94396e+14
7.24167e+14
7.54907e+14
7.85333e+14
8.15424e+14
8.46512e+14
8.77367e+14
9.07673e+14
9.38968e+14
9.71323e+14
1.00316e+15
1.03443e+15
1.06689e+15
1.09888e+15
1.13015e+15
1.16247e+15
1.19598e+15
1.22879e+15
1.2609e+15
1.29419e+15
1.32705e+15
1.35897e+15
1.39194e+15
1.42602e+15
1.45948e+15
1.49204e+15
1.52564e+15
1.56015e+15
1.59401e+15
1.62718e+15
1.66121e+15
1.6948e+15
1.72759e+15
1.7609e+15
1.79476e+15
1.82809e+15
1.86067e+15
1.89349e+15
1.92656e+15
1.95906e+15
1.99084e+15
2.02265e+15
2.05406e+15
2.08478e+15
2.1153e+15
2.14581e+15
2.17578e+15
2.20496e+15
2.23399e+15
2.26312e+15
2.29136e+15
2.31859e+15
2.34596e+15
2.37375e+15
2.40025e+15
2.42551e+15
2.45149e+15
2.47844e+15
2.50382e+15
2.52784e+15
2.55331e+15
2.5804e+15
2.60576e+15
2.62972e+15
2.65593e+15
2.68117e+15
2.70508e+15
2.73152e+15
2.76124e+15
2.79034e+15
2.81829e+15
2.84916e+15
2.88367e+15
2.91792e+15
2.9509e+15
2.98622e+15
3.02417e+15
3.06171e+15
3.0976e+15
3.13515e+15
3.17452e+15
3.21329e+15
3.25097e+15
3.28886e+15
3.3271e+15
3.36548e+15
3.40319e+15
3.4404e+15
3.47628e+15
3.50843e+15
3.53852e+15
3.5662e+15
3.58996e+15
3.60971e+15
3.62947e+15
3.6484e+15
3.66197e+15
3.6705e+15
3.67885e+15
3.68655e+15
3.68866e+15
3.68573e+15
3.68181e+15
3.6781e+15
3.66949e+15
3.65539e+15
3.63871e+15
3.6208e+15
3.59859e+15
3.57369e+15
3.54621e+15
3.5166e+15
3.48628e+15
3.45754e+15
3.43192e+15
3.4027e+15
3.37177e+15
3.34719e+15
3.32898e+15
3.30805e+15
3.28381e+15
4.93957e+14
5.21577e+14
5.50044e+14
5.7855e+14
6.06932e+14
6.36191e+14
6.65419e+14
6.94407e+14
7.24177e+14
7.54917e+14
7.85346e+14
8.15434e+14
8.46523e+14
8.7738e+14
9.07685e+14
9.38979e+14
9.71337e+14
1.00317e+15
1.03444e+15
1.0669e+15
1.0989e+15
1.13017e+15
1.16248e+15
1.196e+15
1.22881e+15
1.26091e+15
1.2942e+15
1.32706e+15
1.35899e+15
1.39196e+15
1.42604e+15
1.4595e+15
1.49205e+15
1.52565e+15
1.56017e+15
1.59403e+15
1.6272e+15
1.66123e+15
1.69482e+15
1.72761e+15
1.76091e+15
1.79477e+15
1.82811e+15
1.86068e+15
1.89351e+15
1.92658e+15
1.95908e+15
1.99086e+15
2.02267e+15
2.05407e+15
2.08479e+15
2.1153e+15
2.14581e+15
2.17579e+15
2.20496e+15
2.234e+15
2.26314e+15
2.29138e+15
2.31861e+15
2.34598e+15
2.37377e+15
2.40027e+15
2.42554e+15
2.45151e+15
2.47847e+15
2.50385e+15
2.52787e+15
2.55335e+15
2.58043e+15
2.6058e+15
2.62976e+15
2.65597e+15
2.68121e+15
2.70512e+15
2.73156e+15
2.76128e+15
2.7904e+15
2.81834e+15
2.84921e+15
2.88374e+15
2.91799e+15
2.95096e+15
2.98628e+15
3.02424e+15
3.06179e+15
3.09767e+15
3.13522e+15
3.17459e+15
3.21337e+15
3.25104e+15
3.28893e+15
3.32718e+15
3.36556e+15
3.40327e+15
3.44047e+15
3.47632e+15
3.50846e+15
3.53856e+15
3.56626e+15
3.59001e+15
3.60976e+15
3.62951e+15
3.64845e+15
3.66202e+15
3.67055e+15
3.6789e+15
3.68661e+15
3.68873e+15
3.6858e+15
3.68189e+15
3.6782e+15
3.6696e+15
3.65552e+15
3.63886e+15
3.62096e+15
3.59876e+15
3.57388e+15
3.54641e+15
3.51681e+15
3.48648e+15
3.45774e+15
3.43212e+15
3.40292e+15
3.37197e+15
3.34736e+15
3.32915e+15
3.30822e+15
3.28395e+15
4.93974e+14
5.2159e+14
5.50057e+14
5.78565e+14
6.06945e+14
6.36203e+14
6.65433e+14
6.9442e+14
7.24189e+14
7.5493e+14
7.85361e+14
8.15447e+14
8.46536e+14
8.77396e+14
9.077e+14
9.38993e+14
9.71354e+14
1.00319e+15
1.03446e+15
1.06691e+15
1.09892e+15
1.13018e+15
1.1625e+15
1.19601e+15
1.22883e+15
1.26093e+15
1.29422e+15
1.32708e+15
1.35901e+15
1.39197e+15
1.42606e+15
1.45952e+15
1.49207e+15
1.52567e+15
1.56019e+15
1.59405e+15
1.62721e+15
1.66125e+15
1.69484e+15
1.72763e+15
1.76093e+15
1.7948e+15
1.82814e+15
1.8607e+15
1.89353e+15
1.92661e+15
1.9591e+15
1.99088e+15
2.02268e+15
2.05409e+15
2.0848e+15
2.11531e+15
2.14582e+15
2.17581e+15
2.20498e+15
2.23401e+15
2.26315e+15
2.2914e+15
2.31863e+15
2.346e+15
2.3738e+15
2.4003e+15
2.42557e+15
2.45155e+15
2.4785e+15
2.50389e+15
2.52791e+15
2.55338e+15
2.58047e+15
2.60584e+15
2.6298e+15
2.65601e+15
2.68125e+15
2.70516e+15
2.7316e+15
2.76133e+15
2.79046e+15
2.8184e+15
2.84927e+15
2.88381e+15
2.91807e+15
2.95104e+15
2.98635e+15
3.02432e+15
3.06187e+15
3.09775e+15
3.1353e+15
3.17468e+15
3.21345e+15
3.25112e+15
3.28902e+15
3.32727e+15
3.36564e+15
3.40336e+15
3.44055e+15
3.47637e+15
3.50849e+15
3.53859e+15
3.56632e+15
3.59007e+15
3.6098e+15
3.62955e+15
3.6485e+15
3.66208e+15
3.6706e+15
3.67896e+15
3.68668e+15
3.68881e+15
3.68589e+15
3.68199e+15
3.67831e+15
3.66972e+15
3.65566e+15
3.63902e+15
3.62113e+15
3.59895e+15
3.57409e+15
3.54663e+15
3.51703e+15
3.4867e+15
3.45795e+15
3.43235e+15
3.40314e+15
3.37218e+15
3.34754e+15
3.32933e+15
3.30841e+15
3.2841e+15
4.93992e+14
5.21606e+14
5.50072e+14
5.78581e+14
6.06959e+14
6.36215e+14
6.65448e+14
6.94434e+14
7.24202e+14
7.54945e+14
7.85377e+14
8.15462e+14
8.46551e+14
8.77414e+14
9.07717e+14
9.39008e+14
9.71373e+14
1.00321e+15
1.03448e+15
1.06693e+15
1.09894e+15
1.1302e+15
1.16251e+15
1.19604e+15
1.22885e+15
1.26095e+15
1.29424e+15
1.3271e+15
1.35903e+15
1.39199e+15
1.42608e+15
1.45954e+15
1.49209e+15
1.52569e+15
1.56021e+15
1.59408e+15
1.62723e+15
1.66127e+15
1.69487e+15
1.72765e+15
1.76095e+15
1.79482e+15
1.82816e+15
1.86073e+15
1.89355e+15
1.92664e+15
1.95913e+15
1.99091e+15
2.02271e+15
2.05411e+15
2.08482e+15
2.11532e+15
2.14584e+15
2.17583e+15
2.205e+15
2.23403e+15
2.26318e+15
2.29143e+15
2.31866e+15
2.34603e+15
2.37383e+15
2.40034e+15
2.4256e+15
2.45158e+15
2.47855e+15
2.50393e+15
2.52795e+15
2.55343e+15
2.58052e+15
2.60589e+15
2.62984e+15
2.65605e+15
2.68129e+15
2.70521e+15
2.73165e+15
2.76139e+15
2.79052e+15
2.81846e+15
2.84934e+15
2.88389e+15
2.91816e+15
2.95112e+15
2.98643e+15
3.02441e+15
3.06196e+15
3.09785e+15
3.13539e+15
3.17477e+15
3.21355e+15
3.25122e+15
3.28911e+15
3.32737e+15
3.36574e+15
3.40346e+15
3.44064e+15
3.47643e+15
3.50854e+15
3.53864e+15
3.56638e+15
3.59014e+15
3.60986e+15
3.62961e+15
3.64857e+15
3.66214e+15
3.67067e+15
3.67903e+15
3.68676e+15
3.6889e+15
3.68598e+15
3.68209e+15
3.67843e+15
3.66985e+15
3.65582e+15
3.63919e+15
3.62132e+15
3.59915e+15
3.5743e+15
3.54686e+15
3.51726e+15
3.48692e+15
3.45817e+15
3.43258e+15
3.40339e+15
3.3724e+15
3.34774e+15
3.32953e+15
3.3086e+15
3.28426e+15
4.94012e+14
5.21623e+14
5.50089e+14
5.78599e+14
6.06976e+14
6.3623e+14
6.65466e+14
6.94451e+14
7.24218e+14
7.54963e+14
7.85396e+14
8.15479e+14
8.46569e+14
8.77434e+14
9.07737e+14
9.39025e+14
9.71395e+14
1.00324e+15
1.0345e+15
1.06695e+15
1.09896e+15
1.13022e+15
1.16254e+15
1.19606e+15
1.22888e+15
1.26097e+15
1.29426e+15
1.32713e+15
1.35905e+15
1.39201e+15
1.42611e+15
1.45957e+15
1.49212e+15
1.52571e+15
1.56024e+15
1.5941e+15
1.62726e+15
1.66129e+15
1.6949e+15
1.72768e+15
1.76097e+15
1.79485e+15
1.8282e+15
1.86076e+15
1.89358e+15
1.92667e+15
1.95916e+15
1.99094e+15
2.02273e+15
2.05413e+15
2.08485e+15
2.11535e+15
2.14587e+15
2.17585e+15
2.20503e+15
2.23406e+15
2.26321e+15
2.29146e+15
2.31869e+15
2.34607e+15
2.37387e+15
2.40038e+15
2.42565e+15
2.45163e+15
2.47859e+15
2.50398e+15
2.52799e+15
2.55347e+15
2.58057e+15
2.60594e+15
2.62989e+15
2.65611e+15
2.68134e+15
2.70526e+15
2.73171e+15
2.76145e+15
2.7906e+15
2.81854e+15
2.84942e+15
2.88399e+15
2.91825e+15
2.95121e+15
2.98652e+15
3.02451e+15
3.06207e+15
3.09795e+15
3.13549e+15
3.17487e+15
3.21367e+15
3.25132e+15
3.28922e+15
3.32747e+15
3.36584e+15
3.40356e+15
3.44074e+15
3.47649e+15
3.50858e+15
3.53869e+15
3.56646e+15
3.59022e+15
3.60993e+15
3.62968e+15
3.64865e+15
3.66222e+15
3.67074e+15
3.6791e+15
3.68684e+15
3.689e+15
3.68609e+15
3.68221e+15
3.67856e+15
3.67e+15
3.65598e+15
3.63938e+15
3.62152e+15
3.59936e+15
3.57453e+15
3.5471e+15
3.5175e+15
3.48717e+15
3.45841e+15
3.43283e+15
3.40364e+15
3.37264e+15
3.34795e+15
3.32973e+15
3.3088e+15
3.28443e+15
4.94035e+14
5.21642e+14
5.50108e+14
5.7862e+14
6.06993e+14
6.36246e+14
6.65485e+14
6.94469e+14
7.24233e+14
7.54981e+14
7.85416e+14
8.15495e+14
8.46587e+14
8.77455e+14
9.07757e+14
9.39043e+14
9.71418e+14
1.00326e+15
1.03452e+15
1.06697e+15
1.09899e+15
1.13025e+15
1.16256e+15
1.19609e+15
1.2289e+15
1.26099e+15
1.29428e+15
1.32715e+15
1.35907e+15
1.39203e+15
1.42613e+15
1.4596e+15
1.49214e+15
1.52573e+15
1.56027e+15
1.59413e+15
1.62728e+15
1.66132e+15
1.69493e+15
1.72771e+15
1.761e+15
1.79488e+15
1.82823e+15
1.86079e+15
1.89361e+15
1.9267e+15
1.9592e+15
1.99097e+15
2.02276e+15
2.05416e+15
2.08487e+15
2.11537e+15
2.14589e+15
2.17588e+15
2.20506e+15
2.23409e+15
2.26324e+15
2.29149e+15
2.31873e+15
2.3461e+15
2.37391e+15
2.40042e+15
2.42569e+15
2.45167e+15
2.47864e+15
2.50403e+15
2.52804e+15
2.55352e+15
2.58063e+15
2.60599e+15
2.62994e+15
2.65616e+15
2.6814e+15
2.70532e+15
2.73176e+15
2.76152e+15
2.79068e+15
2.81862e+15
2.8495e+15
2.88408e+15
2.91836e+15
2.9513e+15
2.98662e+15
3.02462e+15
3.06218e+15
3.09806e+15
3.1356e+15
3.17499e+15
3.21379e+15
3.25144e+15
3.28934e+15
3.32759e+15
3.36596e+15
3.40368e+15
3.44084e+15
3.47657e+15
3.50864e+15
3.53875e+15
3.56654e+15
3.5903e+15
3.61e+15
3.62975e+15
3.64872e+15
3.66229e+15
3.6708e+15
3.67916e+15
3.68691e+15
3.68909e+15
3.68618e+15
3.68232e+15
3.67868e+15
3.67014e+15
3.65615e+15
3.63956e+15
3.62173e+15
3.59959e+15
3.57478e+15
3.54736e+15
3.51777e+15
3.48743e+15
3.45868e+15
3.43311e+15
3.40393e+15
3.3729e+15
3.34819e+15
3.32998e+15
3.30905e+15
3.28462e+15
4.9406e+14
5.21663e+14
5.50129e+14
5.78642e+14
6.07012e+14
6.36263e+14
6.65506e+14
6.9449e+14
7.24251e+14
7.55e+14
7.85438e+14
8.15513e+14
8.46607e+14
8.77479e+14
9.0778e+14
9.39063e+14
9.71442e+14
1.00329e+15