/*--------------------------------*- C++ -*----------------------------------*\
| =========                 |                                                 |
| \\      /  F ield         | OpenFOAM: The Open Source CFD Toolbox           |
|  \\    /   O peration     | Version:  v2012                                 |
|   \\  /    A nd           | Website:  www.openfoam.com                      |
|    \\/     M anipulation  |                                                 |
\*---------------------------------------------------------------------------*/
FoamFile
{
    version     2.0;
    format      ascii;
    class       volVectorField;
    location    "1e-06";
    object      U;
}
// * * * * * * * * * * * * * * * * * * * * * * * * * * * * * * * * * * * * * //

dimensions      [0 1 -1 0 0 0 0];


internalField   nonuniform List<vector> 
10123
(
(-2.41493 0.312797 2.6415e-31)
(-2.37089 0.306922 -1.87729e-31)
(-2.33447 0.301921 -9.81875e-32)
(-2.30015 0.297949 2.31156e-29)
(-2.27741 0.295032 -3.45281e-29)
(-2.23401 0.288446 2.01715e-29)
(-2.18263 0.282369 2.34134e-29)
(-2.16345 0.280497 2.93792e-29)
(-2.13603 0.276015 2.20142e-32)
(-2.07056 0.267401 -2.47142e-29)
(-2.04753 0.263552 4.49444e-37)
(-1.93038 0.249888 -4.72394e-32)
(-1.96136 0.254944 0)
(-1.91716 0.248046 -1.26542e-31)
(-1.89043 0.244926 2.65886e-29)
(-1.85739 0.239961 -1.14396e-31)
(-1.79167 0.231426 1.66215e-29)
(-1.76865 0.227695 6.35411e-30)
(-1.65811 0.214647 -4.0109e-29)
(-1.67605 0.217638 3.33735e-31)
(-1.63488 0.211376 -1.7589e-31)
(-1.60301 0.207494 1.39981e-37)
(-1.56975 0.202671 -1.44768e-31)
(-1.50873 0.194744 -1.4484e-29)
(-1.48446 0.191009 0)
(-1.38849 0.179832 1.79737e-29)
(-1.39848 0.18247 0)
(-1.35833 0.176508 -5.21216e-32)
(-1.32736 0.172791 2.78744e-29)
(-1.29861 0.168632 2.38198e-29)
(-1.24748 0.161917 1.76922e-29)
(-1.22306 0.159025 2.2024e-29)
(-1.18932 0.154719 -3.31505e-32)
(-1.16157 0.150834 0)
(-1.11797 0.145337 1.55815e-29)
(-1.10403 0.143711 -4.42706e-32)
(-1.07447 0.139777 2.02005e-29)
(-1.04288 0.135521 -1.1832e-29)
(-1.01976 0.132726 2.95333e-29)
(-0.999762 0.130329 3.30189e-29)
(-0.982318 0.12782 -1.11225e-31)
(-0.95257 0.123946 1.09331e-29)
(-0.937968 0.122243 2.66427e-29)
(-0.920172 0.119889 1.42294e-29)
(-0.900358 0.117071 -8.96785e-32)
(-0.872462 0.113638 0)
(-0.864506 0.112281 -2.93858e-32)
(-0.816659 0.106648 -4.47834e-32)
(-0.840972 0.11037 -8.31417e-30)
(-0.824254 0.112384 -3.16361e-29)
(-0.814794 0.111529 3.65029e-32)
(-0.807497 0.110231 0)
(-0.788094 0.107437 -2.72332e-29)
(-0.775482 0.106017 -4.98926e-32)
(-0.769991 0.105335 -4.54419e-32)
(-0.760369 0.103678 9.61372e-32)
(-0.738236 0.100565 7.45549e-37)
(-0.726224 0.0991716 4.97335e-29)
(-0.715917 0.0977171 -5.2861e-29)
(-0.70096 0.0953717 2.55069e-31)
(-0.672697 0.0914388 1.34462e-31)
(-0.657988 0.0895831 0)
(-0.637584 0.0867488 5.34391e-29)
(-0.617478 0.0837959 -5.7133e-29)
(-0.582397 0.0789191 1.70507e-31)
(-0.563288 0.0763526 -3.62384e-33)
(-0.530354 0.0719906 5.00206e-29)
(-0.509192 0.0690098 2.01596e-31)
(-0.46935 0.0634233 -4.21409e-29)
(-0.445189 0.0599737 6.26679e-32)
(-0.403139 0.0547233 -4.68361e-29)
(-0.372101 0.0517117 1.93835e-31)
(-0.345207 0.0512289 -6.74972e-29)
(-0.305418 0.0455471 -3.52607e-32)
(-0.281721 0.042252 2.08042e-31)
(-0.244965 0.0366881 0)
(-0.222133 0.0332037 1.07144e-32)
(-0.179271 0.0271391 3.09249e-32)
(-0.16008 0.0245694 -3.98585e-29)
(-0.122861 0.0189521 0)
(-0.10268 0.0157593 0)
(-0.0588311 0.00923527 7.63233e-29)
(-0.0432694 0.00700923 5.65125e-29)
(-0.0121218 0.00238362 4.99911e-29)
(0.00144004 0.000194134 2.86136e-32)
(0.0380696 -0.00527747 5.4648e-29)
(0.0528727 -0.00733281 5.62901e-29)
(0.075932 -0.0107553 5.84189e-29)
(0.0825144 -0.0118965 5.60622e-32)
(0.116371 -0.0165253 5.70091e-29)
(0.0855596 -0.0124005 0)
(0.142215 -0.0211141 -9.56264e-29)
(0.14008 -0.0204704 -9.29472e-32)
(0.157242 -0.0231861 -7.10774e-32)
(0.17127 -0.0252787 -1.44632e-28)
(0.178669 -0.0271853 6.04915e-30)
(0.170079 -0.0260215 -6.7769e-33)
(0.184884 -0.0285146 -2.89258e-30)
(0.191443 -0.0312325 -2.18081e-28)
(0.182899 -0.029834 -1.28892e-32)
(0.160823 -0.0260929 0)
(0.157419 -0.0257281 1.24258e-28)
(0.145933 -0.023875 1.2413e-28)
(0.1372 -0.0222696 4.51904e-32)
(0.110002 -0.0176446 2.14364e-32)
(0.100754 -0.0162196 0)
(0.0814543 -0.0131425 1.21177e-28)
(0.0723993 -0.0116007 -5.21475e-29)
(0.0466507 -0.0073147 -4.14487e-29)
(0.0366662 -0.00570134 7.6991e-29)
(0.0208735 -0.00319781 2.13012e-29)
(0.0119231 -0.00174974 -9.64727e-30)
(-0.00322009 0.000763224 7.29496e-30)
(-0.00523771 0.00108666 1.26464e-31)
(-0.013878 0.00249828 -3.66354e-30)
(-0.0168684 0.00292089 -1.74585e-30)
(-0.00796951 0.00124813 -9.58526e-32)
(0.0011208 -0.000315261 6.73723e-32)
(0.0110691 -0.00209579 -8.03347e-30)
(0.0263643 -0.00480892 1.6199e-29)
(0.0423166 -0.00799393 0)
(0.0719157 -0.0136823 -1.8989e-31)
(0.0942848 -0.0177704 -1.3538e-29)
(0.129223 -0.0239215 1.53027e-29)
(0.145142 -0.026693 2.3493e-31)
(0.184262 -0.0339641 -5.73212e-29)
(0.210448 -0.0387941 5.32792e-29)
(0.256902 -0.0476231 -3.62077e-33)
(-2.56256 0.331203 2.60531e-29)
(-2.50856 0.324469 8.63045e-29)
(-2.48245 0.320686 -5.65473e-32)
(-2.45106 0.316839 1.75711e-29)
(-2.39208 0.309705 -9.53991e-29)
(-2.36322 0.304696 -1.16622e-34)
(-2.337 0.301723 2.22832e-29)
(-2.28213 0.295615 0)
(-2.24691 0.290021 0)
(-2.2055 0.28414 -6.24061e-29)
(-2.17213 0.27884 -2.5172e-29)
(-2.14836 0.277343 4.62138e-29)
(-2.07581 0.268921 0)
(-2.04557 0.263734 -1.66905e-29)
(-1.98722 0.256866 3.71773e-29)
(-1.95377 0.251713 -3.3091e-29)
(-1.90744 0.245254 -1.25165e-31)
(-1.87117 0.239707 4.55255e-29)
(-1.84201 0.237395 -3.61749e-29)
(-1.7717 0.229068 1.65566e-31)
(-1.74061 0.223982 -8.70738e-32)
(-1.68187 0.217061 3.58507e-29)
(-1.64811 0.212096 2.86921e-31)
(-1.60234 0.205746 9.16818e-37)
(-1.56828 0.200673 2.10593e-29)
(-1.53775 0.198191 3.00166e-29)
(-1.4729 0.191534 1.87166e-31)
(-1.44419 0.187029 0)
(-1.39129 0.180816 0)
(-1.35796 0.176021 1.27586e-31)
(-1.31841 0.170541 2.05259e-29)
(-1.29101 0.167213 0)
(-1.23953 0.161001 2.8735e-29)
(-1.21809 0.157914 -2.56641e-29)
(-1.18494 0.153528 1.63545e-29)
(-1.15826 0.150315 1.80744e-29)
(-1.12067 0.145573 -4.88615e-32)
(-1.09673 0.142174 -2.78651e-31)
(-1.07787 0.139855 1.49795e-29)
(-1.04354 0.135858 1.98788e-29)
(-1.02513 0.133225 6.92079e-37)
(-1.00447 0.130391 1.23341e-29)
(-0.986861 0.128248 1.22276e-29)
(-0.957122 0.124542 -1.97006e-32)
(-0.943795 0.12256 -1.18131e-32)
(-0.926356 0.120368 9.47311e-32)
(-0.909748 0.11787 -9.0362e-30)
(-0.905429 0.118051 1.27691e-29)
(-0.884655 0.116013 1.08103e-29)
(-0.874146 0.12008 -6.01785e-32)
(-0.853294 0.117887 -4.40614e-30)
(-0.841532 0.116053 0)
(-0.830569 0.114311 9.02784e-32)
(-0.81981 0.113108 5.06963e-32)
(-0.803526 0.111035 7.64256e-31)
(-0.793099 0.109274 -9.59911e-32)
(-0.778277 0.106979 0)
(-0.764635 0.105343 2.24367e-30)
(-0.743803 0.10256 -2.00767e-29)
(-0.730272 0.100345 1.2663e-31)
(-0.707364 0.0968657 2.45231e-29)
(-0.689153 0.094516 -3.79557e-32)
(-0.659126 0.0905026 -1.77903e-32)
(-0.640676 0.0876701 -4.92574e-29)
(-0.608255 0.0827351 3.79747e-29)
(-0.585286 0.0796255 5.61933e-34)
(-0.546457 0.0745265 8.14263e-29)
(-0.523124 0.0711388 0)
(-0.482625 0.0649861 2.45914e-31)
(-0.455843 0.0612029 4.09857e-29)
(-0.421174 0.0568311 0)
(-0.373238 0.0517307 -2.9034e-29)
(-0.348386 0.0519899 -5.5483e-29)
(-0.302342 0.0453554 -4.88863e-29)
(-0.275205 0.0411922 -4.22434e-29)
(-0.232835 0.0340869 0)
(-0.209254 0.0301656 -3.17892e-29)
(-0.162461 0.0234905 -3.07837e-32)
(-0.140454 0.0201248 -1.5515e-31)
(-0.0944015 0.0124448 -2.9459e-30)
(-0.0705227 0.0086007 -1.9374e-32)
(-0.0267271 0.00238913 -7.6809e-30)
(-0.010431 -8.49667e-05 -1.79899e-29)
(0.0306603 -0.00651657 1.25492e-29)
(0.0510977 -0.00984913 2.81579e-32)
(0.0822128 -0.0144365 -5.59769e-30)
(0.100441 -0.0170851 -1.14478e-29)
(0.127739 -0.0213655 0)
(0.143953 -0.0240035 8.46085e-30)
(0.169709 -0.0273338 -2.47995e-29)
(0.191252 -0.0307027 0)
(0.198223 -0.0324244 -1.77569e-29)
(0.207044 -0.0331813 -1.8231e-29)
(0.212596 -0.0342302 1.35037e-31)
(0.217738 -0.034747 1.93459e-29)
(0.231283 -0.0359762 4.23652e-30)
(0.229948 -0.0353938 -4.74844e-30)
(0.236455 -0.0367438 -3.15414e-31)
(0.228595 -0.0396022 -1.68737e-30)
(0.223871 -0.0391278 0)
(0.206026 -0.0356549 9.02193e-33)
(0.198426 -0.0346028 -2.17414e-29)
(0.174045 -0.0305688 1.40145e-31)
(0.164462 -0.0284886 -1.35044e-29)
(0.137745 -0.0234113 3.38906e-29)
(0.127759 -0.0218667 2.67773e-29)
(0.0990168 -0.0171721 1.43112e-29)
(0.0871568 -0.0147722 -9.05742e-33)
(0.0591647 -0.00967418 0)
(0.049842 -0.00814203 8.48283e-29)
(0.0295828 -0.00488864 0)
(0.0175858 -0.00266995 -3.15135e-29)
(-0.000583025 0.000381972 3.59626e-29)
(-0.00214645 0.000566301 1.15964e-30)
(-0.0120147 0.0021118 -2.3684e-29)
(-0.0154484 0.00258294 -8.53775e-31)
(-0.00608745 0.000698225 -9.47838e-32)
(0.00280818 -0.000839921 -6.88887e-30)
(0.0149292 -0.00301428 -2.04561e-29)
(0.0324701 -0.00612622 2.9754e-29)
(0.0540202 -0.0102754 0)
(0.0907379 -0.0176826 3.76995e-29)
(0.111543 -0.0214901 -8.63183e-29)
(0.149144 -0.0281068 -2.94466e-29)
(0.173015 -0.0326385 -1.98447e-29)
(0.226485 -0.0430087 0)
(0.251139 -0.0476315 4.70036e-29)
(0.297919 -0.0554169 0)
(-2.71566 0.347578 -9.27035e-31)
(-2.65526 0.341128 5.75176e-29)
(-2.62583 0.336943 1.81387e-29)
(-2.59456 0.332021 0)
(-2.53524 0.325454 -7.03439e-29)
(-2.49835 0.31996 -2.3267e-29)
(-2.47022 0.315961 6.36617e-31)
(-2.41447 0.309485 -3.65652e-31)
(-2.3737 0.303921 4.84056e-37)
(-2.32719 0.297139 -3.70924e-32)
(-2.29374 0.291786 -4.92803e-30)
(-2.22453 0.284763 -4.0841e-32)
(-2.18969 0.280157 1.02478e-31)
(-2.15832 0.275203 5.42441e-30)
(-2.09844 0.268295 1.30096e-31)
(-2.05909 0.262885 -2.632e-29)
(-2.00727 0.255297 -1.16721e-29)
(-1.97156 0.249893 9.99239e-30)
(-1.90579 0.24331 0)
(-1.86424 0.237679 0)
(-1.83225 0.232776 8.68365e-32)
(-1.77197 0.225884 2.32854e-29)
(-1.73292 0.220684 -2.31093e-29)
(-1.68193 0.213343 9.45613e-30)
(-1.64822 0.208345 1.97908e-29)
(-1.58521 0.202221 3.13029e-32)
(-1.54553 0.197822 7.44498e-37)
(-1.51605 0.193584 5.12601e-32)
(-1.46167 0.187271 0)
(-1.42431 0.182437 -1.72396e-29)
(-1.38073 0.176396 -3.07485e-30)
(-1.35345 0.172676 0)
(-1.30158 0.166972 1.52908e-29)
(-1.27479 0.163593 -1.58691e-29)
(-1.23823 0.158516 1.24978e-31)
(-1.21283 0.15524 -7.82703e-32)
(-1.1729 0.150819 -1.98434e-29)
(-1.14596 0.147154 -1.81608e-32)
(-1.12661 0.144468 2.9169e-38)
(-1.092 0.140648 1.11048e-33)
(-1.0711 0.138077 0)
(-1.04809 0.134905 -2.3673e-30)
(-1.03083 0.132513 0)
(-1.00201 0.129244 0)
(-0.98718 0.127369 -6.19262e-30)
(-0.96907 0.124986 1.40562e-30)
(-0.953551 0.122786 3.29154e-32)
(-0.932121 0.120967 -5.5233e-33)
(-0.925808 0.120634 -2.04433e-31)
(-0.914773 0.123988 9.94186e-31)
(-0.894707 0.121881 -2.44314e-29)
(-0.881566 0.120173 -8.28124e-32)
(-0.868867 0.118269 -1.81995e-31)
(-0.857954 0.116816 -5.17144e-32)
(-0.841779 0.114719 4.16176e-32)
(-0.829233 0.112859 1.00346e-29)
(-0.812071 0.110147 0)
(-0.798531 0.108294 3.869e-29)
(-0.777148 0.105457 3.87669e-32)
(-0.760331 0.102903 0)
(-0.734453 0.098811 -4.68586e-29)
(-0.716477 0.0962745 1.93747e-32)
(-0.685486 0.0922336 1.76655e-32)
(-0.662287 0.0888197 9.90626e-30)
(-0.626074 0.0831278 -1.35768e-29)
(-0.603283 0.0798987 1.42255e-29)
(-0.562812 0.0748736 5.57168e-30)
(-0.53345 0.0705885 1.99228e-31)
(-0.488721 0.0636701 1.46462e-31)
(-0.461929 0.059911 -7.20314e-31)
(-0.41933 0.0548621 8.77244e-32)
(-0.369437 0.0487969 6.13693e-37)
(-0.343227 0.0486031 1.37287e-33)
(-0.293009 0.0416887 -8.83511e-30)
(-0.262641 0.0375372 -1.11836e-29)
(-0.212788 0.0291043 -2.38226e-31)
(-0.18743 0.0248693 -4.9219e-29)
(-0.135127 0.0178036 0)
(-0.109122 0.0141429 -1.93978e-29)
(-0.0555493 0.0051357 2.76598e-29)
(-0.0308842 0.00129459 0)
(0.0185436 -0.00534206 -6.09484e-29)
(0.0378595 -0.00810337 0)
(0.0857101 -0.0156406 -2.90818e-29)
(0.106386 -0.0189012 -4.1336e-29)
(0.141947 -0.0235578 0)
(0.161052 -0.0262143 5.39414e-29)
(0.193677 -0.0313528 -3.06495e-31)
(0.209617 -0.0338586 -7.03474e-32)
(0.238798 -0.0373301 7.11772e-32)
(0.237484 -0.0373863 9.28978e-32)
(0.268939 -0.0421647 -6.67697e-29)
(0.276121 -0.0425929 -5.14396e-29)
(0.282741 -0.0434904 5.87307e-29)
(0.286806 -0.0440785 2.74232e-31)
(0.298411 -0.0463359 -1.30455e-30)
(0.292624 -0.0447698 -2.07186e-30)
(0.299474 -0.046084 0)
(0.288619 -0.0476664 9.17681e-29)
(0.278123 -0.0463158 0)
(0.254905 -0.0418609 0)
(0.247021 -0.0405731 -9.36359e-29)
(0.217822 -0.0358844 4.19399e-31)
(0.202283 -0.0330474 1.00732e-28)
(0.170211 -0.0271321 -3.52028e-29)
(0.159596 -0.0254646 -3.1724e-29)
(0.125919 -0.0201756 0)
(0.109452 -0.0171621 -2.2628e-30)
(0.0770149 -0.0115527 -5.05622e-32)
(0.0671687 -0.0100209 9.42803e-32)
(0.0439631 -0.0064867 -3.31402e-31)
(0.0285237 -0.00379234 -1.19068e-32)
(0.00757437 -0.000484027 1.48394e-29)
(0.00578085 -0.000383309 -3.66358e-30)
(-0.00563722 0.00132978 1.40578e-31)
(-0.0103664 0.00172592 2.12049e-31)
(0.000889319 -0.000799539 -3.71232e-31)
(0.0104879 -0.00250389 -7.17565e-30)
(0.0244457 -0.00518362 -1.76692e-29)
(0.0442927 -0.00890969 3.4921e-32)
(0.0726113 -0.014593 -3.44742e-31)
(0.11505 -0.0232813 2.97289e-29)
(0.136922 -0.0272326 -7.50314e-29)
(0.182301 -0.0351614 -1.10275e-28)
(0.214492 -0.0413447 -7.46245e-29)
(0.276146 -0.053022 5.6151e-29)
(0.252807 -0.0486327 3.04301e-29)
(0.356951 -0.0677006 9.68836e-33)
(-2.7324 0.348171 2.44569e-30)
(-2.69664 0.344994 7.49003e-29)
(-2.64201 0.337648 4.78897e-32)
(-2.61025 0.332503 7.7463e-30)
(-2.5624 0.327584 -4.30135e-29)
(-2.51466 0.320809 -3.57834e-30)
(-2.48454 0.316334 -3.11325e-30)
(-2.43062 0.310208 2.83518e-29)
(-2.3933 0.305179 2.13642e-32)
(-2.34082 0.297489 -5.35444e-31)
(-2.30707 0.291759 -1.56321e-29)
(-2.26675 0.288641 -4.12231e-29)
(-2.20285 0.280716 -1.79824e-29)
(-2.17091 0.275274 -1.45391e-29)
(-2.11278 0.268747 2.59753e-31)
(-2.07256 0.263367 -2.02927e-29)
(-2.01777 0.255146 9.17383e-33)
(-1.98225 0.249572 -6.73576e-37)
(-1.93738 0.245865 -1.37887e-32)
(-1.87424 0.237704 -1.64671e-31)
(-1.84199 0.232484 -1.0948e-29)
(-1.78321 0.22598 -9.08452e-32)
(-1.74325 0.220809 -1.66334e-29)
(-1.69 0.212968 -2.01575e-30)
(-1.65636 0.207795 -8.2901e-30)
(-1.61156 0.204169 -3.02949e-32)
(-1.55345 0.197704 1.85949e-31)
(-1.52392 0.193265 -4.51942e-37)
(-1.46984 0.187135 -2.12242e-29)
(-1.43341 0.182541 -1.43858e-31)
(-1.38746 0.176141 5.65458e-30)
(-1.35967 0.17221 2.27562e-30)
(-1.3124 0.16728 -3.37436e-32)
(-1.2811 0.163556 0)
(-1.2438 0.158245 0)
(-1.21823 0.154902 -3.91439e-32)
(-1.1831 0.151256 4.28461e-32)
(-1.15089 0.147006 1.89302e-32)
(-1.13117 0.144151 0)
(-1.09718 0.140577 0)
(-1.07626 0.138135 4.61786e-30)
(-1.05218 0.134768 -9.63939e-32)
(-1.03478 0.132248 1.83142e-32)
(-1.00875 0.12948 1.91075e-32)
(-0.99123 0.1274 0)
(-0.972737 0.124878 4.57225e-31)
(-0.957253 0.12261 -8.20794e-31)
(-0.942896 0.121887 -1.46157e-29)
(-0.928643 0.120879 1.01347e-31)
(-0.917594 0.123945 -2.33101e-29)
(-0.898201 0.122173 -5.76606e-30)
(-0.886332 0.120664 0)
(-0.87195 0.118467 0)
(-0.860959 0.117026 4.10194e-30)
(-0.845164 0.115044 0)
(-0.832517 0.113087 -1.333e-29)
(-0.814729 0.110164 0)
(-0.801158 0.108301 1.01505e-32)
(-0.780415 0.105573 4.55331e-29)
(-0.762748 0.102822 2.96077e-29)
(-0.736505 0.0985153 -5.74887e-30)
(-0.718495 0.0959348 -1.43832e-30)
(-0.688541 0.0920406 0)
(-0.663828 0.088399 3.12629e-29)
(-0.627423 0.082472 0)
(-0.604578 0.0792037 -2.37332e-33)
(-0.564875 0.074214 4.61826e-33)
(-0.534355 0.0698863 3.23361e-29)
(-0.489709 0.0627889 2.50288e-31)
(-0.46259 0.0589436 -9.49467e-30)
(-0.419571 0.053787 0)
(-0.369027 0.0476557 -2.54391e-31)
(-0.342589 0.0473731 3.46644e-33)
(-0.292325 0.0406137 3.53729e-32)
(-0.256788 0.0355735 -1.67789e-29)
(-0.210889 0.0276703 -2.38377e-31)
(-0.185023 0.0232148 -1.58219e-29)
(-0.132149 0.0162529 -3.11979e-32)
(-0.0987099 0.0113385 -2.16422e-30)
(-0.0519413 0.00326674 4.72743e-31)
(-0.0273234 -0.000497083 2.12616e-29)
(0.0225324 -0.00720881 -3.63729e-29)
(0.0520293 -0.0114804 -3.65936e-31)
(0.0902007 -0.0175881 -8.26046e-31)
(0.110733 -0.0208225 2.76232e-30)
(0.146643 -0.0254605 0)
(0.180251 -0.0303369 -9.49044e-30)
(0.198631 -0.0333008 -3.0867e-31)
(0.214403 -0.0357991 9.75136e-30)
(0.243864 -0.0391119 -1.67403e-32)
(0.260126 -0.041736 0)
(0.273955 -0.0442391 0)
(0.28091 -0.0443722 -1.80232e-31)
(0.28759 -0.0453137 -2.73369e-29)
(0.304567 -0.0477078 -2.76757e-31)
(0.303308 -0.0474714 6.48858e-30)
(0.297153 -0.0455262 9.10755e-30)
(0.303891 -0.0469269 1.50106e-29)
(0.296729 -0.0497608 -1.34672e-28)
(0.282091 -0.0475486 2.67172e-32)
(0.258393 -0.0427021 -1.03537e-29)
(0.250435 -0.0414337 1.98728e-29)
(0.222007 -0.0369539 2.80933e-31)
(0.205278 -0.033694 -9.64597e-30)
(0.172764 -0.0274796 -8.97378e-32)
(0.162072 -0.0258225 3.43382e-31)
(0.128323 -0.0206068 0)
(0.111543 -0.0173876 -4.68889e-30)
(0.0786914 -0.0116474 3.71235e-38)
(0.0687851 -0.0101568 4.9954e-30)
(0.0454032 -0.0066642 -6.59452e-31)
(0.0299803 -0.00387706 -1.90415e-29)
(0.00854277 -0.000561864 -3.15002e-33)
(0.00672892 -0.000563758 1.6427e-29)
(-0.00483795 0.00122792 1.33706e-30)
(-0.00851634 0.00129897 1.68157e-29)
(0.00132383 -0.00112627 2.20871e-30)
(0.0108919 -0.00284044 1.3277e-31)
(0.0249165 -0.0055962 0)
(0.0480449 -0.0100302 -3.51299e-32)
(0.0733999 -0.0152145 -3.4391e-31)
(0.115939 -0.0241038 -3.07843e-29)
(0.138051 -0.0280694 7.01087e-30)
(0.184718 -0.0361844 -5.3022e-30)
(0.216977 -0.0425165 -8.66903e-32)
(0.278759 -0.0540153 1.41499e-29)
(0.304797 -0.0593845 8.57615e-32)
(0.359799 -0.0690859 1.61886e-29)
(-2.81393 0.356195 -2.91012e-31)
(-2.76692 0.351719 5.32754e-29)
(-2.71808 0.344599 -2.27347e-29)
(-2.68605 0.339523 -3.16688e-30)
(-2.6333 0.334181 0)
(-2.58507 0.327208 -1.77259e-29)
(-2.55418 0.322506 -1.76041e-31)
(-2.4987 0.316241 -3.39838e-31)
(-2.45678 0.31073 2.1285e-32)
(-2.4031 0.302632 1.201e-29)
(-2.36945 0.297224 1.5832e-29)
(-2.32193 0.293088 6.05351e-29)
(-2.26015 0.284871 -3.81075e-29)
(-2.2276 0.279578 1.64777e-32)
(-2.16738 0.272956 0)
(-2.12372 0.267225 0)
(-2.06663 0.258453 2.68744e-29)
(-2.03151 0.253184 0)
(-1.98006 0.248686 -5.36897e-29)
(-1.9185 0.240267 1.63782e-31)
(-1.88579 0.235145 2.46326e-30)
(-1.82515 0.228644 3.78243e-29)
(-1.78212 0.2232 -1.10762e-36)
(-1.72667 0.21489 2.92458e-31)
(-1.69332 0.209946 -9.50597e-30)
(-1.64308 0.20579 -2.95931e-32)
(-1.58617 0.199123 1.90306e-29)
(-1.55619 0.194781 0)
(-1.50071 0.188682 -7.23343e-29)
(-1.46153 0.18394 0)
(-1.41407 0.1773 3.16478e-30)
(-1.38629 0.173297 -7.72119e-30)
(-1.33684 0.168463 3.41216e-32)
(-1.30458 0.164723 -1.4129e-31)
(-1.26554 0.159153 -1.24238e-31)
(-1.2404 0.155892 0)
(-1.2022 0.152206 0)
(-1.17041 0.147981 2.10805e-30)
(-1.15049 0.14504 0)
(-1.11608 0.141658 0)
(-1.09382 0.139238 2.08096e-29)
(-1.06889 0.135755 3.54465e-30)
(-1.05164 0.133182 3.60053e-32)
(-1.02494 0.130549 -1.49387e-29)
(-1.00771 0.128627 8.45951e-30)
(-0.989053 0.126084 2.80338e-30)
(-0.974089 0.123984 -4.06004e-30)
(-0.959138 0.123375 1.04262e-36)
(-0.943777 0.12221 -2.25483e-29)
(-0.932591 0.125077 -2.59345e-29)
(-0.913714 0.123517 1.77148e-32)
(-0.90052 0.121934 -1.61007e-31)
(-0.885842 0.119666 1.78626e-31)
(-0.874766 0.118177 -7.06774e-33)
(-0.858622 0.11614 7.43832e-30)
(-0.844679 0.113992 0)
(-0.825772 0.110796 2.06548e-31)
(-0.812159 0.108863 6.37373e-32)
(-0.790505 0.105979 2.42486e-29)
(-0.771147 0.102909 4.00431e-29)
(-0.743251 0.0981916 2.56885e-30)
(-0.725181 0.0955278 -5.95906e-30)
(-0.693704 0.0914218 -3.24538e-32)
(-0.666841 0.0873622 4.89454e-29)
(-0.628405 0.0809395 0)
(-0.605341 0.0775822 0)
(-0.563571 0.0724411 -7.56523e-33)
(-0.530511 0.0675949 5.36192e-29)
(-0.483203 0.0599156 -8.246e-30)
(-0.455422 0.0559258 6.07914e-30)
(-0.409005 0.0504705 -9.52619e-29)
(-0.355904 0.043698 1.45459e-29)
(-0.328791 0.0431366 4.53917e-33)
(-0.27634 0.0361937 0)
(-0.239732 0.0312824 -2.68308e-29)
(-0.187655 0.0221748 -7.64392e-30)
(-0.160916 0.0174354 -1.93783e-32)
(-0.104946 0.0101899 -6.27924e-32)
(-0.0714624 0.00550051 1.86803e-29)
(-0.0181316 -0.00369358 -1.68775e-29)
(0.00700363 -0.00754776 1.07854e-29)
(0.0598444 -0.0146199 5.86162e-29)
(0.0879806 -0.0183773 0)
(0.133027 -0.0254895 7.69296e-30)
(0.153742 -0.0288179 5.59167e-32)
(0.191978 -0.0336876 9.93076e-33)
(0.221693 -0.0376516 -9.10437e-30)
(0.247266 -0.0414809 3.05297e-31)
(0.26294 -0.044141 -1.09002e-31)
(0.293706 -0.047542 -9.23656e-32)
(0.307933 -0.0495714 2.31274e-30)
(0.324274 -0.0520581 1.08918e-29)
(0.330245 -0.052028 0)
(0.337206 -0.0531095 1.34756e-31)
(0.348585 -0.0544499 5.49132e-31)
(0.35049 -0.05461 1.42448e-31)
(0.341629 -0.0521792 0)
(0.348188 -0.0536584 7.05153e-30)
(0.337045 -0.0557609 0)
(0.320668 -0.0532079 0)
(0.293711 -0.0476989 -7.70831e-30)
(0.285348 -0.0463434 0)
(0.253436 -0.0413022 2.79931e-31)
(0.233692 -0.0374719 -5.70211e-32)
(0.198174 -0.0306531 1.87269e-30)
(0.187012 -0.0289483 6.82715e-31)
(0.150279 -0.0233702 2.76035e-31)
(0.131036 -0.0196825 2.61347e-29)
(0.0958886 -0.0136257 0)
(0.0856177 -0.0121625 -2.20384e-29)
(0.0605547 -0.008551 -3.2824e-31)
(0.0435739 -0.00549309 -3.72015e-32)
(0.0211595 -0.00221926 0)
(0.0193011 -0.00235523 -6.73029e-30)
(0.00727535 -0.000602673 0)
(0.00313613 -0.000728177 0)
(0.0146945 -0.00374877 6.55794e-32)
(0.024615 -0.00557982 -1.3183e-31)
(0.0402002 -0.0088424 -9.52574e-32)
(0.064215 -0.0136333 3.58215e-29)
(0.094505 -0.019967 0)
(0.140696 -0.02983 1.18861e-29)
(0.163709 -0.0339468 -1.02893e-31)
(0.214447 -0.04278 0)
(0.251479 -0.0501645 6.87339e-29)
(0.317435 -0.0626445 2.00977e-29)
(0.345401 -0.0679515 2.6812e-29)
(0.403576 -0.0781807 -1.18072e-28)
(-2.85912 0.359058 -2.02301e-29)
(-2.80693 0.354286 -6.12639e-29)
(-2.75983 0.347191 8.51027e-32)
(-2.7276 0.341836 4.85912e-31)
(-2.67288 0.336545 2.60645e-31)
(-2.62353 0.329385 -2.83257e-29)
(-2.59202 0.324363 -1.47066e-29)
(-2.53544 0.317991 -5.52066e-29)
(-2.49145 0.312382 0)
(-2.4367 0.303951 2.15252e-29)
(-2.40262 0.298427 1.19815e-29)
(-2.34497 0.29329 6.76427e-29)
(-2.29033 0.285685 -6.39147e-29)
(-2.25738 0.280226 -1.43041e-29)
(-2.19591 0.273581 0)
(-2.15018 0.267693 0)
(-2.09167 0.258544 4.50285e-29)
(-2.05659 0.253292 5.56809e-31)
(-1.99703 0.248132 -1.06897e-32)
(-1.94037 0.240019 2.46437e-29)
(-1.90738 0.234789 -1.91491e-37)
(-1.84569 0.228352 9.43354e-29)
(-1.80077 0.222792 -4.42116e-29)
(-1.74395 0.214177 -1.79107e-29)
(-1.71063 0.209245 -1.4354e-32)
(-1.65396 0.204644 0)
(-1.6007 0.198244 5.5549e-29)
(-1.57041 0.193828 0)
(-1.51398 0.187791 -4.48098e-29)
(-1.47363 0.183127 2.83034e-31)
(-1.42509 0.17633 9.17844e-30)
(-1.39703 0.172208 1.3208e-29)
(-1.34683 0.167657 -1.37823e-31)
(-1.31342 0.163884 2.80357e-31)
(-1.27351 0.158186 2.47526e-31)
(-1.24844 0.154942 -1.05547e-29)
(-1.20922 0.151493 -8.37513e-32)
(-1.17682 0.147218 4.45415e-30)
(-1.15681 0.144184 -6.37354e-33)
(-1.12216 0.141004 -8.87461e-37)
(-1.09911 0.138676 4.13617e-31)
(-1.07368 0.135154 2.18222e-31)
(-1.0565 0.132527 6.04533e-30)
(-1.02999 0.130156 -3.57717e-29)
(-1.01235 0.128314 1.06416e-29)
(-0.993636 0.12576 -3.67254e-30)
(-0.978948 0.123735 -5.03156e-30)
(-0.961325 0.122962 2.16888e-29)
(-0.947346 0.122038 -2.31562e-29)
(-0.936139 0.124739 -5.83054e-29)
(-0.917836 0.123338 5.13567e-31)
(-0.90412 0.121767 -1.59269e-31)
(-0.888882 0.119409 6.51112e-30)
(-0.877757 0.117882 7.33958e-33)
(-0.861422 0.115789 9.09442e-30)
(-0.846622 0.113477 0)
(-0.826902 0.110066 8.14678e-30)
(-0.813236 0.108072 -2.64732e-30)
(-0.791169 0.105061 0)
(-0.770476 0.101687 4.86364e-29)
(-0.741528 0.0966674 3.62056e-30)
(-0.723396 0.0939301 3.79986e-32)
(-0.691348 0.0896934 4.23455e-29)
(-0.662582 0.0852133 -4.84416e-32)
(-0.622998 0.0784567 2.49653e-30)
(-0.599747 0.0750168 5.68384e-33)
(-0.557425 0.0698686 5.00549e-29)
(-0.521643 0.0644347 3.90189e-31)
(-0.472257 0.05628 3.90078e-31)
(-0.443701 0.0521609 -1.22907e-31)
(-0.396851 0.0468155 -1.06514e-28)
(-0.340195 0.0391725 8.55963e-30)
(-0.312836 0.0384876 0)
(-0.258993 0.0314468 0)
(-0.222242 0.0266675 0)
(-0.165133 0.0164954 -1.22592e-29)
(-0.13781 0.0116092 -4.63546e-29)
(-0.0797881 0.00425691 6.3153e-32)
(-0.04691 -0.000226376 -6.6911e-32)
(0.0114027 -0.0103086 -1.86244e-29)
(0.0369469 -0.0142363 -5.21838e-30)
(0.0916512 -0.0212904 1.16513e-32)
(0.118457 -0.0246672 2.86641e-29)
(0.168432 -0.0326229 5.54965e-30)
(0.18938 -0.0359153 1.55833e-29)
(0.229083 -0.040751 -9.24509e-33)
(0.25549 -0.0440016 -2.71005e-31)
(0.286356 -0.0485884 0)
(0.302067 -0.0512502 4.51547e-30)
(0.333424 -0.0544616 3.76252e-29)
(0.340202 -0.055172 1.19471e-30)
(0.36403 -0.0586388 -1.45312e-30)
(0.369422 -0.0582854 3.5697e-31)
(0.376456 -0.0593082 2.66249e-30)
(0.383185 -0.0598505 0)
(0.387682 -0.0602266 8.50006e-30)
(0.377088 -0.0573121 4.82296e-32)
(0.383408 -0.0587071 -2.10338e-31)
(0.368934 -0.0604062 7.95293e-29)
(0.351717 -0.0575773 0)
(0.322563 -0.0515402 0)
(0.313827 -0.0500644 0)
(0.279293 -0.0446048 -2.80288e-31)
(0.257688 -0.0403712 1.17296e-28)
(0.220193 -0.0331434 2.94123e-29)
(0.20867 -0.0313895 -4.98154e-29)
(0.169865 -0.025588 -5.51478e-31)
(0.149046 -0.0215932 4.75634e-32)
(0.112509 -0.0154054 0)
(0.101979 -0.0139848 -4.72983e-29)
(0.0757607 -0.010341 0)
(0.0578262 -0.00714355 -1.40917e-29)
(0.0351477 -0.00407839 0)
(0.0332773 -0.00429323 0)
(0.0211243 -0.00272892 0)
(0.0163611 -0.00304429 -4.32044e-30)
(0.0298141 -0.00674001 1.05052e-29)
(0.0400047 -0.00866767 -1.31127e-31)
(0.0567503 -0.01238 -3.34498e-29)
(0.080532 -0.0173893 5.04898e-29)
(0.114876 -0.0248275 1.20303e-28)
(0.163635 -0.0354342 6.48564e-29)
(0.187365 -0.0396659 0)
(0.240567 -0.0489867 0)
(0.280885 -0.0571864 1.00607e-28)
(0.349418 -0.0702505 9.45734e-32)
(0.377926 -0.0755582 1.26459e-29)
(0.438679 -0.0859665 1.15164e-32)
(-2.86705 0.35821 -1.33322e-29)
(-2.81971 0.353911 -5.89985e-29)
(-2.76715 0.346395 2.41512e-29)
(-2.73472 0.340884 0)
(-2.68317 0.335925 6.24296e-29)
(-2.63064 0.328597 -7.28632e-33)
(-2.59849 0.323368 -3.44544e-30)
(-2.54244 0.31704 3.61926e-31)
(-2.49915 0.311546 -4.24608e-29)
(-2.44253 0.302898 -6.44448e-33)
(-2.4083 0.297286 1.44826e-30)
(-2.35596 0.292713 6.29148e-29)
(-2.2956 0.284579 -4.14176e-29)
(-2.26229 0.278965 5.34109e-30)
(-2.20124 0.27236 3.92365e-29)
(-2.1551 0.266531 3.99795e-31)
(-2.09577 0.25724 2.031e-29)
(-2.06062 0.251918 6.26036e-31)
(-2.00328 0.246817 9.8839e-33)
(-1.94382 0.238718 1.21461e-29)
(-1.91065 0.233365 0)
(-1.84915 0.226975 7.32965e-29)
(-1.80385 0.22149 -3.44703e-29)
(-1.7465 0.212794 -5.5408e-30)
(-1.71307 0.207816 1.33866e-30)
(-1.65896 0.203475 -5.64728e-32)
(-1.60275 0.196909 1.53994e-29)
(-1.57235 0.192417 -9.91828e-32)
(-1.51588 0.186447 -1.16189e-31)
(-1.47549 0.18188 2.71334e-29)
(-1.42642 0.175073 0)
(-1.39814 0.170844 6.75836e-30)
(-1.3483 0.16636 -6.94983e-32)
(-1.31435 0.162818 -2.00732e-29)
(-1.27422 0.157047 -7.58972e-37)
(-1.24898 0.153756 -2.88313e-30)
(-1.20971 0.150346 3.60782e-29)
(-1.17714 0.146268 -1.75883e-30)
(-1.15705 0.143138 -4.54093e-31)
(-1.12232 0.140055 0)
(-1.09914 0.137842 -9.04967e-30)
(-1.0737 0.134331 0)
(-1.05648 0.131625 1.66426e-30)
(-1.02992 0.129331 -1.58659e-29)
(-1.01229 0.127656 9.85219e-37)
(-0.993605 0.125068 -7.37505e-31)
(-0.978896 0.123026 -5.7057e-32)
(-0.96099 0.1223 2.20526e-29)
(-0.946659 0.121473 -1.98759e-31)
(-0.935559 0.123987 -5.43404e-29)
(-0.917796 0.122691 6.60847e-32)
(-0.903767 0.121137 1.58194e-31)
(-0.888643 0.118826 4.42441e-30)
(-0.8775 0.117268 -3.85764e-30)
(-0.861024 0.115125 0)
(-0.846072 0.112775 -1.85925e-31)
(-0.826413 0.109339 9.84419e-31)
(-0.812726 0.107292 -7.38675e-32)
(-0.790269 0.104157 -2.59008e-29)
(-0.769659 0.100769 4.43523e-29)
(-0.740969 0.0957258 8.58813e-30)
(-0.722781 0.0929045 1.91337e-31)
(-0.689627 0.0883875 3.78174e-29)
(-0.661711 0.084089 -1.01239e-28)
(-0.622245 0.0772499 -5.15704e-32)
(-0.598474 0.0736499 0)
(-0.553733 0.0679923 -1.0911e-33)
(-0.519824 0.0629944 0)
(-0.469864 0.0546086 -1.92281e-29)
(-0.440759 0.0504113 -4.99175e-31)
(-0.391684 0.044664 0)
(-0.336822 0.0372863 0)
(-0.309724 0.0365824 -3.29648e-29)
(-0.25548 0.0295458 0)
(-0.213793 0.0238255 0)
(-0.160656 0.0144123 -4.69985e-31)
(-0.133289 0.00942903 -3.55865e-29)
(-0.074846 0.00212639 -6.36462e-32)
(-0.0364829 -0.00342564 4.76495e-31)
(0.0168391 -0.0124264 1.65258e-29)
(0.0422412 -0.016454 -1.36684e-29)
(0.0973118 -0.0233987 -1.06779e-28)
(0.130714 -0.0278683 2.97966e-31)
(0.174391 -0.0347056 4.09e-31)
(0.195185 -0.0379703 9.09889e-30)
(0.235188 -0.0427578 1.7123e-32)
(0.269342 -0.0471563 5.75928e-30)
(0.292556 -0.0504021 -3.05508e-31)
(0.308081 -0.0531033 -1.78388e-31)
(0.339621 -0.0561792 2.26214e-29)
(0.353058 -0.0577975 2.57599e-30)
(0.370147 -0.0602234 -3.75796e-32)
(0.375315 -0.0597084 0)
(0.3824 -0.0607425 -1.12135e-30)
(0.396309 -0.0621385 9.19186e-30)
(0.393424 -0.0614213 -3.05165e-30)
(0.382441 -0.0582368 0)
(0.388653 -0.059706 0)
(0.376982 -0.0616235 4.98295e-29)
(0.356686 -0.0582952 -2.4485e-29)
(0.327086 -0.0521274 0)
(0.31826 -0.0506222 9.90464e-30)
(0.284418 -0.0452243 -5.58864e-31)
(0.261738 -0.0407851 4.03269e-29)
(0.223789 -0.0334413 7.98787e-30)
(0.212171 -0.0317027 -1.41056e-29)
(0.173407 -0.025935 1.93797e-29)
(0.15235 -0.0218277 -2.29313e-29)
(0.115382 -0.0156088 0)
(0.104773 -0.0142622 0)
(0.0784999 -0.0106708 0)
(0.0608545 -0.00745107 9.9127e-30)
(0.0375488 -0.00438218 -3.13143e-33)
(0.0356379 -0.00468274 2.0477e-29)
(0.0234645 -0.00320048 2.43643e-29)
(0.0208089 -0.00393033 -5.11348e-30)
(0.0322007 -0.00744791 1.94256e-30)
(0.0423185 -0.00938979 -1.3097e-31)
(0.059111 -0.0132153 7.27011e-32)
(0.0864189 -0.0190639 0)
(0.117444 -0.0259214 9.3553e-29)
(0.166421 -0.0366843 -8.06119e-30)
(0.19037 -0.04092 0)
(0.244672 -0.0504542 3.88944e-32)
(0.284654 -0.0586789 -1.28192e-30)
(0.352985 -0.0717808 -5.19843e-30)
(0.381571 -0.0769558 0)
(0.442778 -0.0872849 0)
(-2.88569 0.356934 5.76479e-31)
(-2.83579 0.352691 3.28877e-31)
(-2.78386 0.344709 2.44975e-29)
(-2.75141 0.339175 0)
(-2.6985 0.334372 6.41874e-29)
(-2.6454 0.326679 1.89468e-29)
(-2.61318 0.321292 -4.85312e-30)
(-2.5565 0.314958 0)
(-2.51168 0.309411 -4.38708e-29)
(-2.45463 0.300396 6.79537e-33)
(-2.42037 0.294877 -1.63785e-30)
(-2.36653 0.29031 -1.83115e-31)
(-2.30579 0.281722 4.29491e-31)