/*--------------------------------*- C++ -*----------------------------------*\
| =========                 |                                                 |
| \\      /  F ield         | OpenFOAM: The Open Source CFD Toolbox           |
|  \\    /   O peration     | Version:  v2012                                 |
|   \\  /    A nd           | Website:  www.openfoam.com                      |
|    \\/     M anipulation  |                                                 |
\*---------------------------------------------------------------------------*/
FoamFile
{
    version     2.0;
    format      ascii;
    class       volVectorField;
    location    "1e-06";
    object      UMean;
}
// * * * * * * * * * * * * * * * * * * * * * * * * * * * * * * * * * * * * * //

dimensions      [0 1 -1 0 0 0 0];


internalField   nonuniform List<vector> 
10123
(
(-2.41091 0.312137 -2.93491e-29)
(-2.36608 0.306168 3.62688e-29)
(-2.32853 0.301071 6.07024e-29)
(-2.29572 0.297242 1.67395e-28)
(-2.27281 0.29426 -1.21372e-28)
(-2.22806 0.287635 6.98478e-29)
(-2.17759 0.281619 8.04943e-29)
(-2.15911 0.279748 2.04311e-28)
(-2.13026 0.275171 2.88768e-29)
(-2.06403 0.266489 -1.11642e-28)
(-2.0432 0.263011 -9.23216e-35)
(-1.92285 0.248814 2.72676e-29)
(-1.95478 0.253889 0)
(-1.91211 0.247328 2.5779e-29)
(-1.88593 0.244222 1.08636e-28)
(-1.85105 0.239104 -2.87736e-29)
(-1.78478 0.230513 6.27463e-29)
(-1.76416 0.227149 2.43678e-30)
(-1.65064 0.213647 -6.68985e-29)
(-1.66904 0.216579 4.84389e-29)
(-1.62966 0.210654 4.61846e-29)
(-1.59823 0.206766 8.07029e-35)
(-1.56305 0.201768 -2.33127e-29)
(-1.50161 0.193802 -2.95943e-29)
(-1.4796 0.190403 0)
(-1.38113 0.178842 4.92323e-29)
(-1.39124 0.181343 0)
(-1.35275 0.175696 2.08555e-29)
(-1.32212 0.17196 1.73538e-28)
(-1.29179 0.167651 1.12801e-28)
(-1.24029 0.160923 6.81177e-29)
(-1.21749 0.158197 1.12903e-28)
(-1.18391 0.153901 1.96978e-29)
(-1.15457 0.149864 0)
(-1.11084 0.144349 8.2779e-29)
(-1.0984 0.142882 2.11874e-29)
(-1.06829 0.138887 9.09657e-29)
(-1.03569 0.134544 -2.67464e-29)
(-1.0136 0.131857 1.21872e-28)
(-0.993852 0.129468 1.35351e-28)
(-0.97551 0.126882 -1.78883e-29)
(-0.945533 0.122988 3.78919e-29)
(-0.931715 0.121358 1.29593e-28)
(-0.914089 0.119024 5.57205e-29)
(-0.893505 0.116141 -1.48113e-29)
(-0.865428 0.112682 0)
(-0.858123 0.111445 -1.58957e-29)
(-0.809436 0.105673 -1.56166e-29)
(-0.833988 0.109376 -7.71131e-29)
(-0.817502 0.111199 -2.41353e-28)
(-0.808447 0.110353 1.45684e-29)
(-0.800837 0.109057 0)
(-0.781236 0.106263 -2.45166e-28)
(-0.768904 0.104846 -1.35696e-29)
(-0.763633 0.104169 -1.48313e-29)
(-0.753598 0.102505 1.31158e-29)
(-0.731275 0.0993883 4.55729e-35)
(-0.7198 0.0980397 5.11379e-28)
(-0.709663 0.0966027 -5.14729e-28)
(-0.693907 0.0941822 2.41034e-29)
(-0.66546 0.0902434 1.17589e-29)
(-0.651694 0.0884971 0)
(-0.631376 0.0856738 4.64838e-28)
(-0.610012 0.0825732 -4.13418e-28)
(-0.574819 0.0777048 1.10228e-29)
(-0.55714 0.0753259 1.27295e-29)
(-0.524134 0.0709716 3.29655e-28)
(-0.501371 0.0677853 1.0811e-29)
(-0.461503 0.0622346 -2.1421e-28)
(-0.439374 0.0590667 -9.87352e-30)
(-0.395966 0.0536351 -2.0696e-28)
(-0.363754 0.050397 7.85899e-30)
(-0.338907 0.050061 -4.1625e-28)
(-0.299377 0.0444457 9.64962e-30)
(-0.273493 0.0408769 1.07583e-29)
(-0.236419 0.0353551 0)
(-0.215841 0.0322315 -1.05587e-29)
(-0.173133 0.0262229 -1.07058e-29)
(-0.151538 0.0233429 -4.37013e-28)
(-0.113982 0.0177476 0)
(-0.0960877 0.0149123 0)
(-0.0522793 0.00839923 8.25932e-28)
(-0.0348289 0.00587688 8.8969e-28)
(-0.00346254 0.00127238 5.38954e-28)
(0.00844632 -0.000673545 1.22119e-29)
(0.0449795 -0.00607713 6.52991e-28)
(0.0611785 -0.00832726 7.08484e-28)
(0.0841709 -0.0117204 7.54206e-28)
(0.089845 -0.0127183 1.21854e-29)
(0.123818 -0.0173321 7.69969e-28)
(0.0927758 -0.0131981 0)
(0.150179 -0.0219063 -9.84903e-28)
(0.147756 -0.0212524 -1.16369e-29)
(0.164893 -0.0239454 -1.12603e-29)
(0.179595 -0.0261637 -1.69267e-27)
(0.186346 -0.0283325 1.21098e-28)
(0.177239 -0.0271258 -2.39952e-30)
(0.192785 -0.0297076 -7.57521e-29)
(0.199473 -0.0321241 -1.78826e-27)
(0.18989 -0.0306475 6.55986e-30)
(0.167767 -0.0269743 0)
(0.165874 -0.0268287 1.63928e-27)
(0.154201 -0.0249479 1.54055e-27)
(0.143843 -0.0231684 -3.88689e-30)
(0.11675 -0.0186225 -3.31184e-30)
(0.109147 -0.0174737 0)
(0.0895766 -0.0143746 1.7193e-27)
(0.0790657 -0.0126363 -6.16017e-28)
(0.0532443 -0.00837978 -3.65827e-28)
(0.0447622 -0.00702607 6.9061e-28)
(0.0291397 -0.00458153 2.54661e-28)
(0.0188033 -0.00292236 -1.0896e-28)
(0.00340276 -0.000365046 7.70277e-29)
(0.00256999 -0.000247893 -1.48028e-30)
(-0.00628084 0.00119843 -7.49716e-29)
(-0.00993097 0.0017333 -4.12273e-29)
(-0.000608115 -1.429e-05 3.01008e-30)
(0.00825463 -0.00154054 -3.38995e-30)
(0.0180032 -0.00328911 6.32418e-30)
(0.0331205 -0.00597625 4.20648e-29)
(0.0503114 -0.00945817 0)
(0.0799306 -0.0151591 2.93316e-30)
(0.100288 -0.0188745 6.78973e-29)
(0.135568 -0.0250698 1.66441e-28)
(0.153605 -0.0282062 -1.68088e-30)
(0.192596 -0.0354348 -6.88751e-28)
(0.216588 -0.039874 6.26972e-28)
(0.263414 -0.0488174 -1.91223e-30)
(-2.55118 0.329659 1.92275e-28)
(-2.49647 0.322789 4.01504e-28)
(-2.46964 0.318971 3.5606e-29)
(-2.44008 0.315372 2.14825e-28)
(-2.37989 0.307983 -4.47696e-28)
(-2.35037 0.30301 -3.50704e-30)
(-2.32615 0.300281 1.66384e-28)
(-2.271 0.29406 0)
(-2.23428 0.288311 0)
(-2.19325 0.282521 -2.81549e-28)
(-2.16162 0.277478 -8.21236e-29)
(-2.13976 0.276102 1.46384e-28)
(-2.06342 0.267285 0)
(-2.03535 0.262416 -1.22103e-28)
(-1.97675 0.255421 1.95402e-28)
(-1.94164 0.2501 -7.40009e-29)
(-1.89574 0.243736 -2.83597e-29)
(-1.86138 0.238443 -6.32304e-29)
(-1.83348 0.236216 -5.81932e-29)
(-1.75982 0.227492 2.4028e-29)
(-1.731 0.222748 2.29272e-29)
(-1.67207 0.215708 1.96077e-28)
(-1.63659 0.210566 4.63099e-29)
(-1.59117 0.204297 8.16746e-35)
(-1.55907 0.199481 -3.25889e-29)
(-1.52943 0.197048 1.04911e-28)
(-1.46159 0.189989 2.17063e-29)
(-1.43503 0.185825 0)
(-1.38201 0.179505 0)
(-1.34715 0.174545 1.8386e-29)
(-1.30781 0.169139 1.31605e-28)
(-1.28205 0.165999 0)
(-1.23037 0.159728 1.57204e-28)
(-1.2077 0.156509 -1.22159e-28)
(-1.17493 0.152203 9.49741e-29)
(-1.14944 0.149118 1.18856e-28)
(-1.11125 0.144272 -2.09465e-29)
(-1.08666 0.140841 -3.51469e-29)
(-1.06904 0.138673 6.58725e-29)
(-1.03465 0.134637 1.31394e-28)
(-1.01542 0.131925 6.5992e-35)
(-0.994934 0.129125 5.24394e-29)
(-0.978075 0.127068 8.35728e-29)
(-0.948236 0.123333 -1.66198e-29)
(-0.934384 0.121303 -1.94898e-30)
(-0.917132 0.119141 1.63158e-29)
(-0.90093 0.116705 8.09398e-31)
(-0.897546 0.116986 3.51201e-29)
(-0.875368 0.114821 -1.01346e-28)
(-0.8653 0.118758 -1.49545e-29)
(-0.844582 0.116627 4.41084e-28)
(-0.832453 0.114735 0)
(-0.821604 0.113006 1.38595e-29)
(-0.811223 0.111865 1.34211e-29)
(-0.794908 0.109784 -4.41608e-28)
(-0.784125 0.10796 -1.29746e-29)
(-0.769426 0.105689 0)
(-0.756323 0.104138 8.12088e-28)
(-0.735447 0.101338 -1.60982e-27)
(-0.721272 0.0990137 1.19204e-29)
(-0.698469 0.0955677 6.92576e-28)
(-0.681157 0.0933456 -2.20272e-29)
(-0.65107 0.0893083 -1.08468e-29)
(-0.631564 0.0863086 -6.86647e-28)
(-0.599283 0.0814199 5.72637e-28)
(-0.5777 0.0785018 -2.52208e-30)
(-0.538801 0.0733791 1.03879e-27)
(-0.514005 0.0697807 0)
(-0.473659 0.0637048 1.31912e-29)
(-0.448912 0.0601982 3.43024e-28)
(-0.413378 0.0556414 0)
(-0.363977 0.0503585 -3.99386e-28)
(-0.341322 0.0507829 -6.56731e-28)
(-0.295593 0.0442099 -5.68501e-28)
(-0.26631 0.0397442 -3.24926e-28)
(-0.223748 0.0326986 0)
(-0.202509 0.0291277 7.78382e-29)
(-0.156011 0.0224951 1.06546e-29)
(-0.131663 0.0188092 -4.17827e-28)
(-0.0853556 0.011149 -7.56258e-28)
(-0.0637612 0.0076728 -2.33844e-29)
(-0.020209 0.00144469 7.18571e-28)
(-0.00207934 -0.00130348 7.97945e-28)
(0.0391779 -0.00772563 1.97548e-27)
(0.0580363 -0.010833 1.21696e-29)
(0.0888066 -0.0153451 1.11971e-27)
(0.108465 -0.0182221 1.21747e-27)
(0.135584 -0.0224746 0)
(0.15103 -0.0249779 -1.37987e-27)
(0.176652 -0.0282737 2.7138e-27)
(0.199319 -0.0318157 0)
(0.205611 -0.0334647 1.62323e-27)
(0.214333 -0.0341944 1.54721e-27)
(0.219632 -0.0352081 2.24567e-29)
(0.225344 -0.0358248 -1.38452e-27)
(0.238341 -0.0370422 3.10941e-28)
(0.236705 -0.0364328 1.29059e-28)
(0.243781 -0.0378564 -2.19957e-28)
(0.235827 -0.0407241 -2.91582e-27)
(0.230199 -0.0401056 0)
(0.212504 -0.0366628 -6.01644e-30)
(0.20636 -0.0358535 2.79089e-27)
(0.181704 -0.0317807 5.26483e-30)
(0.170604 -0.029453 -2.21336e-27)
(0.144145 -0.0244253 1.7719e-27)
(0.135825 -0.0231638 1.77916e-27)
(0.106794 -0.0184391 1.56594e-27)
(0.0935331 -0.01581 5.62783e-31)
(0.0655643 -0.0107281 0)
(0.0577862 -0.0094571 1.38946e-27)
(0.0377008 -0.00626363 0)
(0.0243413 -0.00383014 -5.32547e-28)
(0.00595101 -0.000732143 3.87609e-28)
(0.0055861 -0.000743543 2.04324e-28)
(-0.00447399 0.000819912 -3.81709e-28)
(-0.00855058 0.00139845 1.2028e-28)
(0.0011896 -0.000551748 2.98436e-30)
(0.00982576 -0.00204439 9.5587e-29)
(0.0217373 -0.00418573 7.22089e-29)
(0.0390755 -0.00726514 5.39152e-29)
(0.0618061 -0.0117028 0)
(0.0985023 -0.0191114 -1.66177e-28)
(0.117227 -0.0225406 3.73462e-28)
(0.155046 -0.0291893 3.1737e-28)
(0.180997 -0.0340868 7.62513e-28)
(0.234341 -0.0443983 0)
(0.257276 -0.048725 1.45917e-27)
(0.303691 -0.0565244 0)
(-2.70907 0.346727 -5.08792e-30)
(-2.64671 0.339923 1.88136e-28)
(-2.61748 0.335793 8.68279e-29)
(-2.58799 0.331206 0)
(-2.52736 0.324313 -2.49119e-28)
(-2.48985 0.318804 -1.75214e-28)
(-2.46336 0.315071 1.02273e-28)
(-2.40767 0.308518 5.68709e-29)
(-2.36514 0.302722 9.62547e-35)
(-2.31872 0.296001 -2.47743e-29)
(-2.28722 0.290905 2.31018e-29)
(-2.21486 0.283386 2.36291e-29)
(-2.18095 0.279023 2.66487e-29)
(-2.15157 0.27434 -2.2326e-29)
(-2.09164 0.267312 -2.52132e-29)
(-2.05046 0.261668 -9.13905e-29)
(-1.99867 0.254137 1.59007e-29)
(-1.96507 0.248994 -9.09277e-29)
(-1.89655 0.241996 0)
(-1.85532 0.2365 0)
(-1.82545 0.231893 -2.28759e-29)
(-1.76513 0.224897 4.24142e-29)
(-1.72418 0.219461 -5.78669e-29)
(-1.67319 0.212168 -4.06402e-29)
(-1.64158 0.207431 -1.84051e-28)
(-1.57611 0.200955 2.17213e-29)
(-1.53651 0.196607 7.67726e-35)
(-1.509 0.192681 -2.06391e-29)
(-1.45466 0.186267 0)
(-1.4156 0.181227 -8.35893e-29)
(-1.37198 0.175233 -3.27683e-29)
(-1.34636 0.171733 0)
(-1.29424 0.165955 1.0407e-28)
(-1.26616 0.162399 -6.81368e-29)
(-1.22971 0.157395 1.96123e-29)
(-1.20567 0.154292 3.77276e-29)
(-1.16492 0.149713 -6.42599e-29)
(-1.13734 0.146013 -2.28692e-30)
(-1.11916 0.143486 6.46694e-35)
(-1.0846 0.13964 -1.76235e-29)
(-1.06281 0.136967 0)
(-1.03979 0.133809 -1.03703e-29)
(-1.02331 0.131528 0)
(-0.994422 0.128228 0)
(-0.979069 0.126285 -2.46317e-29)
(-0.961002 0.123925 -1.1327e-29)
(-0.94603 0.121783 1.7682e-29)
(-0.923938 0.119864 -1.89546e-30)
(-0.917716 0.119654 -3.06936e-29)
(-0.907031 0.122932 -2.93123e-28)
(-0.887213 0.120958 3.15027e-28)
(-0.873658 0.119144 -1.41381e-29)
(-0.860978 0.117231 -2.76289e-29)
(-0.850407 0.115862 -1.33779e-29)
(-0.8343 0.113776 1.30769e-29)
(-0.821341 0.111807 -3.013e-28)
(-0.804142 0.109097 0)
(-0.791154 0.107348 -5.64319e-28)
(-0.769783 0.104493 1.4935e-29)
(-0.75222 0.101786 0)
(-0.726262 0.0977106 1.01849e-27)
(-0.709226 0.0953165 1.09805e-29)
(-0.678177 0.0912402 1.08131e-29)
(-0.653782 0.0876168 5.25734e-28)
(-0.617501 0.081956 3.68397e-28)
(-0.596145 0.0789284 -3.68563e-28)
(-0.555542 0.0738589 3.51129e-28)
(-0.524558 0.0693034 1.0669e-29)
(-0.479785 0.0624477 7.83237e-30)
(-0.455085 0.0589599 1.69159e-28)
(-0.411201 0.0536502 9.96984e-30)
(-0.359955 0.0474732 3.15261e-35)
(-0.335873 0.047469 -9.52039e-30)
(-0.285902 0.0405604 -3.76449e-28)
(-0.25347 0.0361035 -1.96722e-28)
(-0.203048 0.027623 -1.11414e-29)
(-0.18001 0.0237099 4.82963e-28)
(-0.127924 0.0166374 0)
(-0.0997316 0.0126585 5.24739e-28)
(-0.0454818 0.00357044 -8.58701e-28)
(-0.0231042 7.45115e-05 0)
(0.0262032 -0.0066002 7.73324e-28)
(0.047091 -0.00956762 0)
(0.095532 -0.0171976 1.05993e-27)
(0.114588 -0.0202367 1.10213e-27)
(0.149916 -0.0248653 0)
(0.170001 -0.0276777 -1.20925e-27)
(0.203001 -0.0328694 -2.51392e-29)
(0.218101 -0.0352418 -1.55802e-29)
(0.247237 -0.0387288 1.52764e-29)
(0.245511 -0.038722 1.18802e-29)
(0.277841 -0.0436746 1.53172e-27)
(0.284822 -0.044054 1.45076e-27)
(0.291257 -0.0449495 -1.42834e-27)
(0.295546 -0.0455527 2.1753e-29)
(0.306926 -0.0476171 -3.99879e-28)
(0.30066 -0.0459839 -2.046e-28)
(0.308089 -0.0473988 0)
(0.297009 -0.0492194 -5.32395e-27)
(0.285601 -0.0476929 0)
(0.262367 -0.0432133 0)
(0.255939 -0.0421927 2.52187e-27)
(0.226391 -0.0374434 1.57414e-29)
(0.209239 -0.0342729 -4.14539e-27)
(0.17728 -0.0283537 1.64751e-27)
(0.168301 -0.0269644 1.64246e-27)
(0.134263 -0.0216148 0)
(0.116311 -0.0183263 1.09913e-27)
(0.0838025 -0.0126993 1.69934e-30)
(0.0754668 -0.011413 6.30003e-31)
(0.0523741 -0.00791907 -1.15918e-30)
(0.0355086 -0.00498763 3.62624e-31)
(0.0143046 -0.00162195 2.3211e-28)
(0.0136953 -0.0016948 2.81402e-28)
(0.00203948 1.51765e-06 -2.59599e-30)
(-0.00338252 0.00052764 -1.20331e-29)
(0.00833524 -0.00207945 1.79639e-28)
(0.0176974 -0.00374319 1.75243e-28)
(0.0314684 -0.00639712 2.08903e-28)
(0.0510743 -0.0100789 -6.93159e-30)
(0.0807809 -0.0160822 5.7623e-30)
(0.123291 -0.0248019 -1.00319e-27)
(0.143091 -0.0283857 9.61676e-28)
(0.18878 -0.0363751 1.00421e-27)
(0.223184 -0.0429666 1.00323e-27)
(0.2848 -0.0546292 -1.53431e-27)
(0.258177 -0.0495897 1.94965e-27)
(0.363674 -0.0689815 3.77815e-30)
(-2.71989 0.346669 -8.81502e-29)
(-2.68446 0.343371 1.36404e-28)
(-2.62808 0.335941 -3.17775e-29)
(-2.59806 0.331093 3.6706e-29)
(-2.55004 0.325926 -9.38769e-29)
(-2.50095 0.31915 -7.91523e-29)
(-2.47242 0.314926 -9.1012e-29)
(-2.41883 0.308695 2.81394e-29)
(-2.38022 0.30352 2.85891e-29)
(-2.32754 0.295907 -2.16067e-29)
(-2.29572 0.290459 -1.79883e-28)
(-2.25557 0.287155 -6.91971e-29)
(-2.1897 0.279096 -4.39448e-29)
(-2.15974 0.274013 -1.11257e-28)
(-2.10192 0.267368 -5.03317e-29)
(-2.06 0.261793 -1.0159e-29)
(-2.00523 0.253655 -9.64633e-29)
(-1.97185 0.248369 7.92525e-35)
(-1.92678 0.244481 -4.80058e-29)
(-1.86179 0.236189 -2.39305e-29)
(-1.83169 0.231315 -1.19719e-28)
(-1.77318 0.224709 2.25327e-29)
(-1.73145 0.219335 4.496e-29)
(-1.67823 0.211568 -1.23986e-28)
(-1.64672 0.206675 -2.26423e-28)
(-1.60166 0.202888 -2.16375e-29)
(-1.5418 0.196243 2.16255e-29)
(-1.51428 0.192175 7.08917e-35)
(-1.46042 0.185922 -6.26532e-29)
(-1.42251 0.181156 -2.07979e-29)
(-1.37651 0.174824 3.10154e-29)
(-1.3504 0.171098 1.02281e-28)
(-1.30336 0.166107 1.94644e-29)
(-1.27055 0.162211 0)
(-1.23345 0.156987 0)
(-1.20925 0.153801 1.88269e-29)
(-1.1738 0.150019 1.86658e-29)
(-1.14062 0.145731 2.38544e-30)
(-1.12209 0.143031 0)
(-1.08826 0.139418 0)
(-1.06652 0.136888 -1.59136e-29)
(-1.04242 0.133535 -1.52382e-29)
(-1.02583 0.131118 1.68688e-29)
(-0.999961 0.12833 1.65423e-29)
(-0.981734 0.126172 0)
(-0.963277 0.123667 -1.16717e-28)
(-0.948337 0.121469 -9.13452e-29)
(-0.934133 0.120717 1.91405e-29)
(-0.919255 0.119714 1.52737e-29)
(-0.908572 0.122649 -2.32096e-28)
(-0.889454 0.120983 -3.15696e-28)
(-0.87732 0.119411 0)
(-0.862881 0.117226 0)
(-0.852242 0.115841 3.04251e-28)
(-0.836577 0.113855 0)
(-0.823579 0.111843 -3.06402e-28)
(-0.805787 0.108955 0)
(-0.792776 0.107173 3.26585e-30)
(-0.772161 0.104436 1.15069e-27)
(-0.753802 0.10158 5.35596e-28)
(-0.727563 0.097332 8.73168e-28)
(-0.710503 0.0948799 -4.06256e-28)
(-0.680673 0.0909599 0)
(-0.654816 0.0871573 4.39197e-28)
(-0.618473 0.0813106 0)
(-0.597083 0.0782378 1.0134e-29)
(-0.557448 0.0731887 1.00817e-29)
(-0.525405 0.0686558 2.35127e-28)
(-0.480893 0.0616803 1.34491e-29)
(-0.45589 0.0581018 1.95277e-29)
(-0.411858 0.0526665 0)
(-0.360021 0.0464932 -1.02798e-29)
(-0.335769 0.0463736 -1.90341e-29)
(-0.285896 0.0396402 -9.53339e-30)
(-0.248096 0.0342432 -9.40816e-29)
(-0.202144 0.0264221 -1.11391e-29)
(-0.178657 0.0222972 4.47551e-28)
(-0.126146 0.015335 1.0584e-29)
(-0.0901728 0.0100321 6.83337e-28)
(-0.0433624 0.00201509 2.45722e-29)
(-0.0210732 -0.00142252 1.13375e-27)
(0.028584 -0.00810759 9.95122e-28)
(0.0601457 -0.0126981 -2.50045e-29)
(0.0981934 -0.018774 -5.09467e-29)
(0.11709 -0.0217838 1.3071e-27)
(0.152725 -0.0263714 0)
(0.188055 -0.0315064 -1.44332e-27)
(0.205954 -0.0343893 -2.50925e-29)
(0.220872 -0.036769 1.612e-27)
(0.250277 -0.0401038 -3.54492e-30)
(0.267159 -0.0428008 0)
(0.280838 -0.0452513 0)
(0.287615 -0.045376 -2.30953e-29)
(0.29414 -0.0463085 -1.69128e-27)
(0.312035 -0.0488092 -2.17055e-29)
(0.309911 -0.0485005 -4.88372e-28)
(0.303357 -0.0465226 -1.84894e-28)
(0.310729 -0.0480291 -2.75203e-28)
(0.303704 -0.0508886 -3.05802e-27)
(0.288043 -0.0485811 -1.30313e-29)
(0.264435 -0.0437976 2.66241e-27)
(0.257973 -0.0427678 2.69263e-27)
(0.229398 -0.0382422 1.04766e-29)
(0.211114 -0.0347399 -4.35743e-27)
(0.178822 -0.0285815 1.31274e-29)
(0.169795 -0.0271969 6.75447e-30)
(0.135838 -0.0219369 0)
(0.117665 -0.0184819 1.09414e-27)
(0.0848285 -0.0127474 -1.364e-36)
(0.0764448 -0.0115009 -6.79043e-28)
(0.0532716 -0.00806023 -2.30371e-30)
(0.0365248 -0.00505124 2.65706e-28)
(0.0148846 -0.00167618 2.58648e-30)
(0.0142544 -0.0018268 -3.06733e-28)
(0.00249193 -9.6356e-05 2.16651e-28)
(-0.0017977 0.000144068 -2.23798e-28)
(0.00839796 -0.00233608 5.51446e-28)
(0.0177149 -0.00400473 -6.60949e-30)
(0.0315159 -0.00671478 0)
(0.054486 -0.0111178 6.85886e-30)
(0.0809508 -0.0165589 5.67592e-30)
(0.123441 -0.0254418 -9.54819e-28)
(0.143473 -0.02904 9.11776e-28)
(0.190369 -0.0371979 8.77819e-28)
(0.224665 -0.0438966 -1.49836e-27)
(0.286263 -0.0553666 -1.86812e-27)
(0.310508 -0.0603864 4.10464e-30)
(0.365284 -0.0700579 7.46302e-28)
(-2.80461 0.355057 3.24255e-29)
(-2.75681 0.350325 1.06619e-28)
(-2.70715 0.343243 -6.65308e-31)
(-2.67689 0.338466 5.59187e-29)
(-2.62339 0.332793 0)
(-2.57418 0.325866 -2.74976e-29)
(-2.54492 0.321424 2.86959e-29)
(-2.48965 0.31503 5.26692e-29)
(-2.44616 0.309332 2.84147e-29)
(-2.39239 0.301347 -5.31112e-29)
(-2.36072 0.296199 -2.66162e-28)
(-2.31274 0.291776 6.19041e-29)
(-2.24939 0.283539 -2.60884e-29)
(-2.21883 0.27858 -3.37477e-30)
(-2.15877 0.27181 0)
(-2.1133 0.265868 0)
(-2.05623 0.257193 -2.43825e-28)
(-2.02327 0.252201 0)
(-1.97109 0.247428 6.58952e-30)
(-1.90799 0.238975 2.37843e-29)
(-1.87742 0.234181 -1.03553e-28)
(-1.81691 0.227548 -3.14683e-29)
(-1.77203 0.221888 -8.02061e-35)
(-1.71659 0.213666 4.53021e-29)
(-1.68536 0.208992 2.04811e-28)
(-1.63438 0.204586 -2.15039e-29)
(-1.57602 0.197828 -6.22163e-30)
(-1.54803 0.193847 0)
(-1.49269 0.1876 -8.87406e-29)
(-1.45189 0.18267 0)
(-1.40437 0.176114 -3.19741e-29)
(-1.37829 0.172318 5.81671e-29)
(-1.32881 0.167384 -1.93569e-29)
(-1.29516 0.163488 -1.97234e-29)
(-1.25625 0.158011 -1.94796e-29)
(-1.23251 0.154906 0)
(-1.19369 0.151043 0)
(-1.16112 0.146816 -7.33453e-29)
(-1.1424 0.14403 0)
(-1.10808 0.140596 0)
(-1.08494 0.138086 -1.72712e-29)
(-1.06001 0.134624 -6.26873e-29)
(-1.04356 0.132157 3.35381e-29)
(-1.01688 0.129482 1.04051e-28)
(-0.999054 0.127499 5.80914e-30)
(-0.980438 0.124978 -5.50125e-29)
(-0.966034 0.122945 1.71484e-28)
(-0.951172 0.122298 1.09224e-34)
(-0.935203 0.121178 -1.21057e-29)
(-0.92438 0.123886 -2.10401e-28)
(-0.905753 0.122445 -3.11777e-28)
(-0.892214 0.120779 -2.80279e-29)
(-0.877523 0.118528 2.73927e-29)
(-0.866798 0.117102 -1.8723e-30)
(-0.850756 0.115056 2.73224e-28)
(-0.836425 0.112834 0)
(-0.817492 0.109674 2.5026e-29)
(-0.804444 0.107828 2.06372e-29)
(-0.782857 0.104918 5.37823e-28)
(-0.762781 0.101728 4.89946e-28)
(-0.734834 0.0970709 7.54392e-28)
(-0.717723 0.0945373 -3.85087e-28)
(-0.686256 0.0903806 -2.14331e-29)
(-0.658236 0.0861463 4.19741e-28)
(-0.61978 0.0798087 0)
(-0.598181 0.076644 0)
(-0.556327 0.0714177 -2.00632e-29)
(-0.521741 0.0663544 1.98487e-28)
(-0.474485 0.0588047 -4.2641e-30)
(-0.448841 0.0550758 -5.71477e-29)
(-0.401157 0.0492721 -1.32064e-28)
(-0.346827 0.0425048 -2.47262e-29)
(-0.321888 0.0421014 -1.89501e-29)
(-0.269758 0.0351695 0)
(-0.230886 0.0299147 -4.71266e-29)
(-0.178564 0.020857 3.74022e-28)
(-0.154208 0.0164521 2.07861e-29)
(-0.0985364 0.00918675 2.10506e-29)
(-0.0625852 0.00412231 -7.20805e-28)
(-0.00897127 -0.00503914 1.20246e-27)
(0.0138403 -0.00859187 1.20916e-27)
(0.0665476 -0.0156162 -1.09842e-27)
(0.0965568 -0.0196737 0)
(0.141758 -0.0268029 -1.37763e-27)
(0.160856 -0.0298986 2.40907e-29)
(0.198846 -0.0347242 2.37971e-29)
(0.230003 -0.0389097 1.55287e-27)
(0.255427 -0.0427153 2.49771e-29)
(0.270255 -0.0452405 -2.40675e-29)
(0.300986 -0.0486566 -1.99169e-29)
(0.315816 -0.050767 -1.7806e-27)
(0.332026 -0.0532422 -1.90513e-27)
(0.337813 -0.0531809 0)
(0.344615 -0.0542378 2.22617e-29)
(0.356643 -0.0556739 4.32427e-29)
(0.357908 -0.0557496 1.98709e-29)
(0.348606 -0.0532587 0)
(0.355793 -0.0548286 -4.24973e-28)
(0.344653 -0.0570325 0)
(0.327272 -0.0543381 0)
(0.30035 -0.0488658 2.96868e-27)
(0.293474 -0.0477424 0)
(0.261334 -0.0426483 1.04492e-29)
(0.239988 -0.0385558 5.02708e-30)
(0.204628 -0.0317845 1.89642e-27)
(0.195125 -0.0303463 1.34785e-29)
(0.158121 -0.0247156 5.35419e-30)
(0.137432 -0.0207852 1.29968e-27)
(0.102243 -0.0147319 0)
(0.093488 -0.0135072 -8.63564e-28)
(0.068601 -0.00994669 -1.1647e-30)
(0.0502581 -0.00666946 1.0924e-30)
(0.0276018 -0.00333354 0)
(0.0269089 -0.00359331 -4.49373e-28)
(0.0146671 -0.0019427 0)
(0.00991539 -0.0018825 0)
(0.0218395 -0.00497102 -2.04048e-30)
(0.0315173 -0.00675934 6.5585e-30)
(0.0468996 -0.00998387 6.99311e-30)
(0.0707595 -0.0147497 -4.00904e-28)
(0.102256 -0.0213663 0)
(0.14846 -0.0312287 -1.08472e-27)
(0.169392 -0.0349818 -6.84389e-30)
(0.220406 -0.0438729 0)
(0.25955 -0.0516372 -1.54192e-27)
(0.3254 -0.0640778 -2.08149e-27)
(0.351122 -0.0689784 -2.11462e-27)
(0.409561 -0.0793031 5.60508e-28)
(-2.85118 0.357961 3.42114e-29)
(-2.79759 0.352887 -1.51723e-28)
(-2.75016 0.345833 -5.84582e-29)
(-2.71971 0.340784 -6.05591e-29)
(-2.66391 0.335147 -5.98508e-29)
(-2.61375 0.32802 2.92286e-29)
(-2.5839 0.32326 1.08959e-28)
(-2.52742 0.316743 -4.40336e-29)
(-2.48173 0.310941 0)
(-2.42698 0.302611 -2.01672e-29)
(-2.39487 0.297355 -1.30821e-28)
(-2.3354 0.291812 9.43198e-29)
(-2.28037 0.284269 1.93309e-29)
(-2.24945 0.279149 1.97955e-28)
(-2.18804 0.272356 0)
(-2.14043 0.26624 0)
(-2.08191 0.257179 -2.94818e-28)
(-2.04901 0.252217 -9.53176e-29)
(-1.98781 0.246728 -4.41439e-29)
(-1.93036 0.238606 9.27227e-30)
(-1.89954 0.233705 1.51245e-34)
(-1.8379 0.227145 -1.13204e-28)
(-1.79106 0.221357 -5.48172e-29)
(-1.73419 0.212822 1.24332e-28)
(-1.70303 0.208173 2.98224e-30)
(-1.64486 0.203282 0)
(-1.59075 0.196817 2.09855e-29)
(-1.56246 0.192759 0)
(-1.50613 0.18658 4.29953e-30)
(-1.46411 0.181741 4.11338e-29)
(-1.41548 0.175021 -4.1559e-29)
(-1.38912 0.171108 -5.42201e-29)
(-1.33885 0.166491 7.69585e-29)
(-1.30401 0.162535 3.9229e-29)
(-1.2642 0.156938 3.87597e-29)
(-1.24055 0.153858 1.18181e-28)
(-1.2007 0.15026 -3.69269e-29)
(-1.16745 0.14596 -8.81607e-29)
(-1.14864 0.143086 -3.54146e-29)
(-1.11411 0.139864 -1.23332e-34)
(-1.09014 0.137453 6.76012e-29)
(-1.06467 0.133952 3.45699e-29)
(-1.04832 0.131435 -1.2566e-28)
(-1.02187 0.129041 1.60782e-28)
(-1.00359 0.127131 -1.52824e-29)
(-0.984904 0.124605 1.14074e-28)
(-0.970799 0.122654 1.08026e-28)
(-0.952991 0.121816 -1.23249e-28)
(-0.938636 0.120973 -3.39312e-29)
(-0.927795 0.123497 -3.4286e-28)
(-0.909741 0.122228 2.23921e-28)
(-0.895692 0.120576 -2.78843e-29)
(-0.880388 0.118225 2.76763e-28)
(-0.869616 0.116764 1.94585e-30)
(-0.853391 0.114658 2.44485e-28)
(-0.838167 0.11226 0)
(-0.818369 0.108877 4.42761e-28)
(-0.805273 0.106971 -4.26989e-28)
(-0.783294 0.10393 0)
(-0.761795 0.100408 4.67456e-28)
(-0.732724 0.0954401 3.35036e-28)
(-0.715559 0.0928325 2.16688e-29)
(-0.683601 0.0885552 4.06163e-28)
(-0.653496 0.0838478 -3.23136e-30)
(-0.613828 0.0771746 1.44166e-28)
(-0.592077 0.0739238 -2.01201e-29)
(-0.549864 0.0687437 1.80081e-28)
(-0.512233 0.0630045 2.12375e-29)
(-0.462812 0.0549695 2.10645e-29)
(-0.436397 0.0511086 1.93728e-29)
(-0.388505 0.0454714 -4.8773e-29)
(-0.330235 0.0377529 4.28119e-29)
(-0.305051 0.0372125 0)
(-0.25151 0.0301811 0)
(-0.212835 0.0251564 0)
(-0.154948 0.0149186 4.72135e-28)
(-0.13001 0.0103637 6.31271e-28)
(-0.072265 0.00298389 -2.09436e-29)
(-0.0373079 -0.001777 -3.83093e-30)
(0.0218147 -0.0119106 2.56714e-27)
(0.0450426 -0.0155568 -1.3718e-27)
(0.0996284 -0.0225577 -4.99174e-29)
(0.127818 -0.0261194 -1.2493e-27)
(0.178511 -0.0341907 -1.49562e-27)
(0.197852 -0.0372516 -1.57526e-27)
(0.237304 -0.042045 -2.36955e-29)
(0.264566 -0.0453937 -2.075e-29)
(0.295907 -0.0500502 0)
(0.310773 -0.0525766 -1.89051e-27)
(0.342063 -0.0557994 -3.60499e-27)
(0.348605 -0.0564509 -3.83052e-27)
(0.373133 -0.0600082 -4.09446e-27)
(0.378326 -0.0596197 4.58286e-29)
(0.385172 -0.0606228 1.97151e-27)
(0.391985 -0.0611658 0)
(0.396329 -0.0615099 7.60568e-28)
(0.385248 -0.0585234 1.7936e-29)
(0.392175 -0.0600247 -1.67557e-29)
(0.377427 -0.0617535 3.55669e-27)
(0.359365 -0.0587916 0)
(0.330193 -0.0527858 0)
(0.322928 -0.0515413 0)
(0.288025 -0.0460044 -1.04241e-29)
(0.264826 -0.0415054 5.43404e-27)
(0.227446 -0.0343197 2.11938e-27)
(0.217569 -0.0328306 -2.13917e-27)
(0.178411 -0.0269679 -1.06939e-29)
(0.156111 -0.0227277 -2.84368e-30)
(0.119513 -0.0165481 0)
(0.110489 -0.015365 -1.05361e-27)
(0.0844008 -0.0117728 0)
(0.0650552 -0.00836054 -5.4154e-28)
(0.0421624 -0.00524176 0)
(0.0414451 -0.00558469 0)
(0.0290685 -0.004147 0)
(0.023566 -0.00426217 3.79458e-28)
(0.0375506 -0.00807081 -8.52977e-28)
(0.0475048 -0.00996134 6.52848e-30)
(0.0640665 -0.0136533 6.47686e-28)
(0.0874817 -0.0186015 -4.93849e-28)
(0.12332 -0.0263983 -3.97954e-28)
(0.17215 -0.0370219 -2.46989e-27)
(0.193802 -0.0408936 0)
(0.247258 -0.0502711 0)
(0.289783 -0.0588743 -1.66118e-27)
(0.358273 -0.0719122 -5.39599e-31)
(0.384525 -0.0767899 -2.23304e-27)
(0.445546 -0.0873071 3.72512e-30)
(-2.85634 0.357012 2.76442e-28)
(-2.80871 0.352454 5.31695e-29)
(-2.75488 0.344982 -1.02742e-28)
(-2.72426 0.339779 0)
(-2.67229 0.334487 -3.01318e-29)
(-2.61854 0.327219 -5.90396e-29)
(-2.58804 0.322262 1.01059e-28)
(-2.53228 0.315796 -5.58873e-29)
(-2.48757 0.310125 -5.60571e-29)
(-2.43076 0.301609 -4.03087e-30)
(-2.39854 0.296265 1.75647e-28)
(-2.34573 0.291389 -2.46726e-29)
(-2.28386 0.283253 1.43905e-28)
(-2.25259 0.27798 1.53065e-28)
(-2.1918 0.271223 -3.96494e-29)
(-2.14389 0.265185 1.00831e-28)
(-2.08455 0.256013 -3.88248e-28)
(-2.05161 0.25098 -2.94052e-28)
(-1.99339 0.245522 4.38238e-29)
(-1.9326 0.237466 -8.21372e-29)
(-1.90162 0.232444 0)
(-1.84034 0.225913 -2.44533e-28)
(-1.7932 0.220214 2.76657e-29)
(-1.73587 0.211626 2.19379e-28)
(-1.70461 0.206927 -2.87477e-28)
(-1.64979 0.202315 -4.26129e-29)
(-1.59215 0.195678 -7.54227e-29)
(-1.56377 0.191538 4.06866e-29)
(-1.50751 0.185413 4.00792e-29)
(-1.46553 0.180657 2.0685e-29)
(-1.41641 0.173946 0)
(-1.38986 0.169926 -3.25301e-28)
(-1.34006 0.16531 3.83655e-29)
(-1.3047 0.161632 -8.39644e-30)
(-1.26473 0.155956 -1.30244e-34)
(-1.2409 0.152822 1.95343e-28)
(-1.20107 0.149199 -1.31467e-29)
(-1.16769 0.145141 -7.08374e-29)
(-1.14882 0.14217 1.6623e-28)
(-1.1142 0.139019 0)
(-1.09016 0.136716 7.37735e-29)
(-1.06471 0.133228 0)
(-1.04831 0.130628 -1.88595e-28)
(-1.02178 0.128274 1.44588e-28)
(-1.00355 0.126543 1.15708e-34)
(-0.984905 0.123976 1.32913e-28)
(-0.970765 0.122002 -3.09669e-29)
(-0.95274 0.121192 -1.59709e-28)
(-0.938011 0.120454 -2.99723e-29)
(-0.927287 0.122799 -2.39705e-28)
(-0.909772 0.121624 2.61003e-29)
(-0.895419 0.119986 2.78072e-29)
(-0.880287 0.117699 2.05931e-28)
(-0.869498 0.116213 2.04635e-28)
(-0.853142 0.114056 0)
(-0.837818 0.111627 -2.54458e-29)
(-0.818138 0.108246 3.19418e-28)
(-0.805023 0.106291 -2.3852e-29)
(-0.782653 0.103122 -4.06161e-28)
(-0.761348 0.099616 3.3154e-28)
(-0.732629 0.094666 -2.22077e-28)
(-0.71544 0.091977 1.80395e-28)
(-0.68229 0.0873857 2.38865e-28)
(-0.653289 0.0829386 -4.91247e-28)
(-0.613883 0.0762295 -3.32776e-30)
(-0.59162 0.0728085 0)
(-0.546731 0.0670322 -3.08064e-30)
(-0.511438 0.0618731 0)
(-0.461551 0.0536324 -2.47652e-28)
(-0.4346 0.0496925 -2.80182e-28)
(-0.384383 0.043598 0)
(-0.328254 0.0362498 0)
(-0.303411 0.0357023 1.10632e-28)
(-0.249548 0.0286791 0)
(-0.205342 0.0225531 0)
(-0.152239 0.0132709 -2.20401e-29)
(-0.127328 0.00862474 8.58263e-28)
(-0.069229 0.00128904 2.08961e-29)
(-0.0281021 -0.00470719 2.73696e-29)
(0.0251291 -0.0135656 1.49539e-27)
(0.0481874 -0.0173153 -1.50428e-27)
(0.103113 -0.0242245 2.75414e-27)
(0.138675 -0.0290455 2.04945e-29)
(0.182143 -0.0358317 2.51806e-29)
(0.201313 -0.0388654 -1.72773e-27)
(0.241054 -0.0436314 4.72877e-29)
(0.277013 -0.0483046 -1.76692e-27)
(0.299697 -0.0514625 -2.48257e-29)
(0.314363 -0.0540339 -2.07051e-27)
(0.34587 -0.0571457 -1.92888e-27)
(0.35981 -0.0588265 -2.03448e-27)
(0.376886 -0.0612506 -3.98284e-30)
(0.381872 -0.0607179 0)
(0.388805 -0.0617451 2.05436e-27)
(0.403736 -0.0632785 1.89167e-27)
(0.399901 -0.0624358 8.14713e-28)
(0.388502 -0.0592192 0)
(0.395367 -0.0607974 0)
(0.383918 -0.0628028 3.62723e-27)
(0.362498 -0.0593394 -3.80393e-27)
(0.332969 -0.0532275 0)
(0.325658 -0.0519544 3.21909e-27)
(0.2917 -0.0465138 -2.07893e-29)
(0.267408 -0.0418192 5.42421e-27)
(0.229653 -0.0345339 -2.09133e-27)
(0.219709 -0.0330582 -2.10894e-27)
(0.180742 -0.0272442 2.03102e-27)
(0.158266 -0.022895 -1.46566e-27)
(0.121279 -0.0166854 0)
(0.112188 -0.0155716 0)
(0.0861256 -0.0120306 0)
(0.067162 -0.00859545 -5.39446e-28)
(0.0436163 -0.00545644 2.53251e-30)
(0.0428597 -0.00587385 6.32797e-28)
(0.0304917 -0.00450574 -4.78423e-28)
(0.0273202 -0.00503973 4.40988e-28)
(0.0389633 -0.0085962 -5.21904e-28)
(0.0488359 -0.0104951 6.50596e-30)
(0.0654033 -0.0142701 -5.31442e-30)
(0.0926657 -0.0201121 0)
(0.124706 -0.0272042 -7.40038e-28)
(0.173663 -0.0379507 -1.64873e-27)
(0.195532 -0.0418256 0)
(0.250097 -0.0514188 5.87611e-30)
(0.292114 -0.0600016 9.09618e-30)
(0.360315 -0.0730582 2.75165e-27)
(0.386641 -0.0778044 0)
(0.448094 -0.088255 0)
(-2.87689 0.355724 -6.40293e-29)
(-2.82599 0.351222 -6.31828e-29)
(-2.77329 0.343236 -1.87491e-28)
(-2.7427 0.338011 0)
(-2.68889 0.332889 -1.04397e-28)
(-2.63479 0.325202 -1.27354e-28)
(-2.60427 0.320083 2.41148e-28)
(-2.54776 0.313612 0)
(-2.50125 0.307875 7.19748e-29)
(-2.44411 0.298949 4.19787e-30)
(-2.41189 0.293712 6.61622e-28)
(-2.3572 0.288829 1.01179e-28)
(-2.29508 0.280206 1.08639e-28)