/*--------------------------------*- C++ -*----------------------------------*\
| =========                 |                                                 |
| \\      /  F ield         | OpenFOAM: The Open Source CFD Toolbox           |
|  \\    /   O peration     | Version:  v2012                                 |
|   \\  /    A nd           | Website:  www.openfoam.com                      |
|    \\/     M anipulation  |                                                 |
\*---------------------------------------------------------------------------*/
FoamFile
{
    version     2.0;
    format      ascii;
    class       volSymmTensorField;
    location    "1e-06";
    object      UPrime2Mean;
}
// * * * * * * * * * * * * * * * * * * * * * * * * * * * * * * * * * * * * * //

dimensions      [0 2 -2 0 0 0 0];


internalField   nonuniform List<symmTensor> 
10123
(
(0.000222418 -3.0627e-05 -8.89869e-31 4.22167e-06 1.23366e-31 5.09575e-57)
(0.000228496 -3.10591e-05 1.10999e-30 4.22559e-06 -1.51377e-31 7.7179e-57)
(0.00024022 -3.20588e-05 1.89617e-30 4.2797e-06 -2.53321e-31 2.14537e-56)
(0.000210212 -2.90562e-05 3.86344e-30 4.01989e-06 -5.37929e-31 9.36849e-56)
(0.000208186 -2.90634e-05 -2.20634e-30 4.06378e-06 3.10312e-31 2.94521e-56)
(0.00022475 -2.95728e-05 1.64041e-30 3.89151e-06 -2.15879e-31 1.74777e-56)
(0.000204809 -2.76659e-05 1.57265e-30 3.73897e-06 -2.12935e-31 1.64812e-56)
(0.00018978 -2.71014e-05 4.35878e-30 3.87735e-06 -6.30289e-31 1.24018e-55)
(0.000208861 -2.80497e-05 8.36503e-31 3.76879e-06 -1.12445e-31 4.81076e-57)
(0.000216191 -2.87549e-05 -2.64047e-30 3.82537e-06 3.51221e-31 4.64699e-56)
(0.000178847 -2.3037e-05 -2.48369e-36 2.96749e-06 3.19786e-37 4.97085e-68)
(0.000222993 -3.00335e-05 8.15257e-31 4.0465e-06 -1.09832e-31 4.30347e-57)
(0.000203921 -3.00546e-05 0 4.43459e-06 0 0)
(0.000175996 -2.35496e-05 6.85818e-31 3.1518e-06 -9.1937e-32 3.8598e-57)
(0.00016586 -2.27461e-05 1.96461e-30 3.12232e-06 -2.70573e-31 3.14496e-56)
(0.000191369 -2.51383e-05 -7.91027e-31 3.30238e-06 1.03913e-31 4.73637e-57)
(0.000195877 -2.56235e-05 1.36705e-30 3.35197e-06 -1.78769e-31 1.41923e-56)
(0.000157255 -2.0147e-05 -6.68145e-32 2.58149e-06 8.55282e-33 4.71216e-59)
(0.000197722 -2.59405e-05 -9.03049e-31 3.40349e-06 1.18325e-31 6.71931e-57)
(0.000188479 -2.68496e-05 1.30968e-30 3.82862e-06 -1.89709e-31 1.3307e-56)
(0.000157977 -2.09729e-05 1.15444e-30 2.78467e-06 -1.534e-31 1.23085e-56)
(0.000150252 -2.05072e-05 1.95335e-36 2.8011e-06 -2.67402e-37 3.70511e-68)
(0.000177097 -2.32815e-05 -6.1028e-31 3.06083e-06 8.0197e-32 3.0794e-57)
(0.000181078 -2.36962e-05 -4.58181e-31 3.10096e-06 5.99496e-32 1.73644e-57)
(0.000145637 -1.87207e-05 0 2.40658e-06 0 0)
(0.000179221 -2.36138e-05 8.71146e-31 3.11148e-06 -1.14743e-31 6.30427e-57)
(0.00017606 -2.5603e-05 0 3.72748e-06 0 0)
(0.000148378 -2.02607e-05 5.00665e-31 2.76758e-06 -6.85104e-32 2.47984e-57)
(0.00014235 -2.01009e-05 3.22691e-30 2.84181e-06 -4.58121e-31 9.98997e-56)
(0.000164259 -2.23335e-05 2.24594e-30 3.03775e-06 -3.05314e-31 4.46833e-56)
(0.000168202 -2.25297e-05 1.31776e-30 3.01812e-06 -1.76391e-31 1.53393e-56)
(0.000142053 -1.95858e-05 2.01339e-30 2.70192e-06 -2.7833e-31 3.95031e-56)
(0.000138508 -1.91583e-05 4.54764e-31 2.65189e-06 -6.30749e-32 2.19584e-57)
(0.000160529 -2.14977e-05 0 2.87938e-06 0 0)
(0.00016118 -2.16494e-05 1.66154e-30 2.90829e-06 -2.23156e-31 2.49946e-56)
(0.000137991 -1.90211e-05 4.87204e-31 2.62316e-06 -6.7374e-32 2.53005e-57)
(0.000144147 -1.95964e-05 1.63444e-30 2.66509e-06 -2.22275e-31 2.66129e-56)
(0.000157588 -2.09797e-05 -3.85064e-31 2.79319e-06 5.12318e-32 1.39846e-57)
(0.000141502 -1.91555e-05 2.0271e-30 2.59366e-06 -2.74702e-31 4.01713e-56)
(0.000136556 -1.8775e-05 2.09782e-30 2.58238e-06 -2.89293e-31 4.09949e-56)
(0.000148625 -1.98766e-05 -4.19842e-31 2.65852e-06 5.61424e-32 1.75586e-57)
(0.000151097 -2.01303e-05 6.4054e-31 2.68209e-06 -8.53212e-32 3.96483e-57)
(0.000138323 -1.8812e-05 2.13722e-30 2.55899e-06 -2.91274e-31 4.39989e-56)
(0.000134767 -1.83165e-05 8.55779e-31 2.49007e-06 -1.16511e-31 7.25062e-57)
(0.00014499 -1.92621e-05 -3.4048e-31 2.55915e-06 4.52236e-32 1.19019e-57)
(0.00014694 -1.95825e-05 0 2.60989e-06 0 0)
(0.00013742 -1.79957e-05 -3.56284e-31 2.35661e-06 4.66642e-32 1.36794e-57)
(0.000147648 -1.95967e-05 -3.61603e-31 2.6011e-06 4.80006e-32 1.31298e-57)
(0.000145056 -2.00501e-05 -1.40099e-30 2.7722e-06 1.94575e-31 1.57482e-56)
(0.000140706 -2.27024e-05 -4.32355e-30 3.67076e-06 7.06796e-31 1.53512e-55)
(0.000133306 -2.23791e-05 3.20066e-31 3.76568e-06 -5.48333e-32 1.12506e-57)
(0.000137412 -2.23698e-05 0 3.6481e-06 0 0)
(0.000139191 -2.21674e-05 -4.56717e-30 3.53655e-06 7.37001e-31 1.78405e-55)
(0.000134381 -2.21042e-05 -2.96735e-31 3.64244e-06 4.97993e-32 9.55604e-58)
(0.000130891 -2.18308e-05 -3.19506e-31 3.64894e-06 5.43399e-32 1.13599e-57)
(0.000135685 -2.18043e-05 2.8564e-31 3.51019e-06 -4.68535e-32 8.78026e-58)
(0.000137187 -2.17417e-05 9.81439e-37 3.45157e-06 -1.58796e-37 1.01057e-68)
(0.000129006 -2.11111e-05 8.94649e-30 3.46079e-06 -1.48457e-30 7.29368e-55)
(0.000126542 -2.07482e-05 -8.8985e-30 3.40838e-06 1.47974e-30 7.38461e-55)
(0.000137227 -2.16646e-05 5.20151e-31 3.42625e-06 -8.38655e-32 2.87555e-57)
(0.000139156 -2.17215e-05 2.54512e-31 3.39542e-06 -4.04895e-32 6.78108e-58)
(0.000125485 -2.00599e-05 0 3.2133e-06 0 0)
(0.000124245 -1.98128e-05 8.13438e-30 3.16594e-06 -1.31525e-30 6.27242e-55)
(0.000141642 -2.18708e-05 -7.6597e-30 3.38068e-06 1.19339e-30 5.17433e-55)
(0.00014234 -2.16261e-05 2.38381e-31 3.28809e-06 -3.65066e-32 5.78689e-58)
(0.000121158 -1.8696e-05 2.571e-31 2.88853e-06 -4.01668e-32 7.84273e-58)
(0.000121742 -1.85521e-05 5.50538e-30 2.83e-06 -8.45439e-31 3.11328e-55)
(0.000144335 -2.15158e-05 2.3385e-31 3.20909e-06 -3.50126e-32 5.50045e-58)
(0.000143726 -2.09634e-05 -3.80069e-30 3.05859e-06 5.54874e-31 1.39443e-55)
(0.000114823 -1.67649e-05 -1.94518e-31 2.44924e-06 2.84674e-32 4.73119e-58)
(0.00013191 -1.91287e-05 -3.41363e-30 2.77494e-06 4.95254e-31 1.24075e-55)
(0.000148814 -2.27026e-05 1.70417e-31 3.46448e-06 -2.61056e-32 2.84009e-58)
(0.000117697 -2.02056e-05 -6.78913e-30 3.47286e-06 1.17408e-30 5.02476e-55)
(0.000113437 -1.92245e-05 1.88298e-31 3.26133e-06 -3.22248e-32 4.4946e-58)
(0.000147646 -2.39004e-05 2.35235e-31 3.86986e-06 -3.81566e-32 5.43999e-58)
(0.000152928 -2.36765e-05 0 3.66567e-06 0 0)
(0.000114493 -1.75883e-05 -2.09105e-31 2.70189e-06 3.2105e-32 5.56166e-58)
(0.000110734 -1.681e-05 -2.0926e-31 2.55194e-06 3.17744e-32 5.79853e-58)
(0.00015283 -2.25938e-05 -9.51877e-30 3.34081e-06 1.4079e-30 8.8107e-55)
(0.000159958 -2.26675e-05 0 3.21382e-06 0 0)
(0.000117073 -1.62949e-05 0 2.27059e-06 0 0)
(0.000114536 -1.57912e-05 1.48573e-29 2.18018e-06 -2.02555e-30 2.56972e-54)
(0.000147333 -2.02634e-05 1.83711e-29 2.79115e-06 -2.48496e-30 2.84586e-54)
(0.000151464 -2.04755e-05 1.0979e-29 2.77197e-06 -1.46455e-30 1.06005e-54)
(0.000123103 -1.64369e-05 2.51086e-31 2.19995e-06 -3.26207e-32 7.76205e-58)
(0.00012043 -1.52779e-05 1.1756e-29 1.94671e-06 -1.45263e-30 1.4446e-54)
(0.00014176 -1.78464e-05 1.37133e-29 2.25391e-06 -1.68338e-30 1.68652e-54)
(0.000140959 -1.74449e-05 1.4607e-29 2.16669e-06 -1.7599e-30 1.92577e-54)
(0.000126626 -1.54952e-05 2.53632e-31 1.90628e-06 -2.96804e-32 7.69021e-58)
(0.000127394 -1.52845e-05 1.38666e-29 1.84232e-06 -1.62229e-30 1.93692e-54)
(0.000124868 -1.49251e-05 0 1.79272e-06 0 0)
(0.000135214 -1.51228e-05 -1.81756e-29 1.7077e-06 1.95595e-30 3.05375e-54)
(0.00013095 -1.48204e-05 -2.44877e-31 1.68836e-06 2.652e-32 6.86144e-58)
(0.000130347 -1.45015e-05 -2.36065e-31 1.62611e-06 2.49764e-32 6.37978e-58)
(0.000140222 -1.62158e-05 -3.10341e-29 1.88466e-06 3.49753e-30 8.63587e-54)
(0.000129725 -1.95767e-05 2.57857e-30 2.95439e-06 -3.88656e-31 7.51278e-56)
(0.000121458 -1.86765e-05 -4.74773e-32 2.87188e-06 7.29767e-33 2.71087e-59)
(0.000131836 -2.00364e-05 -1.68343e-30 3.04515e-06 2.55889e-31 3.31022e-56)
(0.000133614 -1.69261e-05 -3.08064e-29 2.15829e-06 3.8177e-30 8.92193e-54)
(0.000118426 -1.54541e-05 1.21038e-31 2.02785e-06 -1.52105e-32 1.73999e-58)
(0.000117797 -1.6118e-05 0 2.21372e-06 0 0)
(0.000140429 -1.90926e-05 3.07719e-29 2.60345e-06 -4.09062e-30 8.38081e-54)
(0.000136938 -1.88068e-05 2.81307e-29 2.59025e-06 -3.78789e-30 7.22467e-54)
(0.000111791 -1.60944e-05 -5.87568e-32 2.32249e-06 8.24512e-33 4.13651e-59)
(0.000112986 -1.7178e-05 -4.56507e-32 2.61606e-06 6.79322e-33 2.45095e-59)
(0.000137842 -2.10455e-05 0 3.21674e-06 0 0)
(0.000133301 -2.05747e-05 3.26087e-29 3.17783e-06 -4.9734e-30 1.00161e-53)
(0.000110527 -1.76691e-05 -1.09869e-29 2.82638e-06 1.73872e-30 1.36992e-54)
(0.000109267 -1.80928e-05 -6.3989e-30 2.99625e-06 1.05738e-30 5.24824e-55)
(0.000132421 -2.20263e-05 1.30996e-29 3.66405e-06 -2.17565e-30 1.82335e-54)
(0.00013523 -2.27839e-05 5.18515e-30 3.83877e-06 -8.71779e-31 2.7654e-55)
(0.000112581 -1.92533e-05 -2.15932e-30 3.29266e-06 3.69183e-31 6.11961e-56)
(0.000107847 -1.84615e-05 1.51833e-30 3.16031e-06 -2.59952e-31 3.31897e-56)
(0.000126541 -2.16542e-05 -6.80608e-32 3.70557e-06 1.16543e-32 7.68614e-59)
(0.000122967 -2.10785e-05 -1.62422e-30 3.61319e-06 2.78361e-31 3.27572e-56)
(0.000111568 -1.91211e-05 -7.73266e-31 3.27709e-06 1.32489e-31 7.32552e-57)
(0.000117525 -2.01749e-05 9.95701e-32 3.46333e-06 -1.70944e-32 1.57793e-58)
(0.000113987 -1.95772e-05 -1.06187e-31 3.36235e-06 1.82369e-32 1.81321e-58)
(0.000110477 -1.89934e-05 2.84291e-31 3.26539e-06 -4.88717e-32 1.02461e-57)
(0.000108399 -1.86704e-05 5.14653e-31 3.21576e-06 -8.86332e-32 3.47047e-57)
(0.000125913 -2.28922e-05 0 4.16207e-06 0 0)
(0.000124885 -2.29762e-05 1.02281e-31 4.22716e-06 -1.88136e-32 1.57569e-58)
(9.56739e-05 -1.7581e-05 1.76819e-30 3.23068e-06 -3.24851e-31 4.92476e-56)
(9.96172e-05 -1.81685e-05 3.01949e-30 3.31365e-06 -5.5092e-31 1.35112e-55)
(0.000130894 -2.36413e-05 -7.54643e-32 4.27008e-06 1.36524e-32 8.86148e-59)
(0.000128424 -2.30002e-05 -1.39553e-29 4.11948e-06 2.50081e-30 2.21785e-54)
(9.64634e-05 -1.7361e-05 1.15039e-29 3.12482e-06 -2.07201e-30 1.99534e-54)
(0.000100266 -1.8404e-05 -6.67014e-32 3.37811e-06 1.22426e-32 8.50987e-59)
(0.000352022 -4.7261e-05 6.04761e-30 6.34551e-06 -8.14524e-31 1.41468e-55)
(0.00036114 -4.85289e-05 1.21173e-29 6.52259e-06 -1.62724e-30 5.94677e-55)
(0.000370558 -4.89362e-05 1.36309e-30 6.46283e-06 -1.8004e-31 7.37981e-57)
(0.000322558 -4.31955e-05 6.91193e-30 5.78497e-06 -9.30223e-31 2.04053e-55)
(0.000343026 -4.69453e-05 -1.26877e-29 6.42644e-06 1.7397e-30 6.6028e-55)
(0.000353454 -4.61892e-05 -1.30335e-31 6.03601e-06 1.7043e-32 7.11044e-59)
(0.000303087 -4.00863e-05 5.13921e-30 5.30193e-06 -6.80602e-31 1.27667e-55)
(0.000302965 -4.18579e-05 0 5.78486e-06 0 0)
(0.000332902 -4.42343e-05 0 5.8781e-06 0 0)
(0.000320374 -4.20993e-05 -8.25387e-30 5.5322e-06 1.08501e-30 3.22309e-55)
(0.000277576 -3.61329e-05 -1.96082e-30 4.70353e-06 2.55437e-31 2.05598e-56)
(0.000238542 -3.23054e-05 3.21811e-30 4.37751e-06 -4.35188e-31 6.38263e-56)
(0.000307925 -4.24458e-05 0 5.85749e-06 0 0)
(0.000258172 -3.37583e-05 -3.44495e-30 4.41437e-06 4.51622e-31 6.70236e-56)
(0.000259142 -3.4967e-05 4.98548e-30 4.71884e-06 -6.73515e-31 1.38436e-55)
(0.000291666 -3.83033e-05 -1.59534e-30 5.03038e-06 2.09304e-31 1.40998e-56)
(0.000279107 -3.62866e-05 -9.25864e-31 4.71761e-06 1.20409e-31 4.60163e-57)
(0.000236568 -3.07424e-05 -3.48174e-30 3.99507e-06 4.53065e-31 7.98877e-56)
(0.000212757 -2.81997e-05 -7.89965e-31 3.73865e-06 1.04296e-31 5.00544e-57)
(0.000272043 -3.70173e-05 7.67723e-31 5.04089e-06 -1.06481e-31 3.27438e-57)
(0.000223953 -2.91599e-05 6.75927e-31 3.79689e-06 -8.81728e-32 3.03356e-57)
(0.000224339 -3.02237e-05 4.69064e-30 4.07242e-06 -6.32459e-31 1.43849e-55)
(0.000257154 -3.37731e-05 1.43737e-30 4.43568e-06 -1.88653e-31 1.21566e-56)
(0.00024809 -3.22937e-05 2.48086e-36 4.20366e-06 -3.23224e-37 3.74683e-68)
(0.000207794 -2.70202e-05 -1.58673e-30 3.51355e-06 2.06428e-31 1.8547e-56)
(0.000192159 -2.55131e-05 2.15163e-30 3.38802e-06 -2.85389e-31 3.64414e-56)
(0.000242916 -3.37425e-05 6.49755e-31 4.68997e-06 -9.18701e-32 2.64004e-57)
(0.000200277 -2.66142e-05 0 3.53679e-06 0 0)
(0.000199955 -2.76041e-05 0 3.81151e-06 0 0)
(0.000227315 -3.05662e-05 5.32435e-31 4.1104e-06 -7.16129e-32 1.89286e-57)
(0.000221982 -2.9346e-05 3.3353e-30 3.87955e-06 -4.41145e-31 7.7476e-56)
(0.00018986 -2.5589e-05 0 3.44897e-06 0 0)
(0.000191276 -2.60183e-05 3.45748e-30 3.53959e-06 -4.70891e-31 9.19594e-56)
(0.000212987 -2.84101e-05 -2.86963e-30 3.78976e-06 3.82606e-31 6.01285e-56)
(0.000204857 -2.71303e-05 2.24702e-30 3.59303e-06 -2.97873e-31 3.74977e-56)
(0.000182349 -2.46235e-05 2.56209e-30 3.32516e-06 -3.47066e-31 5.06796e-56)
(0.000190877 -2.57331e-05 -5.57245e-31 3.46967e-06 7.51078e-32 2.44763e-57)
(0.000201442 -2.66123e-05 -9.51685e-31 3.51573e-06 1.25803e-31 6.80662e-57)
(0.000178861 -2.38556e-05 1.31228e-30 3.18178e-06 -1.75283e-31 1.38574e-56)
(0.000177934 -2.41144e-05 2.83146e-30 3.26833e-06 -3.84847e-31 6.41581e-56)
(0.000191311 -2.54114e-05 1.73232e-36 3.37539e-06 -2.30115e-37 2.37417e-68)
(0.000187708 -2.483e-05 1.08324e-30 3.28453e-06 -1.43344e-31 9.46661e-57)
(0.000173365 -2.32198e-05 1.71946e-30 3.11004e-06 -2.30834e-31 2.38797e-56)
(0.000173518 -2.33208e-05 -4.17319e-31 3.13447e-06 5.61888e-32 1.51568e-57)
(0.000181911 -2.40805e-05 -4.97204e-32 3.18773e-06 6.58072e-33 2.06159e-59)
(0.000178538 -2.3646e-05 4.12183e-31 3.13174e-06 -5.46272e-32 1.43995e-57)
(0.000171092 -2.25298e-05 2.95055e-31 2.96679e-06 -3.88645e-32 8.86175e-58)
(0.000155879 -2.06794e-05 5.78656e-31 2.74356e-06 -7.67351e-32 3.21398e-57)
(0.000178011 -2.34743e-05 -2.91261e-30 3.09673e-06 3.88039e-31 6.33543e-56)
(0.000169962 -2.59028e-05 -3.6792e-31 3.95364e-06 5.75928e-32 1.18894e-57)
(0.000165785 -2.54426e-05 1.07848e-29 3.91342e-06 -1.69671e-30 9.34602e-55)
(0.000171494 -2.59634e-05 0 3.93793e-06 0 0)
(0.000168812 -2.53505e-05 3.36756e-31 3.81251e-06 -5.18879e-32 9.97361e-58)
(0.000161871 -2.46801e-05 3.19628e-31 3.77061e-06 -5.01054e-32 9.33339e-58)
(0.000161687 -2.47593e-05 -1.06431e-29 3.79919e-06 1.66957e-30 9.38643e-55)
(0.000166466 -2.51469e-05 -3.1023e-31 3.80452e-06 4.80869e-32 8.57745e-58)
(0.000163489 -2.45455e-05 0 3.69057e-06 0 0)
(0.000154218 -2.35325e-05 1.90105e-29 3.59831e-06 -2.97113e-30 3.12004e-54)
(0.000154505 -2.36137e-05 -3.7501e-29 3.61589e-06 5.86801e-30 1.21478e-53)
(0.000164448 -2.47413e-05 2.79363e-31 3.72715e-06 -4.30719e-32 7.02155e-58)
(0.000162225 -2.42038e-05 1.6313e-29 3.61519e-06 -2.48217e-30 2.23075e-54)
(0.000147616 -2.23167e-05 -4.91321e-31 3.37951e-06 7.62847e-32 2.38908e-57)
(0.000148262 -2.24461e-05 -2.42033e-31 3.40309e-06 3.7571e-32 5.76272e-58)
(0.000164762 -2.462e-05 -1.57508e-29 3.6809e-06 2.38659e-30 2.10619e-54)
(0.000161768 -2.38148e-05 1.29892e-29 3.50678e-06 -1.9308e-30 1.47843e-54)
(0.000139215 -2.06984e-05 -5.43583e-32 3.07876e-06 8.19456e-33 3.07349e-59)
(0.000139784 -2.07372e-05 2.16185e-29 3.0775e-06 -3.23993e-30 4.61067e-54)
(0.000162472 -2.38144e-05 0 3.49125e-06 0 0)
(0.000159168 -2.27387e-05 2.97799e-31 3.24856e-06 -4.26994e-32 8.16329e-58)
(0.000127942 -1.83272e-05 6.6677e-30 2.62547e-06 -9.57678e-31 5.04786e-55)
(0.000139468 -2.03121e-05 0 2.95968e-06 0 0)
(0.000161449 -2.40642e-05 -8.92329e-30 3.58714e-06 1.33838e-30 7.06695e-55)
(0.000126588 -2.11926e-05 -1.3013e-29 3.54938e-06 2.20036e-30 1.86566e-54)
(0.000121311 -2.01612e-05 -1.08653e-29 3.35198e-06 1.82274e-30 1.34444e-54)
(0.000156637 -2.51745e-05 -6.61725e-30 4.04644e-06 1.06687e-30 3.96222e-55)
(0.000160496 -2.46234e-05 0 3.77774e-06 0 0)
(0.000119587 -1.82892e-05 2.37069e-30 2.79713e-06 -3.62003e-31 6.87494e-56)
(0.00011368 -1.75013e-05 2.10817e-31 2.69438e-06 -3.24701e-32 5.74934e-58)
(0.000155414 -2.34788e-05 -1.07266e-29 3.5471e-06 1.62056e-30 1.16176e-54)
(0.000161447 -2.32886e-05 -1.87994e-29 3.35992e-06 2.69104e-30 3.26765e-54)
(0.000118357 -1.6777e-05 -4.73957e-31 2.37903e-06 6.68629e-32 2.82838e-57)
(0.000113382 -1.62789e-05 1.53841e-29 2.33932e-06 -2.16577e-30 2.9896e-54)
(0.000145215 -2.05229e-05 1.90652e-29 2.90711e-06 -2.61538e-30 3.45265e-54)
(0.000148257 -2.09791e-05 4.69614e-29 2.9705e-06 -6.53451e-30 2.21172e-53)
(0.000121163 -1.7003e-05 2.48366e-31 2.39046e-06 -3.37894e-32 7.72227e-58)
(0.000115477 -1.55495e-05 2.34661e-29 2.10138e-06 -3.03959e-30 6.68517e-54)
(0.000136724 -1.84647e-05 2.77651e-29 2.50328e-06 -3.60275e-30 7.99811e-54)
(0.000134323 -1.79761e-05 0 2.41637e-06 0 0)
(0.000122257 -1.61295e-05 -2.98807e-29 2.13877e-06 3.76338e-30 1.03108e-53)
(0.000119955 -1.55248e-05 5.725e-29 2.01674e-06 -7.12199e-30 3.86759e-53)
(0.000135117 -1.75791e-05 0 2.29917e-06 0 0)
(0.000126266 -1.63901e-05 3.60881e-29 2.14972e-06 -4.39441e-30 1.43285e-53)
(0.000124543 -1.5978e-05 3.38135e-29 2.06505e-06 -4.11471e-30 1.28003e-53)
(0.000121051 -1.54741e-05 4.55299e-31 1.99655e-06 -5.45841e-32 2.54543e-57)
(0.000129244 -1.69927e-05 -3.0994e-29 2.24817e-06 3.88282e-30 1.0319e-53)
(0.000120824 -1.82849e-05 6.85215e-30 2.7672e-06 -1.03461e-30 5.90971e-55)
(0.000115974 -1.76994e-05 2.93659e-30 2.70125e-06 -4.47037e-31 1.09571e-55)
(0.00012373 -1.88142e-05 -4.93477e-30 2.86088e-06 7.50079e-31 3.02773e-55)
(0.00012211 -1.78778e-05 -6.32627e-29 2.63305e-06 8.83235e-30 4.50051e-53)
(0.000109247 -1.57685e-05 0 2.28972e-06 0 0)
(0.000111086 -1.62772e-05 -1.05414e-31 2.39621e-06 1.48703e-32 1.39164e-58)
(0.000132127 -1.94096e-05 6.19298e-29 2.86426e-06 -8.74182e-30 4.00218e-53)
(0.000127596 -1.89812e-05 9.10626e-32 2.83423e-06 -1.31179e-32 8.88164e-59)
(0.000105017 -1.58597e-05 -4.38818e-29 2.40171e-06 6.42145e-30 2.51967e-53)
(0.000108103 -1.69012e-05 3.54122e-29 2.64651e-06 -5.40123e-30 1.60494e-53)
(0.000132644 -2.08117e-05 3.89309e-29 3.26978e-06 -5.96634e-30 1.59927e-53)
(0.000128 -2.02792e-05 3.37392e-29 3.21613e-06 -5.2415e-30 1.24267e-53)
(0.00010655 -1.72817e-05 1.66434e-33 2.80467e-06 -2.8333e-34 5.84262e-61)
(0.000106603 -1.77284e-05 0 2.94847e-06 0 0)
(0.000129964 -2.16707e-05 2.92681e-29 3.61363e-06 -4.8661e-30 9.84006e-54)
(0.000132622 -2.24234e-05 0 3.79138e-06 0 0)
(0.000110517 -1.89265e-05 -1.12139e-29 3.24126e-06 1.91782e-30 1.71872e-54)
(0.000106414 -1.82002e-05 7.6097e-30 3.11282e-06 -1.30071e-30 8.21806e-55)
(0.000125107 -2.12221e-05 4.06433e-30 3.59999e-06 -6.90166e-31 2.04263e-55)
(0.000121673 -2.08953e-05 -8.43421e-30 3.58841e-06 1.44727e-30 9.10071e-55)
(0.000110537 -1.89577e-05 2.69939e-30 3.25137e-06 -4.62585e-31 9.92669e-56)
(0.000115909 -1.99056e-05 9.81443e-32 3.41851e-06 -1.68474e-32 1.55365e-58)
(0.000112037 -1.92276e-05 2.24579e-30 3.29981e-06 -3.85383e-31 6.97776e-56)
(0.000108454 -1.86446e-05 2.16026e-30 3.20527e-06 -3.71259e-31 6.67453e-56)
(0.000106032 -1.82473e-05 5.70836e-31 3.14021e-06 -9.82167e-32 5.10114e-57)
(0.00012254 -2.22883e-05 0 4.05399e-06 0 0)
(0.000121074 -2.22748e-05 -4.96753e-30 4.09804e-06 9.13796e-31 3.23919e-55)
(9.17621e-05 -1.68991e-05 9.716e-30 3.11217e-06 -1.78787e-30 1.52319e-54)
(9.42564e-05 -1.72743e-05 7.14935e-30 3.16586e-06 -1.30973e-30 8.07133e-55)
(0.000123986 -2.25386e-05 1.77864e-29 4.09718e-06 -3.23085e-30 3.8271e-54)
(0.000121826 -2.18187e-05 0 3.90786e-06 0 0)
(9.61896e-05 -1.73695e-05 2.91574e-29 3.13663e-06 -5.26342e-30 1.30604e-53)
(9.15004e-05 -1.71415e-05 0 3.21159e-06 0 0)
(0.000259406 -3.3361e-05 1.9717e-31 4.29042e-06 -2.53742e-32 3.89468e-58)
(0.000288582 -3.80969e-05 5.31077e-30 5.0316e-06 -6.9915e-31 1.52469e-55)
(0.000278556 -3.66626e-05 2.82889e-30 4.82636e-06 -3.72026e-31 4.3548e-56)
(0.000240165 -3.06101e-05 0 3.90164e-06 0 0)
(0.000257889 -3.42764e-05 -6.65592e-30 4.55905e-06 8.81961e-31 2.65074e-55)
(0.000264966 -3.48243e-05 -5.76758e-30 4.57749e-06 7.5771e-31 1.882e-55)
(0.000229956 -2.96393e-05 3.52117e-30 3.82025e-06 -4.53884e-31 8.07057e-56)
(0.000223817 -2.95704e-05 1.71442e-30 3.90848e-06 -2.26662e-31 1.88931e-56)
(0.000251955 -3.33571e-05 3.04546e-36 4.41785e-06 -4.02828e-37 5.32971e-68)
(0.000245885 -3.22003e-05 -7.74945e-31 4.21716e-06 1.01483e-31 3.53627e-57)
(0.000206945 -2.71336e-05 8.21577e-31 3.55792e-06 -1.07808e-31 5.03323e-57)
(0.000257912 -3.44039e-05 7.55026e-31 4.59236e-06 -1.00458e-31 3.23017e-57)
(0.000237294 -3.06039e-05 8.13526e-31 3.94704e-06 -1.05084e-31 4.06383e-57)
(0.000198444 -2.5593e-05 -9.804e-31 3.30071e-06 1.26572e-31 7.173e-57)
(0.000195823 -2.61017e-05 -7.06318e-31 3.48141e-06 9.41173e-32 3.69448e-57)
(0.000225219 -2.99841e-05 -2.17278e-30 3.99362e-06 2.88457e-31 3.1816e-56)
(0.000221127 -2.90359e-05 7.42087e-31 3.81301e-06 -9.74333e-32 3.7516e-57)
(0.000181843 -2.41024e-05 -2.93733e-30 3.19531e-06 3.8946e-31 7.25246e-56)
(0.000224788 -3.00253e-05 0 4.01321e-06 0 0)
(0.000217361 -2.83198e-05 0 3.68983e-06 0 0)
(0.000178158 -2.31042e-05 -6.06146e-31 2.99626e-06 7.86791e-32 3.02008e-57)
(0.00017615 -2.35536e-05 6.61103e-31 3.1515e-06 -8.79628e-32 4.03941e-57)
(0.000206668 -2.7527e-05 -1.1624e-30 3.66778e-06 1.54319e-31 1.02563e-56)
(0.000204586 -2.68985e-05 -1.40032e-30 3.53681e-06 1.84084e-31 1.46711e-56)
(0.000167215 -2.21377e-05 -5.5914e-30 2.93134e-06 7.39848e-31 2.84551e-55)
(0.000204972 -2.72247e-05 6.07471e-31 3.61738e-06 -8.05479e-32 2.68362e-57)
(0.000202559 -2.67208e-05 2.12135e-36 3.52512e-06 -2.79776e-37 3.31751e-68)
(0.000167146 -2.17119e-05 -5.2422e-31 2.82039e-06 6.81735e-32 2.42825e-57)
(0.000164601 -2.20974e-05 0 2.96809e-06 0 0)
(0.000191174 -2.55473e-05 -2.05529e-30 3.41481e-06 2.74e-31 3.49859e-56)
(0.000190715 -2.50899e-05 -9.58869e-31 3.30081e-06 1.26074e-31 7.73954e-57)
(0.00016146 -2.12192e-05 0 2.78868e-06 0 0)
(0.000163244 -2.1705e-05 2.43532e-30 2.88658e-06 -3.232e-31 5.63826e-56)
(0.000183413 -2.45186e-05 -1.57166e-30 3.27833e-06 2.09631e-31 2.13651e-56)
(0.000180737 -2.36799e-05 5.08934e-31 3.10251e-06 -6.66933e-32 2.14161e-57)
(0.000157511 -2.06894e-05 9.23399e-31 2.71763e-06 -1.21372e-31 8.02072e-57)
(0.000168432 -2.24093e-05 -1.33764e-30 2.98228e-06 1.77426e-31 1.7182e-56)
(0.000177814 -2.34059e-05 -5.85159e-32 3.08096e-06 7.70423e-33 2.88099e-59)
(0.000158275 -2.07397e-05 1.57594e-36 2.71765e-06 -2.06589e-37 2.32963e-68)
(0.000155551 -2.05855e-05 -4.24965e-31 2.72458e-06 5.62193e-32 1.72547e-57)
(0.000168822 -2.22651e-05 0 2.93654e-06 0 0)
(0.000168431 -2.21196e-05 -2.28115e-31 2.90493e-06 2.99566e-32 4.61127e-58)
(0.000154747 -2.02404e-05 0 2.64739e-06 0 0)
(0.000154385 -2.03293e-05 0 2.67704e-06 0 0)
(0.000161892 -2.13461e-05 -5.1361e-31 2.81464e-06 6.76747e-32 2.56906e-57)
(0.000160783 -2.10934e-05 -3.44592e-31 2.7673e-06 4.52261e-32 1.23032e-57)
(0.000151723 -2.00297e-05 4.14978e-31 2.64424e-06 -5.47969e-32 1.69307e-57)
(0.000160491 -2.11614e-05 -4.55771e-32 2.79043e-06 6.00488e-33 1.93351e-59)
(0.000159921 -2.0179e-05 -7.34031e-31 2.54694e-06 9.29386e-32 5.01198e-57)
(0.000153963 -2.10175e-05 -7.85255e-30 2.86913e-06 1.07395e-30 6.21434e-55)
(0.000148715 -1.95645e-05 9.1271e-30 2.57633e-06 -1.21196e-30 8.58296e-55)
(0.00015462 -2.07305e-05 -3.30918e-31 2.78013e-06 4.45572e-32 1.04381e-57)
(0.0001534 -2.07255e-05 -6.42441e-31 2.80063e-06 8.70457e-32 3.95807e-57)
(0.000147471 -1.96232e-05 -3.05156e-31 2.61263e-06 4.08131e-32 9.25967e-58)
(0.000145917 -1.9337e-05 2.96091e-31 2.56419e-06 -3.94703e-32 8.80443e-58)
(0.00015108 -2.04745e-05 -8.27612e-30 2.77498e-06 1.12561e-30 7.06019e-55)
(0.000150539 -2.04195e-05 0 2.77008e-06 0 0)
(0.00014169 -1.89863e-05 -1.55317e-29 2.54516e-06 2.09314e-30 2.62666e-54)
(0.000141152 -1.90176e-05 3.28681e-31 2.56283e-06 -4.44382e-32 1.12059e-57)
(0.000151809 -2.08638e-05 0 2.86743e-06 0 0)
(0.000152424 -2.08165e-05 2.77542e-29 2.84307e-06 -3.79785e-30 7.89074e-54)
(0.000137944 -1.8716e-05 2.37202e-31 2.5397e-06 -3.22423e-32 5.9279e-58)
(0.000138424 -1.89406e-05 2.33606e-31 2.59167e-06 -3.2004e-32 5.72011e-58)
(0.000156164 -2.17231e-05 1.36414e-29 3.02194e-06 -1.89632e-30 1.8714e-54)
(0.000156483 -2.15387e-05 1.0065e-29 2.96468e-06 -1.38708e-30 1.01188e-54)
(0.00013381 -1.8372e-05 -9.39127e-30 2.52251e-06 1.29128e-30 1.01173e-54)
(0.000135041 -1.86826e-05 8.52874e-30 2.58472e-06 -1.1798e-30 8.36525e-55)
(0.000159608 -2.24361e-05 2.41432e-31 3.15437e-06 -3.39007e-32 5.34484e-58)
(0.000159452 -2.19505e-05 1.76941e-31 3.0218e-06 -2.43831e-32 2.87547e-58)
(0.000127318 -1.76546e-05 4.04545e-30 2.44809e-06 -5.61445e-31 1.94593e-55)
(0.000144738 -2.05101e-05 2.16016e-31 2.90795e-06 -3.05435e-32 4.68727e-58)
(0.000165774 -2.34465e-05 7.26147e-37 3.31634e-06 -1.02879e-37 4.68997e-69)
(0.000131182 -2.01623e-05 -1.97819e-31 3.09891e-06 3.04194e-32 4.31464e-58)
(0.000126495 -1.97087e-05 -8.56638e-30 3.07097e-06 1.33413e-30 8.94464e-55)
(0.000161521 -2.5096e-05 -4.72465e-30 3.89935e-06 7.35158e-31 2.07724e-55)
(0.000171364 -2.61202e-05 -2.6159e-31 3.98143e-06 3.98617e-32 5.88428e-58)
(0.00012831 -1.96388e-05 1.20707e-29 3.00611e-06 -1.84092e-30 1.70236e-54)
(0.000122511 -1.9291e-05 0 3.03809e-06 0 0)
(0.000163859 -2.57844e-05 1.49636e-29 4.05741e-06 -2.35923e-30 2.25067e-54)
(0.00017704 -2.714e-05 -2.42456e-29 4.1608e-06 3.70208e-30 5.29487e-54)
(0.00013109 -2.03942e-05 0 3.17292e-06 0 0)
(0.000127605 -1.99478e-05 1.95271e-29 3.12011e-06 -3.02631e-30 4.67855e-54)
(0.000157579 -2.42632e-05 0 3.73721e-06 0 0)
(0.000167168 -2.62498e-05 2.92983e-29 4.12236e-06 -4.6287e-30 8.619e-54)
(0.000137197 -2.17121e-05 2.80769e-29 3.43695e-06 -4.42343e-30 9.33946e-54)
(0.00013247 -2.09169e-05 0 3.30389e-06 0 0)
(0.000149029 -2.36032e-05 -3.21595e-29 3.73954e-06 5.05896e-30 1.12942e-53)
(0.000154835 -2.44941e-05 -5.71097e-31 3.87598e-06 8.98761e-32 3.25232e-57)
(0.000140574 -2.21971e-05 -3.40074e-31 3.50611e-06 5.34338e-32 1.26114e-57)
(0.000139095 -2.2034e-05 3.31446e-31 3.49243e-06 -5.21931e-32 1.20706e-57)
(0.000133555 -2.12584e-05 2.52358e-31 3.38584e-06 -3.99051e-32 7.24649e-58)
(0.00014636 -2.38441e-05 4.11735e-29 3.88756e-06 -6.62297e-30 1.87348e-53)
(0.000143045 -2.31125e-05 3.84451e-29 3.73751e-06 -6.13373e-30 1.65862e-53)
(0.00014008 -2.29235e-05 -3.79219e-29 3.75532e-06 6.11973e-30 1.64337e-53)
(0.000144344 -2.35005e-05 4.72841e-31 3.82924e-06 -7.62051e-32 2.3272e-57)
(0.000140361 -2.13147e-05 -9.8036e-30 3.23683e-06 1.48951e-30 1.09802e-54)
(0.000132376 -2.00718e-05 -4.74581e-30 3.04344e-06 7.18838e-31 2.62998e-55)
(0.000140553 -2.14845e-05 0 3.28407e-06 0 0)
(0.000136711 -2.46159e-05 -1.40279e-28 4.43586e-06 2.48665e-29 2.27372e-52)
(0.000122785 -2.18556e-05 0 3.89271e-06 0 0)
(0.000122492 -2.14828e-05 0 3.76895e-06 0 0)
(0.000144918 -2.5568e-05 6.67785e-29 4.51277e-06 -1.16802e-29 4.88886e-53)
(0.000139204 -2.46183e-05 2.84113e-31 4.35562e-06 -5.00426e-32 7.96633e-58)
(0.000114135 -1.97778e-05 -9.6237e-29 3.42751e-06 1.66013e-29 1.2684e-52)
(0.000115575 -1.98404e-05 3.80065e-29 3.40598e-06 -6.51203e-30 1.9609e-53)
(0.000140748 -2.41498e-05 4.13443e-29 4.14372e-06 -7.07807e-30 1.94069e-53)
(0.000135006 -2.31834e-05 0 3.98112e-06 0 0)
(0.000111882 -1.91036e-05 2.45587e-29 3.26191e-06 -4.18881e-30 8.4362e-54)
(0.000110842 -1.88559e-05 -1.73833e-32 3.20769e-06 2.96773e-33 2.92486e-59)
(0.00013422 -2.27592e-05 -6.75079e-33 3.85928e-06 1.15348e-33 3.41014e-60)
(0.000136076 -2.32619e-05 4.162e-32 3.97661e-06 -7.10719e-33 5.67336e-59)
(0.000113068 -1.93655e-05 2.65535e-32 3.31681e-06 -4.53744e-33 1.51039e-59)
(0.000108709 -1.85309e-05 4.90457e-30 3.15887e-06 -8.35559e-31 3.35213e-55)
(0.000127393 -2.13299e-05 5.4343e-30 3.57185e-06 -9.12805e-31 3.67199e-55)
(0.000123215 -2.13739e-05 -1.03683e-31 3.70782e-06 1.79142e-32 1.75597e-58)
(0.00011148 -1.9092e-05 -4.02e-31 3.26968e-06 6.88238e-32 2.74373e-57)
(0.000118 -2.02624e-05 4.10304e-30 3.47935e-06 -7.04108e-31 2.17768e-55)
(0.000114385 -1.96294e-05 4.00731e-30 3.36858e-06 -6.87401e-31 2.16653e-55)
(0.000111041 -1.91082e-05 5.05038e-30 3.28821e-06 -8.68304e-31 3.47897e-55)
(0.00010817 -1.85843e-05 -2.08281e-31 3.19293e-06 3.57468e-32 7.26784e-58)
(0.000127802 -2.30864e-05 2.03229e-31 4.17044e-06 -3.66353e-32 6.1423e-58)
(0.000127531 -2.34634e-05 -2.46566e-29 4.31685e-06 4.5323e-30 7.41526e-54)
(9.71109e-05 -1.79466e-05 2.21688e-29 3.31671e-06 -4.08908e-30 7.55555e-54)
(0.000100685 -1.86026e-05 2.3808e-29 3.43716e-06 -4.39052e-30 8.38613e-54)
(0.000133486 -2.46649e-05 2.61639e-29 4.55759e-06 -4.82463e-30 7.94876e-54)
(0.000132344 -2.44068e-05 -3.86015e-29 4.50119e-06 7.10641e-30 1.74476e-53)
(8.77747e-05 -1.59086e-05 3.87006e-29 2.88343e-06 -7.00939e-30 2.51341e-53)
(0.000102222 -1.90646e-05 1.32719e-31 3.55594e-06 -2.46417e-32 3.33361e-58)
(0.000377969 -4.70226e-05 -3.17985e-30 5.8514e-06 3.96861e-31 3.93088e-56)
(0.000363576 -4.71353e-05 3.28073e-30 6.11161e-06 -4.2396e-31 5.30481e-56)
(0.000397776 -4.99115e-05 -1.25538e-30 6.26361e-06 1.58041e-31 5.87669e-57)
(0.000348855 -4.2763e-05 6.32481e-31 5.24507e-06 -7.72794e-32 1.67662e-57)
(0.000347641 -4.51928e-05 -2.35716e-30 5.87606e-06 3.05347e-31 2.71936e-56)
(0.000374081 -4.67444e-05 -3.43179e-30 5.84244e-06 4.30873e-31 4.93841e-56)
(0.000330223 -4.05036e-05 -2.65674e-30 4.97064e-06 3.26423e-31 2.97735e-56)
(0.000317454 -4.05657e-05 5.0752e-31 5.18367e-06 -6.48983e-32 2.17052e-57)
(0.000344004 -4.37805e-05 1.04421e-30 5.57187e-06 -1.33009e-31 4.71507e-57)
(0.000343721 -4.25826e-05 7.11683e-32 5.27731e-06 -9.71427e-33 6.30499e-58)
(0.00029442 -3.59829e-05 -5.51891e-30 4.40099e-06 6.77654e-31 1.54982e-55)
(0.00028723 -3.71686e-05 -1.29694e-30 4.81041e-06 1.67168e-31 1.05733e-56)
(0.000325506 -4.09484e-05 -1.44713e-30 5.15184e-06 1.82801e-31 1.13271e-56)
(0.000277216 -3.37886e-05 -3.00379e-30 4.12254e-06 3.67925e-31 4.85863e-56)
(0.000267156 -3.40398e-05 -1.62941e-30 4.33721e-06 2.07777e-31 1.47231e-56)
(0.000301953 -3.81988e-05 2.97743e-32 4.83254e-06 -3.63155e-33 1.26102e-58)
(0.000297688 -3.68872e-05 -3.19012e-30 4.57262e-06 3.97108e-31 5.29209e-56)
(0.00024827 -3.06096e-05 2.47303e-36 3.77646e-06 -3.06343e-37 3.65422e-68)
(0.000249683 -3.21003e-05 -1.4889e-30 4.12719e-06 1.91248e-31 1.32421e-56)
(0.000284565 -3.56689e-05 -7.80472e-31 4.47191e-06 9.81665e-32 3.24693e-57)
(0.000236928 -2.89771e-05 -3.23254e-30 3.54751e-06 3.97717e-31 6.77495e-56)
(0.000229167 -2.92018e-05 6.70598e-31 3.72109e-06 -8.55256e-32 2.92959e-57)
(0.00026398 -3.34127e-05 1.72513e-30 4.22938e-06 -2.18659e-31 1.64992e-56)