/*--------------------------------*- C++ -*----------------------------------*\
| =========                 |                                                 |
| \\      /  F ield         | OpenFOAM: The Open Source CFD Toolbox           |
|  \\    /   O peration     | Version:  v2012                                 |
|   \\  /    A nd           | Website:  www.openfoam.com                      |
|    \\/     M anipulation  |                                                 |
\*---------------------------------------------------------------------------*/
FoamFile
{
    version     2.0;
    format      ascii;
    class       volScalarField;
    location    "1e-06";
    object      alpha.waterMean;
}
// * * * * * * * * * * * * * * * * * * * * * * * * * * * * * * * * * * * * * //

dimensions      [0 0 0 0 0 0 0];


internalField   nonuniform List<scalar> 
102000
(
1
1
1
1
1
1
1
1
1
1
1
1
1
1
1
1
1
1
1
1
1
1
1
1
1
1
1
1
1
1
1
1
1
1
1
1
1
1
1
1
1
1
1
1
1
1
1
1
1
1
1
1
1
1
1
1
1
1
1
1
1
1
1
1
1
1
1
1
1
1
1
1
1
1
1
1
1
1
1
1
1
1
1
1
1
1
1
1
1
1
1
1
1
1
1
1
1
1
1
1
1
1
1
1
1
1
1
1
1
1
1
1
1
1
1
1
1
1
1
1
1
1
1
1
1
1
1
1
1
1
1
1
1
1
1
1
1
1
1
1
1
1
1
1
1
1
1
1
1
1
1
1
1
1
1
1
1
1
1
1
1
1
1
1
1
1
1
1
1
1
1
0.999925
0.999699
0.984307
0.983382
0.97136
0.969868
0.969054
0.956403
0.956647
0.948369
0.938171
0.932316
0.931306
0.934274
0.932644
0.931762
0.932069
0.931266
0.932101
0.929495
0.928643
0.92919
0.928708
0.930947
0.927633
0.926181
0.927274
0.925714
0.920553
0.915808
0.906059
0.885238
0.883111
0.888343
0.892003
0.897021
0.896857
0.865509
0.857843
0.773456
0.755263
0.597932
0.576504
0.435572
0.421362
0.338539
0.32898
0.277163
0.27033
0.230748
0.20967
0.199516
0.182183
0.178512
0.159644
0.156977
0.140692
0.138337
0.124276
0.121229
0.10737
0.1053
0.0927047
0.17515
0.166798
0.419418
0.429259
0.147123
0.152511
0.0489538
0.135454
0.101373
0.373333
0.411107
0.124887
0.125507
0.0303794
0.0335759
0.0342655
0.0371554
0.0374881
0.0391517
0.0394719
0.0411407
0.0458847
0.0470017
0.0656117
0.0917058
0.194712
0.602806
0.681967
0.990418
0.990114
0.999826
0.999992
0.999874
1
1
1
0.999958
0.999958
0.991471
0.930001
0.91491
0.830806
0.861774
0.872963
0.910782
0.911432
0.813153
0.77307
0.722896
0.69665
0.765493
0.721388
0.741921
0.768234
0.999929
0.779564
0.770162
0.780944
0.818903
0.786033
0.761407
0.831001
0.779298
0.786264
0.839426
0.833144
0.933879
0.946957
0.970825
0.978881
0.977534
0.979064
0.941266
0.948913
0.99582
0.999887
0.999874
0.999997
0.999975
1
1
1
1
1
1
1
1
1
1
1
1
1
1
1
1
1
1
1
1
1
1
1
1
1
1
1
1
1
1
1
1
1
1
1
1
1
1
1
1
1
1
1
1
1
1
1
1
1
1
1
1
1
1
1
1
1
1
1
1
1
1
1
1
1
1
1
1
1
1
1
1
1
1
1
1
1
1
1
1
1
1
1
1
1
1
1
1
1
1
1
1
1
1
1
1
1
1
1
1
1
1
1
1
1
1
1
1
1
1
1
1
1
1
1
1
1
1
1
1
1
1
1
1
1
1
1
1
1
1
1
1
1
1
1
1
1
1
1
1
1
1
1
1
1
1
1
1
1
1
1
1
1
1
1
1
1
1
1
1
1
1
1
1
1
1
1
1
1
1
1
1
1
1
1
1
1
1
1
1
1
1
1
1
1
1
1
1
1
1
1
1
1
1
1
1
1
1
1
1
1
1
1
1
1
1
1
1
1
1
1
1
1
1
1
1
1
1
1
1
1
1
1
1
1
1
1
1
1
1
1
0.999962
0.999913
0.999914
0.999978
0.999992
1
1
0.999998
0.999999
1
1
1
1
1
1
1
1
1
1
1
1
1
1
1
1
1
1
1
1
1
1
1
1
1
1
1
1
1
1
1
1
1
1
1
1
1
1
1
1
1
1
1
1
1
1
1
1
1
1
1
1
1
1
1
1
1
1
1
1
1
1
1
1
1
1
1
1
1
1
1
1
1
1
1
1
1
1
1
1
1
1
1
1
1
1
1
1
1
1
1
1
1
1
1
1
1
1
1
1
1
1
1
1
1
1
1
1
1
1
1
1
1
1
1
1
1
1
1
1
1
1
1
1
1
1
1
1
1
1
1
1
1
1
1
1
1
1
1
1
1
1
1
1
1
1
1
1
1
1
1
1
1
1
1
1
1
1
1
1
1
1
1
1
1
1
1
1
1
1
1
1
1
1
1
1
1
1
1
1
1
1
1
1
1
1
1
1
1
1
1
1
1
1
1
1
1
1
1
1
1
1
1
1
1
1
1
1
1
1
1
1
1
1
1
1
1
1
1
1
1
1
1
1
1
1
1
1
1
1
1
1
1
1
1
1
1
1
1
1
1
1
1
1
1
1
1
1
1
1
1
1
1
1
1
1
1
1
1
1
1
1
1
1
1
1
1
1
1
1
1
1
1
1
1
1
1
1
1
1
1
1
1
1
1
1
1
1
1
1
1
1
1
1
1
1
1
1
1
1
0.996558
0.996182
0.995705
0.992145
0.991341
0.987108
0.98678
0.985926
0.980833
0.979876
0.978208
0.977668
0.974303
0.974378
0.974019
0.973491
0.973964
0.972108
0.9725
0.972534
0.972103
0.97193
0.971101
0.971339
0.971537
0.970798
0.969382
0.966389
0.96201
0.944939
0.947474
0.950613
0.953947
0.956578
0.956957
0.923406
0.920158
0.829812
0.817883
0.638623
0.619626
0.457363
0.445389
0.352965
0.346003
0.288678
0.284184
0.244792
0.218457
0.211977
0.190173
0.185719
0.166589
0.163671
0.146747
0.144655
0.12964
0.1279
0.113231
0.111426
0.0978535
0.0912583
0.0904812
0.316668
0.329878
0.0693259
0.06724
0.053606
0.0486335
0.0474097
0.278851
0.305493
0.0390813
0.0379783
0.0303793
0.0337888
0.0343338
0.0373912
0.0376449
0.0391671
0.0395348
0.0410851
0.0449443
0.045599
0.0603494
0.0745476
0.153554
0.546865
0.604764
0.961128
0.954322
0.999753
0.999983
0.99988
1
1
0.999992
0.998433
0.99689
0.977977
0.855489
0.843037
0.713546
0.702152
0.719929
0.731542
0.734368
0.624035
0.505584
0.520592
0.486281
0.455654
0.522761
0.503572
0.502148
0.361436
0.530842
0.54949
0.591444
0.567188
0.597035
0.600252
0.575944
0.622854
0.63776
0.628935
0.728266
0.83127
0.845907
0.907065
0.906911
0.918822
0.926238
0.918524
0.925641
0.969726
0.977137
0.979392
0.99137
0.997094
0.997464
1
1
1
1
1
1
1
1
1
1
1
1
1
1
1
1
1
1
1
1
1
1
1
1
1
1
1
1
1
1
1
1
1
1
1
1
1
1
1
1
1
1
1
1
1
1
1
1
1
1
1
1
1
1
1
1
1
1
1
1
1
1
1
1
1
1
1
1
1
1
1
1
1
1
1
1
1
1
1
1
1
1
1
1
1
1
1
1
1
1
1
1
1
1
1
1
1
1
1
1
1
1
1
1
1
1
1
1
1
1
1
1
1
1
1
1
1
1
1
1
1
1
1
1
1
1
1
1
1
1
1
1
1
1
1
1
1
1
1
1
1
1
1
1
1
1
1
1
1
1
1
1
1
1
1
1
1
1
1
1
1
1
1
1
1
1
1
1
1
1
1
1
1
1
1
1
1
1
1
1
1
1
1
1
1
1
1
1
1
1
1
1
1
1
1
1
1
1
1
1
1
1
1
1
1
1
1
1
1
1
1
1
1
1
1
1
1
1
1
1
1
1
1
1
1
1
1
1
1
1
0.999993
0.999982
0.999996
0.999999
0.999998
1
1
1
0.999999
1
1
1
1
1
1
1
1
1
1
1
1
1
1
1
1
1
1
1
1
1
1
1
1
1
1
1
1
1
1
1
1
1
1
1
1
1
1
1
1
1
1
1
1
1
1
1
1
1
1
1
1
1
1
1
1
1
1
1
1
1
1
1
1
1
1
1
1
1
1
1
1
1
1
1
1
1
1
1
1
1
1
1
1
1
1
1
1
1
1
1
1
1
1
1
1
1
1
1
1
1
1
1
1
1
1
1
1
1
1
1
1
1
1
1
1
1
1
1
1
1
1
1
1
1
1
1
1
1
1
1
1
1
1
1
1
1
1
1
1
1
1
1
1
1
1
1
1
1
1
1
1
1
1
1
1
1
1
1
1
1
1
1
1
1
1
1
1
1
1
1
1
1
1
1
1
1
1
1
1
1
1
1
1
1
1
1
1
1
1
1
1
1
1
1
1
1
1
1
1
1
1
1
1
1
1
1
1
1
1
1
1
1
1
1
1
1
1
1
1
1
1
1
1
1
1
1
1
1
1
1
1
1
1
1
1
1
1
1
1
1
1
1
1
1
1
1
1
1
1
1
1
1
1
1
1
1
1
1
1
1
1
1
1
1
1
1
1
1
1
1
1
1
1
1
1
1
1
1
1
1
1
1
1
1
1
1
1
1
1
1
1
1
1
1
1
1
1
1
0.999952
0.999319
0.998468
0.998526
0.996777
0.996667
0.996299
0.99475
0.994633
0.994676
0.992724
0.992685
0.992455
0.990773
0.990451
0.990311
0.990169
0.988932
0.988784
0.98875
0.988594
0.988732
0.987432
0.987688
0.98772
0.987714
0.987613
0.986437
0.985748
0.985693
0.984706
0.986315
0.986574
0.987001
0.986187
0.985811
0.965347
0.963546
0.889698
0.879551
0.697977
0.682649
0.500807
0.488907
0.381843
0.376188
0.309863
0.307376
0.265906
0.236296
0.226313
0.205769
0.199726
0.180304
0.176535
0.158831
0.156491
0.140003
0.138741
0.123209
0.122409
0.10614
0.0966703
0.0941383
0.0827838
0.0813764
0.0732217
0.0724499
0.0614098
0.0539172
0.0504668
0.0483837
0.0477139
0.0410955
0.0400315
0.0314953
0.033813
0.0342945
0.0371277
0.0373735
0.0388237
0.0389339
0.0403878
0.0430418
0.0437472
0.0590067
0.0816604
0.169099
0.428485
0.462027
0.947656
0.94249
0.999847
0.999982
0.999906
0.999998
0.999995
0.999963
0.997623
0.995583
0.965622
0.795313
0.767989
0.580795
0.576588
0.556209
0.55647
0.551387
0.403938
0.305408
0.29795
0.280787
0.281956
0.289538
0.310727
0.312695
0.338167
0.351702
0.355653
0.393838
0.408117
0.414937
0.425141
0.44802
0.452425
0.493731
0.508619
0.586878
0.719355
0.724817
0.798914
0.791313
0.785998
0.837397
0.868805
0.872581
0.918688
0.93721
0.942219
0.976233
0.990441
0.992433
0.99974
1
1
1
1
1
1
1
1
1
1
1
1
1
1
1
1
1
1
1
1
1
1
1
1
1
1
1
1
1
1
1
1
1
1
1
1
1
1
1
1
1
1
1
1
1
1
1
1
1
1
1
1
1
1
1
1
1
1
1
1
1
1
1
1
1
1
1
1
1
1
1
1
1
1
1
1
1
1
1
1
1
1
1
1
1
1
1
1
1
1
1
1
1
1
1
1
1
1
1
1
1
1
1
1
1
1
1
1
1
1
1
1
1
1
1
1
1
1
1
1
1
1
1
1
1
1
1
1
1
1
1
1
1
1
1
1
1
1
1
1
1
1
1
1
1
1
1
1
1
1
1
1
1
1
1
1
1
1
1
1
1
1
1
1
1
1
1
1
1
1
1
1
1
1
1
1
1
1
1
1
1
1
1
1
1
1
1
1
1
1
1
1
1
1
1
1
1
1
1
1
1
1
1
1
1
1
1
1
1
1
1
1
1
1
1
1
1
1
1
1
1
1
1
1
1
1
1
1
1
0.999997
0.999989
0.999993
1
1
1
1
1
1
1
1
1
1
1
1
1
1
1
1
1
1
1
1
1
1
1
1
1
1
1
1
1
1
1
1
1
1
1
1
1
1
1
1
1
1
1
1
1
1
1
1
1
1
1
1
1
1
1
1
1
1
1
1
1
1
1
1
1
1
1
1
1
1
1
1
1
1
1
1
1
1
1
1
1
1
1
1
1
1
1
1
1
1
1
1
1
1
1
1
1
1
1
1
1
1
1
1
1
1
1
1
1
1
1
1
1
1
1
1
1
1
1
1
1
1
1
1
1
1
1
1
1
1
1
1
1
1
1
1
1
1
1
1
1
1
1
1
1
1
1
1
1
1
1
1
1
1
1
1
1
1
1
1
1
1
1
1
1
1
1
1
1
1
1
1
1
1
1
1
1
1
1
1
1
1
1
1
1
1
1
1
1
1
1
1
1
1
1
1
1
1
1
1
1
1
1
1
1
1
1
1
1
1
1
1
1
1
1
1
1
1
1
1
1
1
1
1
1
1
1
1
1
1
1
1
1
1
1
1
1
1
1
1
1
1
1
1
1
1
1
1
1
1
1
1
1
1
1
1
1
1
1
1
1
1
1
1
1
1
1
1
1
1
1
1
1
1
1
1
1
1
1
1
1
1
1
1
1
1
1
1
1
1
1
1
1
1
1
1
1
1
1
1
1
1
1
1
1
1
0.999765
0.998983
0.998964
0.998167
0.997813
0.997743
0.99681
0.996681
0.99677
0.996143
0.995689
0.995626
0.99564
0.994974
0.994748
0.994549
0.993869
0.994256
0.994264
0.99429
0.994291
0.993387
0.993999
0.994018
0.99416
0.994133
0.993878
0.993297
0.994184
0.994159
0.995543
0.995431
0.995561
0.994459
0.993903
0.976489
0.973689
0.902973
0.88884
0.763212
0.692903
0.510448
0.492947
0.390362
0.378378
0.317869
0.308717
0.265914
0.237016
0.232302
0.20668
0.203271
0.181313
0.178393
0.160151
0.157494
0.142092
0.139314
0.12673
0.122809
0.108553
0.0970244
0.0953468
0.0828361
0.0814938
0.0746689
0.0728037
0.0637828
0.0541587
0.0521255
0.0482584
0.0477805
0.0417047
0.0402127
0.0311196
0.0337891
0.0342071
0.0370876
0.0373436
0.0386505
0.0389126
0.0399323
0.0429183
0.043514
0.0583237
0.0808841
0.206613
0.427861
0.460622
0.943904
0.942149
0.999842
0.999981
0.999929
0.999998
0.999996
0.999957
0.997506
0.995645
0.963162
0.795717
0.767131
0.579183
0.576146
0.53618
0.551428
0.546235
0.380311
0.305422
0.297048
0.280785
0.281921
0.289332
0.31029
0.312446
0.322139
0.351308
0.355111
0.386495
0.407651
0.413681
0.424788
0.447923
0.452394
0.493983
0.508375
0.585873
0.714808
0.723646
0.777296
0.786979
0.784538
0.804327
0.866065
0.871498
0.899194
0.935998
0.94167
0.970382
0.990263
0.992377
0.999745
1
1
1
1
1
1
1
1
1
1
1
1
1
1
1
1
1
1
1
1
1
1
1
1
1
1
1
1
1
1
1
1
1
1
1
1
1
1
1
1
1
1
1
1
1
1
1
1
1
1
1
1
1
1
1
1
1
1
1
1
1
1
1
1
1
1
1
1
1
1
1
1
1
1
1
1
1
1
1
1
1
1
1
1
1
1
1
1
1
1
1
1
1
1
1
1
1
1
1
1
1
1
1
1
1
1
1
1
1
1
1
1
1
1
1
1
1
1
1
1
1
1
1
1
1
1
1
1
1
1
1
1
1
1
1
1
1
1
1
1
1
1
1
1
1
1
1
1
1
1
1
1
1
1
1
1
1
1
1
1
1
1
1
1
1
1
1
1
1
1
1
1
1
1
1
1
1
1
1
1
1
1
1
1
1
1
1
1
1
1
1
1
1
1
1
1
1
1
1
1
1
1
1
1
1
1
1
1
1
1
1
1
1
1
1
1
1
1
1
1
1
1
1
1
1
1
1
1
1
0.999999
0.999994
0.999993
0.999999
1
1
1
1
1
1
1
1
1
1
1
1
1
1
1
1
1
1
1
1
1
1
1
1
1
1
1
1
1
1
1
1
1
1
1
1
1
1
1
1
1
1
1
1
1
1
1
1
1
1
1
1
1
1
1
1
1
1
1
1
1
1
1
1
1
1
1
1
1
1
1
1
1
1
1
1
1
1
1
1
1
1
1
1
1
1
1
1
1
1
1
1
1
1
1
1
1
1
1
1
1
1
1
1
1
1
1
1
1
1
1
1
1
1
1
1
1
1
1
1
1
1
1
1
1
1
1
1
1
1
1
1
1
1
1
1
1
1
1
1
1
1
1
1
1
1
1
1
1
1
1
1
1
1
1
1
1
1
1
1
1
1
1
1
1
1
1
1
1
1
1
1
1
1
1
1
1
1
1
1
1
1
1
1
1
1
1
1
1
1
1
1
1
1
1
1
1
1
1
1
1
1
1
1
1
1
1
1
1
1
1
1
1
1
1
1
1
1
1
1
1
1
1
1
1
1
1
1
1
1
1
1
1
1
1
1
1
1
1
1
1
1
1
1
1
1
1
1
1
1
1
1
1
1
1
1
1
1
1
1
1
1
1
1
1
1
1
1
1
1
1
1
1
1
1
1
1
1
1
1
1
1
1
1
1
1
1
1
1
1
1
1
1
1
1
1
1
1
1
1
1
1
1
1
1
0.999998
0.998577
0.998576
0.998318
0.997179
0.997334
0.996738
0.996013
0.996316
0.996009
0.995308
0.995459
0.99522
0.995619
0.995313
0.994749
0.994704
0.994201
0.994777
0.994527
0.994483
0.99467
0.994948
0.995304
0.994832
0.994817
0.995071
0.994543
0.995549
0.995612
0.996752
0.996447
0.996528
0.99619
0.996241
0.987626
0.986854
0.933514
0.921761
0.778431
0.747813
0.560269
0.542502
0.425626
0.41494
0.343833
0.336598
0.289814
0.257797
0.250929
0.224903
0.219863
0.197544
0.19385
0.17475
0.17194
0.155
0.15267
0.138105
0.135516
0.121507
0.107614
0.104909
0.0940683
0.0925776
0.0843498
0.0829974
0.0742165
0.0635595
0.0607257
0.0562074
0.0552509
0.0474311
0.0456397
0.0335423
0.0339466
0.03393
0.0358906
0.0361745
0.0378042
0.0378672
0.0385394
0.0399969
0.0404205
0.0483788
0.0535799
0.0823935
0.406323
0.450833
0.926889
0.928733
0.999786
0.99998
0.999909
0.999993
0.999983
0.999848
0.995374
0.992564
0.949208
0.769684
0.741034
0.54373
0.535593
0.472563
0.429249
0.42321
0.321189
0.291398
0.287733
0.280624
0.282253
0.289813
0.305214
0.307454
0.324407
0.344426
0.347411
0.372867
0.396408
0.400174
0.423856
0.449907
0.454536
0.498901
0.510907
0.578552
0.655006
0.659309
0.70025
0.710137
0.713856
0.73787
0.819839
0.827423
0.866568
0.915124
0.921499
0.961824
0.988352
0.990514
0.999765
1
1
1
1
1
1
1
1
1
1
1
1
1
1
1
1
1
1
1
1
1
1
1
1
1
1
1
1
1
1
1
1
1
1
1
1
1
1
1
1
1
1
1
1
1
1
1
1
1
1
1
1
1
1
1
1
1
1
1
1
1
1
1
1
1
1
1
1
1
1
1
1
1
1
1
1
1
1
1
1
1
1
1
1
1
1
1
1
1
1
1
1
1
1
1
1
1
1
1
1
1
1
1
1
1
1
1
1
1
1
1
1
1
1
1
1
1
1
1
1
1
1
1
1
1
1
1
1
1
1
1
1
1
1
1
1
1
1
1
1
1
1
1
1
1
1
1
1
1
1
1
1
1
1
1
1
1
1
1
1
1
1
1
1
1
1
1
1
1
1
1
1
1
1
1
1
1
1
1
1
1
1
1
1
1
1
1
1
1
1
1
1
1
1
1
1
1
1
1
1
1
1
1
1
1
1
1
1
1
1
1
1
1
1
1
1
1
1
1
1
1
1
1
1
1
1
1
1
1
0.999997
0.999994
0.999998
0.999997
0.999998
1
1
0.999999
0.999999
1
1
1
1
1
1
1
1
1
1
1
1
1
1
1
1
1
1
1
1
1
1
1
1
1
1
1
1
1
1
1
1
1
1
1
1
1
1
1
1
1
1
1
1
1
1
1
1
1
1
1
1
1
1
1
1
1
1
1
1
1
1
1
1
1
1
1
1
1
1
1
1
1
1
1
1
1
1
1
1
1
1
1
1
1
1
1
1
1
1
1
1
1
1
1
1
1
1
1
1
1
1
1
1
1
1
1
1
1
1
1
1
1
1
1
1
1
1
1
1
1
1
1
1
1
1
1
1
1
1
1
1
1
1
1
1
1
1
1
1
1
1
1
1
1
1
1
1
1
1
1
1
1
1
1
1
1
1
1
1
1
1
1
1
1
1
1
1
1
1
1
1
1
1
1
1
1
1
1
1
1
1
1
1
1
1
1
1
1
1
1
1
1
1
1
1
1
1
1
1
1
1
1
1
1
1
1
1
1
1
1
1
1
1
1
1
1
1
1
1
1
1
1
1
1
1
1
1
1
1
1
1
1
1
1
1
1
1
1
1
1
1
1
1
1
1
1
1
1
1
1
1
1
1
1
1
1
1
1
1
1
1
1
1
1
1
1
1
1
1
1
1
1
1
1
1
1
1
1
1
1
1
1
1
1
1
1
1
1
1
1
1
1
1
1
1
1
1
1
1
1
0.999165
0.999193
0.999118
0.998316
0.998307
0.998223
0.997541
0.997605
0.997411
0.997332
0.99687
0.996871
0.997008
0.996889
0.996965
0.99687
0.99671
0.996886
0.99675
0.996872
0.997009
0.996682
0.996826
0.996571
0.99661
0.996541
0.996296
0.997185
0.99764
0.998005
0.99779
0.99783
0.997744
0.99804
0.996374
0.995216
0.96435
0.956338
0.830286
0.811545
0.620257
0.603251
0.469064
0.460271
0.375158
0.370466
0.31446
0.281733
0.270435
0.245334
0.237964
0.215568
0.210819
0.190921
0.188006
0.169374
0.167823
0.15068
0.149778
0.13312
0.121235
0.11739
0.106693
0.104891
0.0949253
0.0942412
0.083472
0.0750699
0.0711843
0.0656654
0.0641638
0.0551467
0.0533974
0.0391197
0.0354609
0.0345174
0.0348511
0.035089
0.036523
0.0363942
0.0374639
0.0377347
0.0380317
0.0440619
0.048859
0.0861667
0.379537
0.426986
0.909747
0.913632
0.998294
0.999984
0.999941
0.999978
0.999939
0.999559
0.990075
0.9851
0.922931
0.721611
0.694921
0.492768
0.479177
0.412437
0.352825
0.348539
0.301195
0.286244
0.284661
0.281311
0.283087
0.292191
0.307173
0.309394
0.325681
0.346639
0.349686
0.374304
0.397851
0.401566
0.426281
0.454954
0.45972
0.506043
0.517705
0.577683
0.634563
0.640385
0.67574
0.699594
0.705472
0.744659
0.815801
0.82341
0.870838
0.920548
0.926817
0.965552
0.990294
0.992155
0.999792
1
1
1
1
1
1
1
1
1
1
1
1
1
1
1
1
1
1
1
1
1
1
1
1
1
1
1
1
1
1
1
1
1
1
1
1
1
1
1
1
1
1
1
1
1
1
1
1
1
1
1
1
1
1
1
1
1
1
1
1
1
1
1
1
1
1
1
1
1
1
1
1
1
1
1
1
1
1
1
1
1
1
1
1
1
1
1
1
1
1
1
1
1
1
1
1
1
1
1
1
1
1
1
1
1
1
1
1
1
1
1
1
1
1
1
1
1
1
1
1
1
1
1
1
1
1
1
1
1
1
1
1
1
1
1
1
1
1
1
1
1
1
1
1
1
1
1
1
1
1
1
1
1
1
1
1
1
1
1
1
1
1
1
1
1
1
1
1
1
1
1
1
1
1
1
1
1
1
1
1
1
1
1
1
1
1
1
1
1
1
1
1
1
1
1
1
1
1
1
1
1
1
1
1
1
1
1
1
1
1
1
1
1
1
1
1
1
1
1
1
1
1
1
1
1
1
1
1
1
0.999999
0.999997
0.999999
1
1
1
1
1
1
1
1
1
1
1
1
1
1
1
1
1
1
1
1
1
1
1
1
1
1
1
1
1
1
1
1
1
1
1
1
1
1
1
1
1
1
1
1
1
1
1
1
1
1
1
1
1
1
1
1
1
1
1
1
1
1
1
1
1
1
1
1
1
1
1
1
1
1
1
1
1
1
1
1
1
1
1
1
1
1
1
1
1
1
1
1
1
1
1
1
1
1
1
1
1
1
1
1
1
1
1
1
1
1
1
1
1
1
1
1
1
1
1
1
1
1
1
1
1
1
1
1
1
1
1
1
1
1
1
1
1
1
1
1
1
1
1
1
1
1
1
1
1
1
1
1
1
1
1
1
1
1
1
1
1
1
1
1
1
1
1
1
1
1
1
1
1
1
1
1
1
1
1
1
1
1
1
1
1
1
1
1
1
1
1
1
1
1
1
1
1
1
1
1
1
1
1
1
1
1
1
1
1
1
1
1
1
1
1
1
1
1
1
1
1
1
1
1
1
1
1
1
1
1
1
1
1
1
1
1
1
1
1
1
1
1
1
1
1
1
1
1
1
1
1
1
1
1
1
1
1
1
1
1
1
1
1
1
1
1
1
1
1
1
1
1
1
1
1
1
1
1
1
1
1
1
1
1
1
1
1
1
1
1
1
1
1
1
1
1
1
1
1
1
1
1
1
1
1
1
1
0.999399
0.999374
0.999342
0.998837
0.998713
0.998743
0.998294
0.998012
0.998161
0.998206
0.997708
0.997762
0.997762
0.99782
0.9978
0.997576
0.997728
0.997718
0.997742
0.997779
0.997573
0.997651
0.997664
0.997626
0.997541
0.997403
0.997465
0.997935
0.998388
0.998605
0.998511
0.998518
0.998659
0.99896
0.997266
0.995964
0.969753
0.962143
0.846188
0.821174
0.635724
0.610773
0.481163
0.464632
0.384844
0.373046
0.318441
0.283118
0.276788
0.246848
0.242494
0.217243
0.213598
0.192985
0.189649
0.172353
0.168836
0.154519
0.150449
0.135839
0.122086
0.120069
0.107977
0.106175
0.0970233
0.0948558
0.0864344
0.0755558
0.0740122
0.0663772
0.0651947
0.0565812
0.0538804
0.0388602
0.0355421
0.0347966
0.0347538
0.0349926
0.0361568
0.0363446
0.0372083
0.0376366
0.0378529
0.0434478
0.0485845
0.0830997
0.376281
0.421599
0.908657
0.913501
0.998345
0.999982
0.999946
0.999976
0.99994
0.999506
0.98975
0.985069
0.913442
0.720629
0.687018
0.48677
0.477777
0.394195
0.350902
0.346264
0.298589
0.286261
0.28456
0.28148
0.283079
0.292709
0.307257
0.309408
0.325446
0.346661
0.349741
0.374732
0.397813
0.401662
0.426776
0.454965
0.460437
0.506886
0.517614
0.578188
0.634465
0.640287
0.675411
0.699663
0.705398
0.747573
0.81592
0.823443
0.872686
0.920849
0.926934
0.967116
0.990341
0.992183
0.999793
1
1
1
1
1
1
1
1
1
1
1
1
1
1
1
1
1
1
1
1
1
1
1
1
1
1
1
1
1
1
1
1
1
1
1
1
1
1
1
1
1
1
1
1
1
1
1
1
1
1
1
1
1
1
1
1
1
1
1
1
1
1
1
1
1
1
1
1
1
1
1
1
1
1
1
1
1
1
1
1
1
1
1
1
1
1
1
1
1
1
1
1
1
1
1
1
1
1
1
1
1
1
1
1
1
1
1
1
1
1
1
1
1
1
1
1
1
1
1
1
1
1
1
1
1
1
1
1
1
1
1
1
1
1
1
1
1
1
1
1
1
1
1
1
1
1
1
1
1
1
1
1
1
1
1
1
1
1
1
1
1
1
1
1
1
1
1
1
1
1
1
1
1
1
1
1
1
1
1
1
1
1
1
1
1
1
1
1
1
1
1
1
1
1
1
1
1
1
1
1
1
1
1
1
1
1
1
1
1
1
1
1
1
1
1
1
1
1
1
1
1
1
1
1
1
1
1
1
1
1
0.999998
0.999997
0.999999
1
1
1
1
1
1
1
1
1
1
1
1
1
1
1
1
1
1
1
1
1
1
1
1
1
1
1
1
1
1
1
1
1
1
1
1
1
1
1
1
1
1
1
1
1
1
1
1
1
1
1
1
1
1
1
1
1
1
1
1
1
1
1
1
1
1
1
1
1
1
1
1
1
1
1
1
1
1
1
1
1
1
1
1
1
1
1
1
1
1
1
1
1
1
1
1
1
1
1
1
1
1
1
1
1
1
1
1
1
1
1
1
1
1
1
1
1
1
1
1
1
1
1
1
1
1
1
1
1
1
1
1
1
1
1
1
1
1
1
1
1
1
1
1
1
1
1
1
1
1
1
1
1
1
1
1
1
1
1
1
1
1
1
1
1
1
1
1
1
1
1
1
1
1
1
1
1
1
1
1
1
1
1
1
1
1
1
1
1
1
1
1
1
1
1
1
1
1
1
1
1
1
1
1
1
1
1
1
1
1
1
1
1
1
1
1
1
1
1
1
1
1
1
1
1
1
1
1
1
1
1
1
1
1
1
1
1
1
1
1
1
1
1
1
1
1
1
1
1
1
1
1
1
1
1
1
1
1
1
1
1
1
1
1
1
1
1
1
1
1
1
1
1
1
1
1
1
1
1
1
1
1
1
1
1
1
1
1
1
1
1
1
1
1
1
1
1
1
1
1
1
1
1
1
1
1
0.999427
0.999408
0.999375
0.999076
0.998808
0.998783
0.998729
0.998156
0.998287
0.998344
0.99824
0.997933
0.997962
0.997949
0.997966
0.997864
0.997895
0.997922
0.997889
0.997944
0.997814
0.997831
0.997877
0.997794
0.997752
0.997968
0.998032
0.998279
0.998541
0.998766
0.99866
0.998894
0.998996
0.999069
0.998697
0.998442
0.983748
0.979149
0.887513
0.866188
0.691798
0.670346
0.527538
0.513653
0.419445
0.410327
0.349941
0.309189
0.300261
0.268875
0.261773
0.236351
0.23141
0.209945
0.206527
0.18743
0.184946
0.16819
0.165755
0.151241
0.137161
0.133872
0.122138
0.120068
0.109214
0.107871
0.097913
0.0882643
0.0853061
0.0775812
0.0758952
0.0664376
0.0644419
0.050641
0.0414159
0.038864
0.0352487
0.0350419
0.0350363
0.0353531
0.0362507
0.0361236
0.0362142
0.0399111
0.0433336
0.0623337
0.339396
0.384567
0.876465
0.883186
0.998133
0.999978
0.999947
0.999939
0.999836
0.998878
0.980879
0.973118
0.875311
0.655466
0.622298
0.431792
0.420588
0.349035
0.315516
0.313018
0.291747
0.285154
0.284238
0.283722
0.285716
0.29578
0.310384
0.312573
0.329185
0.350102
0.353052
0.37745
0.401607
0.405347
0.432373
0.463788
0.469204
0.516702
0.52706
0.582488
0.635952
0.641589
0.676882
0.708827
0.715593
0.762866
0.82928
0.837074
0.886083
0.934261
0.939972
0.974965
0.99372
0.994922
0.99987
1
1
1
1
1
1
1
1
1
1
1
1
1
1
1
1
1
1
1
1
1
1
1
1
1
1
1
1
1
1
1
1
1
1
1
1
1
1
1
1
1
1
1
1
1
1
1
1
1
1
1
1
1
1
1
1
1
1
1
1
1
1
1
1
1
1
1
1
1
1
1
1
1
1
1
1
1
1
1
1
1
1
1
1
1
1
1
1
1
1
1
1
1
1
1
1
1
1
1
1
1
1
1
1
1
1
1
1
1
1
1
1
1
1
1
1
1
1
1
1
1
1
1
1
1
1
1
1
1
1
1
1
1
1
1
1
1
1
1
1
1
1
1
1
1
1
1
1
1
1
1
1
1
1
1
1
1
1
1
1
1
1
1
1
1
1
1
1
1
1
1
1
1
1
1
1
1
1
1
1
1
1
1
1
1
1
1
1
1
1
1
1
1
1
1
1
1
1
1
1
1
1
1
1
1
1
1
1
1
1
1
1
1
1
1
1
1
1
1
1
1
1
1
1
1
1
1
1
1
1
0.999999
0.999999
0.999999
1
1
1
1
1
1
1
1
1
1
1
1
1
1
1
1
1
1
1
1
1
1
1
1
1
1
1
1
1
1
1
1
1
1
1
1
1
1
1
1
1
1
1
1
1
1
1
1
1
1
1
1
1
1
1
1
1
1
1
1
1
1
1
1
1
1
1
1
1
1
1
1
1
1
1
1
1
1
1
1
1
1
1
1
1
1
1
1
1
1
1
1
1
1
1
1
1
1
1
1
1
1
1
1
1
1
1
1
1
1
1
1
1
1
1
1
1
1
1
1
1
1
1
1
1
1
1
1
1
1
1
1
1
1
1
1
1
1
1
1
1
1
1
1
1
1
1
1
1
1
1
1
1
1
1
1
1
1
1
1
1
1
1
1
1
1
1
1
1
1
1
1
1
1
1
1
1
1
1
1
1
1
1
1
1
1
1
1
1
1
1
1
1
1
1
1
1
1
1
1
1
1
1
1
1
1
1
1
1
1
1
1
1
1
1
1
1
1
1
1
1
1
1
1
1
1
1
1
1
1
1
1
1
1
1
1
1
1
1
1
1
1
1
1
1
1
1
1
1
1
1
1
1
1
1
1
1
1
1
1
1
1
1
1
1
1
1
1
1
1
1
1
1
1
1
1
1
1
1
1
1
1
1
1
1
1
1
1
1
1
1
1
1
1
1
1
1
1
1
1
1
1
1
1
1
1
0.999501
0.999461
0.99946
0.999437
0.998945
0.998948
0.998885
0.998531
0.998498
0.99848
0.998513
0.998146
0.998185
0.998193
0.998127
0.998076
0.998107
0.998131
0.998136
0.998121
0.998065
0.998074
0.998133
0.998258
0.998202
0.998481
0.998348
0.99864
0.99878
0.999117
0.999119
0.999204
0.999179
0.999224
0.998967
0.998798
0.987091
0.981953
0.930337
0.912085
0.712332
0.680647
0.543544
0.520257
0.432271
0.414404
0.358817
0.311204
0.306326
0.270811
0.26703
0.238497
0.234863
0.212537
0.208711
0.190961
0.186374
0.172564
0.166766
0.154325
0.138272
0.136976
0.123791
0.121795
0.111908
0.108798
0.1011
0.0888984
0.0883892
0.0785611
0.077311
0.0683257
0.0651499
0.0542725
0.0417782
0.0403632
0.0354231
0.0351792
0.0348563
0.0353025
0.0359605
0.0360652
0.0361004
0.03945
0.0431093
0.0705911
0.33551
0.376765
0.866177
0.880925
0.997692
0.999943
0.999927
0.999931
0.999838
0.998729
0.980184
0.972822
0.861387
0.654116
0.612864
0.426722
0.419206
0.341446
0.314699
0.311966
0.291284
0.285192
0.284344
0.284141
0.285745
0.296712
0.310603
0.312669
0.33047
0.350211
0.353249
0.378543
0.401656
0.40574
0.433627
0.463877
0.470477
0.517759
0.527003
0.583325
0.63602
0.641506
0.677825
0.709655
0.715783
0.768425
0.830029
0.83737
0.891777
0.934978
0.940315
0.9776
0.993814
0.994975
0.999863
1
1
1
1
1
1
1
1
1
1
1
1
1
1
1
1
1
1
1
1
1
1
1
1
1
1
1
1
1
1
1
1
1
1
1
1
1
1
1
1
1
1
1
1
1
1
1
1
1
1
1
1
1
1
1
1
1
1
1
1
1
1
1
1
1
1
1
1
1
1
1
1
1
1
1
1
1
1
1
1
1
1
1
1
1
1
1
1
1
1
1
1
1
1
1
1
1
1
1
1
1
1
1
1
1
1
1
1
1
1
1
1
1
1
1
1
1
1
1
1
1
1
1
1
1
1
1
1
1
1
1
1
1
1
1
1
1
1
1
1
1
1
1
1
1
1
1
1
1
1
1
1
1
1
1
1
1
1
1
1
1
1
1
1
1
1
1
1
1
1
1
1
1
1
1
1
1
1
1
1
1
1
1
1
1
1
1
1
1
1
1
1
1
1
1
1
1
1
1
1
1
1
1
1
1
1
1
1
1
1
1
1
1
1
1
1
1
1
1
1
1
1
1
1
1
1
1
1
1
1
0.999999
1
0.999999
1
1
1
1
1
1
1
1
1
1
1
1
1
1
1
1
1
1
1
1
1
1
1
1
1
1
1
1
1
1
1
1
1
1
1
1
1
1
1
1
1
1
1
1
1
1
1
1
1
1
1
1
1
1
1
1
1
1
1
1
1
1
1
1
1
1
1
1
1
1
1
1
1
1
1
1
1
1
1
1
1
1
1
1
1
1
1
1
1
1
1
1
1
1
1
1
1
1
1
1
1
1
1
1
1
1
1
1
1
1
1
1
1
1
1
1
1
1
1
1
1
1
1
1
1
1
1
1
1
1
1
1
1
1
1
1
1
1
1
1
1
1
1
1
1
1
1
1
1
1
1
1
1
1
1
1
1
1
1
1
1
1
1
1
1
1
1
1
1
1
1
1
1
1
1
1
1
1
1
1
1
1
1
1
1
1
1
1
1
1
1
1
1
1
1
1
1
1
1
1
1
1
1
1
1
1
1
1
1
1
1
1
1
1
1
1
1
1
1
1
1
1
1
1
1
1
1
1
1
1
1
1
1
1
1
1
1
1
1
1
1
1
1
1
1
1
1
1
1
1
1
1
1
1
1
1
1
1
1
1
1
1
1
1
1
1
1
1
1
1
1
1
1
1
1
1
1
1
1
1
1
1
1
1
1
1
1
1
1
1
1
1
1
1
1
1
1
1
1
1
1
1
1
1
1
1
0.999214
0.999224
0.999273
0.999151
0.998629
0.998501
0.998419
0.99832
0.997854
0.997955
0.99816
0.997812
0.997809
0.997556
0.997494
0.997795
0.997431
0.997703
0.997565
0.997497
0.997778
0.997597
0.997945
0.997938
0.997912
0.998328
0.998081
0.998577
0.99851
0.999089
0.999005
0.999022
0.99896
0.99901
0.998924
0.99909
0.994608
0.991077
0.939363
0.921724
0.763609
0.737961
0.592434
0.573996
0.469077
0.456602
0.386482
0.340103
0.329517
0.294612
0.287746
0.258858
0.253844
0.230334
0.226539
0.206556
0.203369
0.186318
0.183034
0.167953
0.154072
0.151268
0.138839
0.136656
0.125267
0.123342
0.112661
0.102877
0.100414
0.0912691
0.0894516
0.0797347
0.0776885
0.06591
0.0528066
0.04953
0.0409084
0.0398288
0.0355635
0.0357394
0.0354702
0.0352455
0.0352858
0.0374085
0.0401755
0.0552328
0.283149
0.322147
0.816166
0.837963
0.999783
0.999852
0.999863
0.999858
0.999635
0.997542
0.967291
0.955959
0.820053
0.594817
0.557246
0.389608
0.380792
0.320004
0.301855
0.300327
0.289814
0.286284
0.285624
0.288075
0.290002
0.300824
0.315338
0.317493
0.334397
0.355898
0.358843
0.383716
0.409202
0.413122
0.443167
0.47644
0.482406
0.530104
0.539109
0.591471
0.644746
0.650329
0.689904
0.733261
0.740515
0.793979
0.855104
0.862625
0.91291
0.95313
0.957533
0.985848
0.996968
0.99757
0.999962
1
1
1
1
1
1
1
1
1
1
1
1
1
1
1
1
1
1
1
1
1
1
1
1
1
1
1
1
1
1
1
1
1
1
1
1
1
1
1
1
1
1
1
1
1
1
1
1
1
1
1
1
1
1
1
1
1
1
1
1
1
1
1
1
1
1
1
1
1
1
1
1
1
1
1
1
1
1
1
1
1
1
1
1
1
1
1
1
1
1
1
1
1
1
1
1
1
1
1
1
1
1
1
1
1
1
1
1
1
1
1
1
1
1
1
1
1
1
1
1
1
1
1
1
1
1
1
1
1
1
1
1
1
1
1
1
1
1
1
1
1
1
1
1
1
1
1
1
1
1
1
1
1
1
1
1
1
1
1
1
1
1
1
1
1
1
1
1
1
1
1
1
1
1
1
1
1
1
1
1
1
1
1
1
1
1
1
1
1
1
1
1
1
1
1
1
1
1
1
1
1
1
1
1
1
1
1
1
1
1
1
1
1
1
1
1
1
1
1
1
1
1
1
1
1
1
1
1
1
0.999999
0.999999
1
0.999997
0.999997
1
1
0.999998
0.999999
1
1
1
1
1
1
1
1
1
1
1
1
1
1
1
1
1
1
1
1
1
1
1
1
1
1
1
1
1
1
1
1
1
1
1
1
1
1
1
1
1
1
1
1
1
1
1
1
1
1
1
1
1
1
1
1
1
1
1
1
1
1
1
1
1
1
1
1
1
1
1
1
1
1
1
1
1
1
1
1
1
1
1
1
1
1
1
1
1
1
1
1
1
1
1
1
1
1
1
1
1
1
1
1
1
1
1
1
1
1
1
1
1
1
1
1
1
1
1
1
1
1
1
1
1
1
1
1
1
1
1
1
1
1
1
1
1
1
1
1
1
1
1
1
1
1
1
1
1
1
1
1
1
1
1
1
1
1
1
1
1
1
1
1
1
1
1
1
1
1
1
1
1
1
1
1
1
1
1
1
1
1
1
1
1
1
1
1
1
1
1
1
1
1
1
1
1
1
1
1
1
1
1
1
1
1
1
1
1
1
1
1
1
1
1
1
1
1
1
1
1
1
1
1
1
1
1
1
1
1
1
1
1
1
1
1
1
1
1
1
1
1
1
1
1
1
1
1
1
1
1
1
1
1
1
1
1
1
1
1
1
1
1
1
1
1
1
1
1
1
1
1
1
1
1
1
1
1
1
1
1
1
1
1
1
1
1
1
1
1
1
1
1
1
1
1
1
1
1
1
1
0.999527
0.999557
0.999529
0.999496
0.999135
0.999024
0.999048
0.999091
0.998574
0.998693
0.998698
0.998627
0.998567
0.998317
0.998382
0.998444
0.998251
0.998421
0.998491
0.998576
0.998646
0.998573
0.998706
0.9986
0.998627
0.998801
0.998648
0.999038
0.99924
0.999415
0.999353
0.999361
0.999316
0.999365
0.999484
0.999637
0.997469
0.995289
0.960226
0.948458
0.824646
0.805572
0.656366
0.643189
0.519204
0.512003
0.424581
0.375835
0.357797
0.322812
0.311412
0.2821
0.275136
0.250169
0.246315
0.223774
0.222085
0.20146
0.200963
0.181879
0.170865
0.166193
0.154719
0.152396
0.139717
0.13925
0.125613
0.118322
0.11333
0.105479
0.10304
0.0924491
0.0917598
0.0780881
0.0678685
0.0625721
0.0519056
0.0499021
0.0404535
0.0411304
0.0367044
0.0358906
0.0357453
0.0364549
0.0381733
0.0572597
0.245198
0.283637
0.757513
0.784702
0.990695
0.999895
0.999892
0.999745
0.999313
0.995682
0.953301
0.937867
0.781551
0.55184
0.518067
0.370835
0.362373
0.313638
0.29861
0.297224
0.290201
0.288515
0.287876
0.293159
0.295599
0.30568
0.321608
0.324067
0.3405
0.364605
0.367485
0.392182
0.422103
0.425354
0.457431
0.495569
0.499722
0.549228
0.559873
0.608656
0.666629
0.67519
0.714788
0.770776
0.780097
0.825784
0.886396
0.893868
0.933357
0.968918
0.972406
0.991427
0.99885
0.99913
0.999992
1
1
1
1
1
1
1
1
1
1
1
1
1
1
1
1
1
1
1
1
1
1
1
1
1
1
1
1
1
1
1
1
1
1
1
1
1
1
1
1
1
1
1
1
1
1
1
1
1
1
1
1
1
1
1
1
1
1
1
1
1
1
1
1
1
1
1
1
1
1
1
1
1
1
1
1
1
1
1
1
1
1
1
1
1
1
1
1
1
1
1
1
1
1
1
1
1
1
1
1
1
1
1
1
1
1
1
1
1
1
1
1
1
1
1
1
1
1
1
1
1
1
1
1
1
1
1
1
1
1
1
1
1
1
1
1
1
1
1
1
1
1
1
1
1
1
1
1
1
1
1
1
1
1
1
1
1
1
1
1
1
1
1
1
1
1
1
1
1
1
1
1
1
1
1
1
1
1
1
1
1
1
1
1
1
1
1
1
1
1
1
1
1
1
1
1
1
1
1
1
1
1
1
1
1
1
1
1
1
1
1
1
1
1
1
1
1
1
1
1
1
1
1
1
1
1
1
1
1
1
1
1
0.999999
0.999999
1
1
1
1
1
1
1
1
1
1
1
1
1
1
1
1
1
1
1
1
1
1
1
1
1
1
1
1
1
1
1
1
1
1
1
1
1
1
1
1
1
1
1
1
1
1
1
1
1
1
1
1
1
1
1
1
1
1
1
1
1
1
1
1
1
1
1
1
1
1
1
1
1
1
1
1
1
1
1
1
1
1
1
1
1
1
1
1
1
1
1
1
1
1
1
1
1
1
1
1
1
1
1
1
1
1
1
1
1
1
1
1
1
1
1
1
1
1
1
1
1
1
1
1
1
1
1
1
1
1
1
1
1
1
1
1
1
1
1
1
1
1
1
1
1
1
1
1
1
1
1
1
1
1
1
1
1
1
1
1
1
1
1
1
1
1
1
1
1
1
1
1
1
1
1
1
1
1
1
1
1
1
1
1
1
1
1
1
1
1
1
1
1
1
1
1
1
1
1
1
1
1
1
1
1
1
1
1
1
1
1
1
1
1
1
1
1
1
1
1
1
1
1
1
1
1
1
1
1
1
1
1
1
1
1
1
1
1
1
1
1
1
1
1
1
1
1
1
1
1
1
1
1
1
1
1
1
1
1
1
1
1
1
1
1
1
1
1
1
1
1
1
1
1
1
1
1
1
1
1
1
1
1
1
1
1
1
1
1
1
1
1
1
1
1
1
1
1
1
1
1
1
1
1
1
0.999649
0.999636
0.999624
0.999609
0.999461
0.999259
0.999249
0.999247
0.998965
0.99897
0.998968
0.998971
0.999007
0.99898
0.998979
0.998958
0.998959
0.998981
0.99897
0.998989
0.998946
0.998966
0.99899
0.998961
0.998932
0.999035
0.99895
0.999302
0.99946
0.999559
0.999532
0.999527
0.999498
0.999688
0.999732
0.999746
0.997664
0.995543
0.965633
0.953523
0.842762
0.816965
0.674965
0.652738
0.533554
0.518012
0.432756
0.379478
0.365158
0.326043
0.317875
0.285304
0.279482
0.253516
0.249104
0.227615
0.223886
0.205807
0.202168
0.186208
0.172395
0.169599
0.156848
0.154487
0.142782
0.140493
0.129293
0.119344
0.116962
0.107034
0.105019
0.0949502
0.0927869
0.0818883
0.0689741
0.0661228
0.0536129
0.0513284
0.0420408
0.0415543
0.0371229
0.035993
0.0358675
0.0364278
0.0381136
0.0474223
0.24085
0.276439
0.746978
0.781602
0.999819
0.999861
0.999862
0.999733
0.999253
0.9955
0.952324
0.937614
0.771224
0.551734
0.513435
0.369756
0.362067
0.312319
0.298595
0.297181
0.29037
0.288633
0.288204
0.294075
0.295774
0.306946
0.322192
0.324362
0.341773
0.365109
0.368144
0.394715
0.422582
0.426801
0.460519
0.496017
0.502558
0.552396
0.5604
0.612872
0.669643
0.676046
0.722475
0.774222
0.781383
0.835368
0.888494
0.894808
0.939252
0.969671
0.972783
0.992673
0.998896
0.99915
0.999992
1
1
1
1
1
1
1
1
1
1
1
1
1
1
1
1
1
1
1
1
1
1
1
1
1
1
1
1
1
1
1
1
1
1
1
1
1
1
1
1
1
1
1
1
1
1
1
1
1
1
1
1
1
1
1
1
1
1
1
1
1
1
1
1
1
1
1
1
1
1
1
1
1
1
1
1
1
1
1
1
1
1
1
1
1
1
1
1
1
1
1
1
1
1
1
1
1
1
1
1
1
1
1
1
1
1
1
1
1
1
1
1
1
1
1
1
1
1
1
1
1
1
1
1
1
1
1
1
1
1
1
1
1
1
1
1
1
1
1
1
1
1
1
1
1
1
1
1
1
1
1
1
1
1
1
1
1
1
1
1
1
1
1
1
1
1
1
1
1
1
1
1
1
1
1
1
1
1
1
1
1
1
1
1
1
1
1
1
1
1
1
1
1
1
1
1
1
1
1
1
1
1
1
1
1
1
1
1
1
1
1
1
1
1
1
1
1
1
1
1
1
1
1
1
1
1
1
1
1
1
1
1
0.999999
0.999999
1
1
1
1
1
1
1
1
1
1
1
1
1
1
1
1
1
1
1
1
1
1
1
1
1
1
1
1
1
1
1
1
1
1
1
1
1
1
1
1
1
1
1
1
1
1
1
1
1
1
1
1
1
1
1
1
1
1
1
1
1
1
1
1
1
1
1
1
1
1
1
1
1
1
1
1
1
1
1
1
1
1
1
1
1
1
1
1
1
1
1
1
1
1
1
1
1
1
1
1
1
1
1
1
1
1
1
1
1
1
1
1
1
1
1
1
1
1
1
1
1
1
1
1
1
1
1
1
1
1
1
1
1
1
1
1
1
1
1
1
1
1
1
1
1
1
1
1
1
1
1
1
1
1
1
1
1
1
1
1
1
1
1
1
1
1
1
1
1
1
1
1
1
1
1
1
1
1
1
1
1
1
1
1
1
1
1
1
1
1
1
1
1
1
1
1
1
1
1
1
1
1
1
1
1
1
1
1
1
1
1
1
1
1
1
1
1
1
1
1
1
1
1
1
1
1
1
1
1
1
1
1
1
1
1
1
1
1
1
1
1
1
1
1
1
1
1
1
1
1
1
1
1
1
1
1
1
1
1
1
1
1
1
1
1
1
1
1
1
1
1
1
1
1
1
1
1
1
1
1
1
1
1
1
1
1
1
1
1
1
1
1
1
1
1
1
1
1
1
1
1
1
1
1
1
0.999643
0.99966
0.999632
0.999613
0.999638
0.999273
0.999283
0.999298
0.999248
0.99905
0.999017
0.999004
0.999082
0.999014
0.99906
0.999047
0.998994
0.999063
0.999008
0.999057
0.999028
0.998995
0.999062
0.998996