/*--------------------------------*- C++ -*----------------------------------*\
| =========                 |                                                 |
| \\      /  F ield         | OpenFOAM: The Open Source CFD Toolbox           |
|  \\    /   O peration     | Version:  v2012                                 |
|   \\  /    A nd           | Website:  www.openfoam.com                      |
|    \\/     M anipulation  |                                                 |
\*---------------------------------------------------------------------------*/
FoamFile
{
    version     2.0;
    format      ascii;
    class       volScalarField;
    location    "1e-06";
    object      alpha.waterPrime2Mean;
}
// * * * * * * * * * * * * * * * * * * * * * * * * * * * * * * * * * * * * * //

dimensions      [0 0 0 0 0 0 0];


internalField   nonuniform List<scalar> 
102000
(
0
-1.11022e-16
4.44089e-16
4.44089e-16
0
4.44089e-16
-4.44089e-16
-1.11022e-16
0
-4.44089e-16
2.22045e-16
2.22045e-16
0
2.22045e-16
0
-1.11022e-16
-2.22045e-16
2.22045e-16
2.22045e-16
0
4.44089e-16
2.22045e-16
2.22045e-16
2.22045e-16
2.22045e-16
0
0
-2.22045e-16
4.44089e-16
-2.22045e-16
-2.22045e-16
0
0
0
0
2.22045e-16
1.11022e-16
-4.44089e-16
4.44089e-16
0
0
0
0
0
0
4.44089e-16
0
2.22045e-16
-4.44089e-16
-1.11022e-16
0
0
2.22045e-16
0
0
-1.11022e-16
0
3.33067e-16
0
2.22045e-16
2.22045e-16
4.44089e-16
4.44089e-16
4.44089e-16
1.11022e-16
0
2.22045e-16
0
2.22045e-16
2.22045e-16
0
0
-2.22045e-16
2.22045e-16
2.22045e-16
0
1.11022e-16
2.22045e-16
1.11022e-16
2.22045e-16
2.22045e-16
2.22045e-16
2.22045e-16
-2.22045e-16
-2.22045e-16
2.22045e-16
0
0
2.22045e-16
0
0
-2.22045e-16
0
2.22045e-16
0
0
2.22045e-16
1.11022e-16
4.44089e-16
0
0
0
2.22045e-16
2.22045e-16
-3.33067e-16
0
0
0
2.22045e-16
-2.22045e-16
-3.33067e-16
0
0
0
4.44089e-16
2.22045e-16
1.11022e-16
0
1.11022e-16
2.22045e-16
0
0
-1.11022e-16
-2.22045e-16
1.11022e-16
0
0
4.44089e-16
0
-1.11022e-16
1.11022e-16
1.11022e-16
0
1.11022e-16
-1.11022e-16
0
0
0
-2.22045e-16
1.11022e-16
-1.11022e-16
-2.22045e-16
0
2.22045e-16
0
2.22045e-16
1.11022e-16
-4.44089e-16
0
0
0
2.22045e-16
0
2.22045e-16
2.22045e-16
-1.11022e-16
-2.22045e-16
-2.22045e-16
2.22045e-16
-1.11022e-16
0
0
-2.22045e-16
0
2.22045e-16
0
-4.44089e-16
0
0
0
0
2.82299e-08
4.52938e-07
7.58415e-07
4.28777e-07
1.76243e-05
2.33369e-05
2.44205e-05
0.000107392
0.000107412
0.000229552
0.000554893
0.000795615
0.000864555
0.000814633
0.000873001
0.000906958
0.000905984
0.000928377
0.000911169
0.000979934
0.001002
0.000989587
0.00100207
0.000948354
0.00103387
0.00107259
0.00104507
0.00108688
0.00123269
0.00137965
0.00168682
0.00139249
0.00135571
0.00123741
0.00127809
0.00119902
0.00121511
0.00096141
0.000969734
0.00053279
0.00050523
7.57193e-05
7.04613e-05
1.23719e-06
3.76614e-06
8.23479e-08
7.45108e-07
4.21698e-08
2.42151e-07
5.52191e-10
3.93822e-08
3.76741e-08
1.59223e-08
2.24899e-08
3.18692e-09
1.23537e-08
1.65233e-09
7.08654e-09
1.03133e-09
3.63915e-09
5.17597e-10
2.21408e-09
8.95079e-11
5.82334e-08
1.96042e-08
3.32758e-07
2.8106e-07
1.71553e-09
1.01056e-08
3.84608e-10
1.0229e-08
1.06362e-09
1.46682e-07
1.58393e-07
2.71152e-09
5.60039e-09
9.53102e-12
2.81911e-11
1.87876e-11
4.68553e-11
3.48039e-11
4.78885e-11
3.95847e-11
1.61091e-11
5.8648e-11
4.00672e-11
1.25763e-10
3.07557e-10
2.1242e-09
1.9206e-07
3.34429e-07
2.16659e-08
5.23842e-11
3.88198e-09
8.28226e-14
3.92327e-09
0
2.44249e-15
0
2.34823e-12
1.95444e-12
3.99955e-09
2.62926e-10
6.74187e-09
2.01829e-08
3.35135e-09
3.61145e-08
4.79951e-09
7.09296e-09
1.79313e-08
5.12706e-08
3.31088e-08
3.54307e-08
4.345e-08
4.68386e-08
2.02679e-08
2.52061e-08
1.25372e-09
3.36404e-08
8.01439e-09
6.17453e-09
5.0872e-09
9.20007e-10
7.27472e-09
1.47473e-08
6.52814e-09
3.32285e-08
1.37063e-08
1.83596e-09
1.40715e-08
9.19737e-10
2.95954e-10
4.54074e-10
3.04621e-09
3.12814e-08
2.30788e-09
1.50284e-08
4.73999e-12
2.58069e-09
2.5224e-09
2.56462e-14
9.65672e-13
-4.44089e-16
0
0
-1.11022e-16
0
2.22045e-16
0
4.44089e-16
-2.22045e-16
-1.11022e-16
-2.22045e-16
0
-2.22045e-16
-2.22045e-16
-1.11022e-16
0
0
2.22045e-16
1.11022e-16
1.11022e-16
0
-2.22045e-16
0
2.22045e-16
-1.11022e-16
2.22045e-16
-2.22045e-16
-2.22045e-16
0
-1.11022e-16
0
0
-1.11022e-16
2.22045e-16
2.22045e-16
-1.11022e-16
0
2.22045e-16
2.22045e-16
2.22045e-16
2.22045e-16
-2.22045e-16
0
0
-2.22045e-16
-2.22045e-16
0
0
2.22045e-16
4.44089e-16
-4.44089e-16
-4.44089e-16
0
-2.22045e-16
2.22045e-16
1.11022e-16
1.11022e-16
0
-4.44089e-16
3.33067e-16
1.11022e-16
2.22045e-16
0
0
-2.22045e-16
2.22045e-16
2.22045e-16
0
0
0
-1.11022e-16
0
-2.22045e-16
-2.22045e-16
2.22045e-16
0
2.22045e-16
-2.22045e-16
0
-1.11022e-16
0
-4.44089e-16
2.22045e-16
-4.44089e-16
0
2.22045e-16
2.22045e-16
2.22045e-16
1.11022e-16
-2.22045e-16
2.22045e-16
0
0
-1.11022e-16
2.22045e-16
0
-2.22045e-16
0
4.44089e-16
0
0
0
0
-2.22045e-16
-1.11022e-16
0
-2.22045e-16
-4.44089e-16
0
0
1.11022e-16
3.33067e-16
1.11022e-16
0
0
2.22045e-16
-2.22045e-16
2.22045e-16
3.33067e-16
0
3.33067e-16
0
0
0
2.22045e-16
2.22045e-16
0
2.22045e-16
-1.11022e-16
-1.11022e-16
0
-2.22045e-16
0
0
-3.33067e-16
2.22045e-16
0
2.22045e-16
0
0
2.22045e-16
0
0
-2.22045e-16
2.22045e-16
-1.11022e-16
0
1.11022e-16
-1.11022e-16
0
0
2.22045e-16
0
0
2.22045e-16
-3.33067e-16
2.22045e-16
-2.22045e-16
2.22045e-16
0
0
1.11022e-16
0
0
-3.33067e-16
0
0
2.22045e-16
2.22045e-16
-4.44089e-16
-1.11022e-16
2.22045e-16
-1.11022e-16
1.11022e-16
1.11022e-16
0
0
2.22045e-16
0
4.44089e-16
-4.44089e-16
0
0
-2.22045e-16
2.22045e-16
4.44089e-16
0
-1.11022e-16
0
-1.11022e-16
-2.22045e-16
2.22045e-16
4.44089e-16
0
2.22045e-16
3.33067e-16
0
0
2.22045e-16
-2.22045e-16
-2.22045e-16
2.22045e-16
-2.22045e-16
-2.22045e-16
2.22045e-16
2.22045e-16
0
0
0
1.11022e-16
0
0
-4.44089e-16
2.22045e-16
2.22045e-16
0
0
0
-1.11022e-16
4.44089e-16
-1.11022e-16
0
0
0
0
-1.11022e-16
0
0
-2.22045e-16
-2.22045e-16
-4.44089e-16
2.03038e-12
1.05754e-11
1.66585e-10
1.37798e-11
1.68399e-12
1.11022e-16
3.33067e-16
7.9714e-14
4.44089e-16
1.11022e-16
-3.33067e-16
-1.11022e-16
0
2.22045e-16
-2.22045e-16
-3.33067e-16
-2.22045e-16
2.22045e-16
0
-1.11022e-16
-2.22045e-16
0
2.22045e-16
-1.11022e-16
0
0
0
1.11022e-16
2.22045e-16
0
3.33067e-16
0
2.22045e-16
2.22045e-16
2.22045e-16
0
-1.11022e-16
-4.44089e-16
0
-2.22045e-16
0
3.33067e-16
2.22045e-16
-2.22045e-16
-1.11022e-16
0
1.11022e-16
0
-2.22045e-16
2.22045e-16
0
0
-1.11022e-16
4.44089e-16
0
-1.11022e-16
3.33067e-16
1.11022e-16
0
0
-1.11022e-16
0
0
3.33067e-16
-4.44089e-16
1.11022e-16
-1.11022e-16
-2.22045e-16
2.22045e-16
0
4.44089e-16
-2.22045e-16
1.11022e-16
-2.22045e-16
2.22045e-16
-1.11022e-16
0
0
0
2.22045e-16
4.44089e-16
0
2.22045e-16
0
-2.22045e-16
4.44089e-16
-3.33067e-16
0
0
-2.22045e-16
-2.22045e-16
0
-4.44089e-16
1.11022e-16
0
1.11022e-16
0
2.22045e-16
3.33067e-16
0
2.22045e-16
2.22045e-16
0
2.22045e-16
0
0
0
-2.22045e-16
2.22045e-16
-2.22045e-16
1.11022e-16
4.44089e-16
2.22045e-16
2.22045e-16
-3.33067e-16
-1.11022e-16
0
0
4.44089e-16
1.11022e-16
-2.22045e-16
2.22045e-16
-4.44089e-16
-4.44089e-16
2.22045e-16
-2.22045e-16
-2.22045e-16
-2.22045e-16
0
2.22045e-16
0
2.22045e-16
0
0
-2.22045e-16
3.33067e-16
-1.11022e-16
0
-2.22045e-16
0
1.11022e-16
-2.22045e-16
-2.22045e-16
0
-1.11022e-16
4.44089e-16
0
-2.22045e-16
2.22045e-16
0
-4.44089e-16
0
2.22045e-16
1.11022e-16
-2.22045e-16
-2.22045e-16
1.11022e-16
0
-1.11022e-16
0
3.33067e-16
-2.22045e-16
2.22045e-16
2.22045e-16
1.11022e-16
-1.11022e-16
4.44089e-16
-2.22045e-16
-4.44089e-16
-2.22045e-16
2.22045e-16
0
0
2.22045e-16
0
0
-2.22045e-16
0
0
0
0
0
0
0
4.44089e-16
2.22045e-16
0
0
0
-1.11022e-16
-1.11022e-16
-4.44089e-16
0
1.11022e-16
3.33067e-16
-4.44089e-16
1.11022e-16
0
0
-1.11022e-16
-4.44089e-16
-4.44089e-16
2.22045e-16
0
4.44089e-16
1.11022e-16
0
-4.44089e-16
2.22045e-16
-1.11022e-16
4.44089e-16
0
0
2.22045e-16
0
0
4.44089e-16
0
-2.22045e-16
0
-2.22045e-16
-2.22045e-16
-4.44089e-16
0
-2.22045e-16
-2.22045e-16
-1.11022e-16
0
-2.22045e-16
0
2.22045e-16
0
4.44089e-16
0
-1.11022e-16
0
1.11022e-16
-1.11022e-16
2.22045e-16
2.22045e-16
-1.11022e-16
-2.22045e-16
-1.11022e-16
0
0
0
0
0
-2.22045e-16
-4.44089e-16
2.22045e-16
-2.22045e-16
-2.22045e-16
0
0
2.22045e-16
0
0
0
-1.11022e-16
0
0
0
0
-2.22045e-16
4.44089e-16
0
0
0
0
2.22045e-16
-4.44089e-16
-2.22045e-16
0
0
1.11022e-16
-3.33067e-16
0
2.22045e-16
0
-2.22045e-16
0
-2.22045e-16
0
-2.22045e-16
-1.11022e-16
0
0
-2.22045e-16
2.22045e-16
4.44089e-16
2.22045e-16
2.22045e-16
-2.22045e-16
3.33067e-16
2.22045e-16
1.11022e-16
0
0
4.44089e-16
0
-2.22045e-16
-2.22045e-16
1.11022e-16
0
0
1.11022e-16
5.32907e-15
4.09894e-13
3.8124e-08
1.89391e-08
3.32651e-08
2.40226e-06
2.85483e-06
1.39748e-05
1.52878e-05
1.78533e-05
4.99475e-05
7.19885e-05
0.00010383
0.000129887
0.000194591
0.000208349
0.000218156
0.000230141
0.000226935
0.000257944
0.00025625
0.000255635
0.000263482
0.000262914
0.000282019
0.000282994
0.000277863
0.000292016
0.000327845
0.000388011
0.000496495
0.000422693
0.00041452
0.000375926
0.000385503
0.000354917
0.000362914
0.000316469
0.00035154
0.000228137
0.000263994
4.4644e-05
5.90196e-05
5.57992e-07
4.92225e-06
3.58679e-08
1.13888e-06
3.0405e-08
3.98136e-07
6.81179e-10
4.95762e-08
7.46032e-08
1.18143e-08
3.2076e-08
5.37555e-09
1.90365e-08
2.55211e-09
1.15563e-08
1.49775e-09
6.93015e-09
6.74655e-10
3.64447e-09
8.53616e-11
5.16901e-09
2.30097e-09
5.27219e-08
1.7438e-08
4.29119e-08
1.10729e-09
2.25077e-11
3.32333e-09
3.20937e-10
1.01103e-08
8.26022e-09
1.51148e-08
2.48188e-09
9.71228e-12
2.99075e-11
1.9009e-11
4.88524e-11
3.64172e-11
4.8069e-11
3.91779e-11
1.60783e-11
5.17239e-11
2.75235e-11
7.18911e-11
9.43342e-11
3.78448e-10
7.89953e-09
2.11001e-08
8.38208e-09
1.50374e-10
2.76056e-09
3.49942e-13
3.28883e-09
-1.11022e-16
2.22045e-16
2.09832e-14
2.92402e-09
4.73909e-09
5.47652e-09
9.731e-09
2.93274e-08
1.99174e-08
3.5666e-08
2.9199e-08
1.58615e-08
1.41071e-08
2.54847e-08
2.78071e-08
2.53317e-08
3.17746e-08
1.59251e-08
3.03523e-08
1.81287e-08
4.52898e-08
3.87246e-09
1.38004e-08
8.70602e-09
1.08928e-08
8.44797e-09
7.98857e-09
9.25486e-09
9.36599e-09
7.9284e-09
1.92194e-08
1.49851e-08
5.49705e-10
2.22802e-08
2.86821e-09
2.6005e-09
5.05024e-09
1.47703e-08
6.05463e-09
5.23906e-09
2.99571e-10
1.74067e-10
3.16592e-09
3.39404e-09
8.01888e-08
1.22363e-08
1.0631e-08
-4.44089e-16
0
2.22045e-16
3.33067e-16
1.11022e-16
2.22045e-16
3.33067e-16
0
0
4.44089e-16
4.44089e-16
0
2.22045e-16
0
0
0
1.11022e-16
2.22045e-16
0
0
-1.11022e-16
0
-1.11022e-16
0
2.22045e-16
-2.22045e-16
0
-2.22045e-16
0
1.11022e-16
1.11022e-16
-4.44089e-16
0
1.11022e-16
2.22045e-16
-2.22045e-16
2.22045e-16
-4.44089e-16
4.44089e-16
-4.44089e-16
-1.11022e-16
4.44089e-16
1.11022e-16
-1.11022e-16
-2.22045e-16
-2.22045e-16
1.11022e-16
-6.66134e-16
0
-1.11022e-16
1.11022e-16
0
1.11022e-16
-1.11022e-16
2.22045e-16
2.22045e-16
-1.11022e-16
0
0
0
-2.22045e-16
1.11022e-16
0
2.22045e-16
0
-2.22045e-16
-4.44089e-16
0
-3.33067e-16
-2.22045e-16
-1.11022e-16
3.33067e-16
2.22045e-16
-4.44089e-16
-4.44089e-16
-2.22045e-16
0
0
1.11022e-16
-2.22045e-16
0
0
4.44089e-16
-2.22045e-16
2.22045e-16
3.33067e-16
2.22045e-16
0
-2.22045e-16
-2.22045e-16
4.44089e-16
-4.44089e-16
0
0
0
0
-1.11022e-16
1.11022e-16
0
0
-2.22045e-16
0
-2.22045e-16
2.22045e-16
-2.22045e-16
2.22045e-16
-4.44089e-16
1.11022e-16
2.22045e-16
2.22045e-16
0
0
2.22045e-16
-2.22045e-16
-2.22045e-16
0
0
2.22045e-16
-2.22045e-16
1.11022e-16
-1.11022e-16
-2.22045e-16
0
2.22045e-16
0
0
0
1.11022e-16
0
1.11022e-16
0
-1.11022e-16
4.44089e-16
2.22045e-16
0
6.66134e-16
2.22045e-16
-2.22045e-16
4.44089e-16
0
2.22045e-16
0
4.44089e-16
-2.22045e-16
0
-1.11022e-16
2.22045e-16
1.11022e-16
-4.44089e-16
-4.44089e-16
3.33067e-16
2.22045e-16
0
2.22045e-16
2.22045e-16
2.22045e-16
-2.22045e-16
0
-4.44089e-16
-2.22045e-16
2.22045e-16
-2.22045e-16
0
0
1.11022e-16
4.44089e-16
0
2.22045e-16
-1.11022e-16
-1.11022e-16
-1.11022e-16
0
0
-2.22045e-16
0
-2.22045e-16
2.22045e-16
0
2.22045e-16
0
0
4.44089e-16
-4.44089e-16
2.22045e-16
4.44089e-16
1.11022e-16
0
1.11022e-16
-4.44089e-16
4.44089e-16
-2.22045e-16
0
-2.22045e-16
2.22045e-16
-4.44089e-16
2.22045e-16
2.22045e-16
0
1.11022e-16
0
0
2.22045e-16
2.22045e-16
0
4.44089e-16
1.11022e-16
0
-2.22045e-16
2.22045e-16
0
0
0
0
3.33067e-16
2.22045e-16
2.22045e-16
0
0
1.11022e-16
-2.22045e-16
-2.22045e-16
1.11022e-16
0
0
4.44089e-16
2.22045e-16
-2.22045e-16
-1.11022e-16
-1.11022e-16
-2.22045e-16
7.60503e-14
4.75286e-13
2.52021e-14
4.84057e-14
5.4845e-14
1.11022e-16
1.11022e-16
0
3.33067e-16
2.22045e-16
0
-1.11022e-16
0
4.44089e-16
0
3.33067e-16
1.11022e-16
-2.22045e-16
0
2.22045e-16
2.22045e-16
0
2.22045e-16
0
-1.11022e-16
-4.44089e-16
-1.11022e-16
-4.44089e-16
-1.11022e-16
2.22045e-16
-1.11022e-16
-1.11022e-16
-2.22045e-16
0
-2.22045e-16
0
0
0
1.11022e-16
-1.11022e-16
0
-3.33067e-16
0
-1.11022e-16
0
1.11022e-16
2.22045e-16
0
2.22045e-16
-2.22045e-16
0
4.44089e-16
2.22045e-16
0
-3.33067e-16
-1.11022e-16
-1.11022e-16
2.22045e-16
-1.11022e-16
2.22045e-16
-1.11022e-16
0
-2.22045e-16
1.11022e-16
2.22045e-16
2.22045e-16
0
4.44089e-16
0
-4.44089e-16
0
-2.22045e-16
-2.22045e-16
-1.11022e-16
-3.33067e-16
-2.22045e-16
0
2.22045e-16
2.22045e-16
2.22045e-16
2.22045e-16
0
-1.11022e-16
2.22045e-16
2.22045e-16
3.33067e-16
0
2.22045e-16
-2.22045e-16
2.22045e-16
3.33067e-16
0
-2.22045e-16
-5.55112e-16
0
4.44089e-16
-2.22045e-16
3.33067e-16
0
2.22045e-16
-2.22045e-16
0
2.22045e-16
-2.22045e-16
2.22045e-16
2.22045e-16
2.22045e-16
0
3.33067e-16
-4.44089e-16
-4.44089e-16
0
2.22045e-16
4.44089e-16
0
0
0
-4.44089e-16
0
2.22045e-16
-1.11022e-16
-4.44089e-16
0
0
0
4.44089e-16
0
2.22045e-16
-2.22045e-16
0
-2.22045e-16
0
0
2.22045e-16
-2.22045e-16
0
0
-4.44089e-16
1.11022e-16
2.22045e-16
0
-2.22045e-16
-1.11022e-16
0
-2.22045e-16
-1.11022e-16
-1.11022e-16
-1.11022e-16
0
0
3.33067e-16
0
4.44089e-16
0
2.22045e-16
0
-3.33067e-16
0
0
2.22045e-16
-1.11022e-16
-1.11022e-16
1.11022e-16
0
1.11022e-16
-2.22045e-16
-2.22045e-16
0
2.22045e-16
4.44089e-16
-1.11022e-16
0
0
-4.44089e-16
2.22045e-16
0
-4.44089e-16
2.22045e-16
3.33067e-16
0
1.11022e-16
-2.22045e-16
0
2.22045e-16
2.22045e-16
4.44089e-16
0
0
-4.44089e-16
1.11022e-16
0
2.22045e-16
-2.22045e-16
0
0
-3.33067e-16
-2.22045e-16
3.33067e-16
-2.22045e-16
2.22045e-16
2.22045e-16
1.11022e-16
0
-2.22045e-16
0
1.11022e-16
1.11022e-16
0
0
1.11022e-16
0
2.22045e-16
2.22045e-16
-1.11022e-16
2.22045e-16
0
-1.11022e-16
-1.11022e-16
1.11022e-16
0
-1.11022e-16
0
0
1.11022e-16
-3.33067e-16
2.22045e-16
6.66134e-16
0
-2.22045e-16
-4.44089e-16
0
0
0
0
2.22045e-16
2.22045e-16
-2.22045e-16
0
-2.22045e-16
-2.22045e-16
-1.11022e-16
-4.44089e-16
2.22045e-16
-2.22045e-16
2.22045e-16
0
0
2.22045e-16
0
0
-3.33067e-16
0
2.22045e-16
-2.22045e-16
0
2.22045e-16
2.22045e-16
-2.22045e-16
1.11022e-16
-2.22045e-16
0
-2.22045e-16
2.22045e-16
2.22045e-16
-1.11022e-16
0
-4.44089e-16
0
-4.44089e-16
1.11022e-16
-4.44089e-16
1.11022e-16
1.11022e-16
2.22045e-16
0
0
0
4.44089e-16
1.11022e-16
0
-3.33067e-16
2.22045e-16
0
1.11022e-16
0
0
-4.44089e-16
1.11022e-16
2.22045e-16
1.11022e-16
4.44089e-16
0
-2.22045e-16
-2.22045e-16
-2.22045e-16
-4.44089e-16
2.22045e-16
0
-2.22045e-16
0
2.22045e-16
2.22045e-16
0
2.22045e-16
-2.22045e-16
-4.44089e-16
-2.22045e-16
0
1.16106e-08
1.7981e-09
4.81127e-09
2.67284e-09
3.58404e-07
4.15613e-07
5.89242e-07
2.38595e-06
2.55911e-06
2.60343e-06
8.02499e-06
8.74145e-06
9.33237e-06
2.1117e-05
2.31366e-05
2.53534e-05
2.82684e-05
3.6777e-05
4.18661e-05
4.32325e-05
4.57327e-05
4.71344e-05
5.67251e-05
5.86155e-05
5.79732e-05
5.88075e-05
6.06913e-05
7.09858e-05
8.17071e-05
8.87063e-05
8.02696e-05
6.17263e-05
5.80831e-05
5.72522e-05
5.60141e-05
5.68075e-05
7.1078e-05
8.06684e-05
7.90495e-05
9.558e-05
4.21306e-05
4.36043e-05
5.0309e-07
6.26774e-06
1.42689e-08
1.55995e-06
1.45317e-08
5.44195e-07
5.73571e-09
4.8682e-08
7.9598e-08
1.93725e-08
4.34972e-08
5.8701e-09
3.05602e-08
1.3197e-09
1.78254e-08
8.19909e-10
1.02083e-08
5.24516e-10
5.73999e-09
1.01802e-10
1.91221e-09
2.74864e-09
1.60821e-07
1.23708e-07
2.87211e-10
8.30001e-10
1.72576e-11
2.47447e-10
2.07361e-10
8.06309e-08
8.90119e-08
3.44449e-11
8.19382e-11
1.08944e-11
2.93531e-11
2.10999e-11
4.52194e-11
3.39569e-11
4.45545e-11
3.48454e-11
1.81604e-11
3.64627e-11
1.67123e-11
2.9085e-11
7.49685e-11
2.69104e-09
8.2935e-09
2.09526e-08
2.06571e-09
8.46133e-10
4.23672e-10
3.89244e-13
2.08479e-09
4.77396e-15
1.73161e-12
1.05094e-12
2.60898e-09
3.57376e-10
5.59472e-09
2.75611e-09
2.96743e-08
3.80845e-09
1.50477e-08
4.98044e-09
3.02622e-09
8.5852e-09
1.29724e-08
1.75386e-09
1.95263e-09
3.05786e-10
1.15228e-09
6.59527e-11
1.23198e-09
7.66679e-10
2.24205e-12
1.44164e-09
1.51363e-11
4.65535e-11
1.46073e-09
3.22313e-10
1.03888e-10
3.67555e-09
6.76645e-11
1.35397e-09
2.02474e-09
1.87837e-08
8.19777e-09
1.43018e-09
2.39797e-10
2.03862e-09
7.66675e-10
1.08676e-10
5.3445e-09
4.22694e-10
5.17584e-10
1.26079e-09
7.85535e-11
4.21203e-07
1.26285e-07
9.21016e-08
1.12436e-10
0
2.22045e-16
2.22045e-16
2.22045e-16
-4.44089e-16
-2.22045e-16
2.22045e-16
3.33067e-16
2.22045e-16
-1.11022e-16
1.11022e-16
-2.22045e-16
2.22045e-16
2.22045e-16
0
1.11022e-16
-2.22045e-16
2.22045e-16
1.11022e-16
0
1.11022e-16
0
0
-1.11022e-16
-1.11022e-16
0
1.11022e-16
2.22045e-16
2.22045e-16
0
4.44089e-16
2.22045e-16
-4.44089e-16
2.22045e-16
0
2.22045e-16
-4.44089e-16
0
-1.11022e-16
-2.22045e-16
3.33067e-16
0
0
1.11022e-16
0
0
2.22045e-16
0
2.22045e-16
-2.22045e-16
0
0
4.44089e-16
-1.11022e-16
0
-4.44089e-16
4.44089e-16
2.22045e-16
0
0
0
-2.22045e-16
0
0
0
4.44089e-16
0
2.22045e-16
-1.11022e-16
0
1.11022e-16
2.22045e-16
-1.11022e-16
-1.11022e-16
-2.22045e-16
0
4.44089e-16
2.22045e-16
0
-4.44089e-16
-1.11022e-16
-3.33067e-16
-2.22045e-16
2.22045e-16
-4.44089e-16
0
-2.22045e-16
4.44089e-16
0
0
-1.11022e-16
1.11022e-16
0
0
-1.11022e-16
1.11022e-16
-2.22045e-16
0
0
0
-1.11022e-16
-2.22045e-16
0
0
2.22045e-16
2.22045e-16
0
3.33067e-16
0
2.22045e-16
0
2.22045e-16
-4.44089e-16
0
2.22045e-16
-2.22045e-16
0
4.44089e-16
-2.22045e-16
0
1.11022e-16
0
2.22045e-16
0
2.22045e-16
0
-4.44089e-16
0
0
2.22045e-16
-3.33067e-16
0
4.44089e-16
4.44089e-16
1.11022e-16
2.22045e-16
0
4.44089e-16
-1.11022e-16
2.22045e-16
0
0
0
1.11022e-16
0
0
2.22045e-16
-1.11022e-16
-4.44089e-16
2.22045e-16
2.22045e-16
0
2.22045e-16
4.44089e-16
2.22045e-16
3.33067e-16
4.44089e-16
0
0
1.11022e-16
-1.11022e-16
0
3.33067e-16
0
2.22045e-16
2.22045e-16
0
3.33067e-16
0
2.22045e-16
0
0
0
4.44089e-16
0
-1.11022e-16
-1.11022e-16
4.44089e-16
-4.44089e-16
-3.33067e-16
-2.22045e-16
-2.22045e-16
0
0
0
-2.22045e-16
1.11022e-16
1.11022e-16
0
3.33067e-16
-2.22045e-16
1.11022e-16
-3.33067e-16
0
0
1.11022e-16
1.11022e-16
-1.11022e-16
0
0
-3.33067e-16
-2.22045e-16
0
1.11022e-16
0
0
0
3.33067e-16
0
-2.22045e-16
0
1.11022e-16
1.11022e-16
1.11022e-16
4.44089e-16
0
2.22045e-16
2.22045e-16
0
0
2.22045e-16
0
2.22045e-16
1.11022e-16
2.22045e-16
-3.33067e-16
2.22045e-16
-1.11022e-16
-1.11022e-16
1.66533e-14
1.7264e-13
7.86038e-14
-1.11022e-16
1.11022e-16
0
0
-1.11022e-16
2.22045e-16
0
-1.11022e-16
-2.22045e-16
-4.44089e-16
2.22045e-16
-2.22045e-16
1.11022e-16
0
3.33067e-16
1.11022e-16
2.22045e-16
0
2.22045e-16
0
2.22045e-16
1.11022e-16
0
0
4.44089e-16
0
1.11022e-16
-2.22045e-16
3.33067e-16
-1.11022e-16
0
-2.22045e-16
2.22045e-16
-1.11022e-16
-2.22045e-16
1.11022e-16
0
0
0
-1.11022e-16
-1.11022e-16
2.22045e-16
0
2.22045e-16
0
3.33067e-16
-4.44089e-16
0
3.33067e-16
0
2.22045e-16
2.22045e-16
0
1.11022e-16
0
0
-4.44089e-16
0
-4.44089e-16
0
4.44089e-16
2.22045e-16
0
0
4.44089e-16
0
-1.11022e-16
0
-1.11022e-16
6.66134e-16
0
2.22045e-16
0
0
4.44089e-16
0
-2.22045e-16
0
4.44089e-16
2.22045e-16
0
-1.11022e-16
2.22045e-16
-1.11022e-16
4.44089e-16
0
3.33067e-16
1.11022e-16
2.22045e-16
4.44089e-16
0
1.11022e-16
-2.22045e-16
1.11022e-16
0
-2.22045e-16
-2.22045e-16
-1.11022e-16
0
2.22045e-16
2.22045e-16
0
-1.11022e-16
-4.44089e-16
-1.11022e-16
0
0
1.11022e-16
0
0
-1.11022e-16
0
0
-1.11022e-16
4.44089e-16
-1.11022e-16
-2.22045e-16
-2.22045e-16
-3.33067e-16
3.33067e-16
0
-2.22045e-16
0
-4.44089e-16
0
1.11022e-16
0
-1.11022e-16
0
0
0
0
-2.22045e-16
2.22045e-16
0
2.22045e-16
4.44089e-16
0
2.22045e-16
-2.22045e-16
0
3.33067e-16
-5.55112e-16
-1.11022e-16
2.22045e-16
1.11022e-16
-2.22045e-16
2.22045e-16
2.22045e-16
1.11022e-16
-3.33067e-16
0
0
0
2.22045e-16
-2.22045e-16
0
0
-2.22045e-16
0
2.22045e-16
0
2.22045e-16
1.11022e-16
1.11022e-16
0
0
0
-3.33067e-16
0
-4.44089e-16
0
4.44089e-16
4.44089e-16
4.44089e-16
0
2.22045e-16
4.44089e-16
0
4.44089e-16
-1.11022e-16
2.22045e-16
-2.22045e-16
-1.11022e-16
0
0
-2.22045e-16
0
-2.22045e-16
-1.11022e-16
-4.44089e-16
2.22045e-16
-1.11022e-16
-2.22045e-16
2.22045e-16
1.11022e-16
0
0
1.11022e-16
-2.22045e-16
-1.11022e-16
0
2.22045e-16
0
2.22045e-16
0
-2.22045e-16
-4.44089e-16
2.22045e-16
-2.22045e-16
4.44089e-16
0
2.22045e-16
0
-1.11022e-16
1.11022e-16
1.11022e-16
4.44089e-16
4.44089e-16
2.22045e-16
-3.33067e-16
0
1.11022e-16
2.22045e-16
2.22045e-16
0
0
-2.22045e-16
0
0
4.44089e-16
-4.44089e-16
0
0
-1.11022e-16
1.11022e-16
0
0
-2.22045e-16
0
0
0
1.11022e-16
-2.22045e-16
2.22045e-16
2.22045e-16
-1.11022e-16
-2.22045e-16
1.11022e-16
0
-1.11022e-16
1.11022e-16
0
0
-1.11022e-16
0
2.22045e-16
2.22045e-16
-2.22045e-16
1.11022e-16
1.11022e-16
0
-2.22045e-16
-4.44089e-16
1.11022e-16
2.22045e-16
2.22045e-16
2.22045e-16
-3.33067e-16
-1.11022e-16
-2.22045e-16
0
-1.11022e-16
-2.22045e-16
1.11022e-16
0
0
0
-1.11022e-16
-3.33067e-16
0
1.11022e-16
-4.44089e-16
2.22045e-16
4.44089e-16
-4.44089e-16
2.22045e-16
-2.22045e-16
-1.11022e-16
0
1.11022e-16
3.33067e-16
0
-2.22045e-16
-4.44089e-16
2.22045e-16
0
-2.22045e-16
0
0
1.11022e-16
4.44089e-16
0
0
0
7.26086e-14
2.46955e-10
2.53533e-09
1.4474e-09
7.07397e-08
1.58283e-07
1.68396e-07
7.52654e-07
8.64705e-07
8.54145e-07
1.5731e-06
2.44788e-06
2.47617e-06
2.60662e-06
4.47345e-06
5.65128e-06
6.47894e-06
7.92364e-06
7.40265e-06
7.29719e-06
7.38878e-06
7.39031e-06
9.28479e-06
8.36928e-06
8.18048e-06
7.71742e-06
7.66358e-06
7.90093e-06
1.10137e-05
6.86565e-06
4.92373e-06
2.52992e-06
2.73336e-06
2.82587e-06
3.07577e-06
2.98462e-06
3.44036e-06
6.61517e-06
1.26865e-05
2.80418e-05
2.26464e-05
1.29999e-05
3.23014e-07
3.56473e-06
1.83406e-09
9.40335e-07
1.53356e-08
3.27124e-07
6.00145e-09
4.49018e-08
1.01382e-07
3.97941e-09
4.36943e-08
1.24578e-09
2.21552e-08
7.67201e-10
1.20652e-08
6.51246e-10
6.53362e-09
9.76012e-10
2.94702e-09
2.71101e-12
7.8756e-10
2.18048e-09
2.7426e-11
6.00295e-10
2.43387e-10
5.01242e-10
4.90088e-11
5.75822e-11
2.15081e-10
5.14974e-11
6.62246e-11
1.95179e-11
5.30582e-11
4.56165e-12
2.90348e-11
2.08274e-11
4.66965e-11
3.57254e-11
4.5341e-11
3.78732e-11
1.39745e-11
4.61809e-11
1.66332e-11
3.33489e-11
1.47063e-11
3.08415e-09
1.89155e-09
1.18156e-08
3.33582e-09
2.11548e-10
4.13628e-10
4.49751e-13
1.24869e-09
4.77396e-15
1.80966e-14
1.29641e-12
4.40376e-10
3.10128e-10
6.86896e-09
3.93149e-09
3.33587e-08
4.18793e-09
1.76936e-08
2.48894e-09
4.58198e-09
1.45914e-08
9.73866e-09
1.25671e-09
2.1782e-09
3.66464e-10
1.20694e-09
2.50147e-12
1.23079e-09
1.14885e-09
1.98552e-10
1.94002e-09
5.54364e-10
2.2523e-11
2.66676e-09
1.79396e-09
6.99713e-12
3.6236e-09
1.6387e-10
2.05108e-09
1.66919e-09
1.51502e-08
1.48085e-08
5.43375e-11
3.58445e-10
6.05077e-09
1.05523e-08
9.55954e-10
1.71804e-08
8.11288e-09
1.53766e-09
6.46695e-09
9.99665e-10
1.83492e-07
1.26271e-07
9.28356e-08
1.06843e-10
0
0
2.22045e-16
-2.22045e-16
-1.11022e-16
2.22045e-16
0
2.22045e-16
4.44089e-16
-2.22045e-16
-2.22045e-16
0
-4.44089e-16
1.11022e-16
-1.11022e-16
0
-1.11022e-16
-1.11022e-16
-2.22045e-16
0
-2.22045e-16
0
0
0
0
-2.22045e-16
-4.44089e-16
0
1.11022e-16
4.44089e-16
0
-1.11022e-16
0
-1.11022e-16
-4.44089e-16
1.11022e-16
4.44089e-16
-2.22045e-16
0
-4.44089e-16
0
-1.11022e-16
6.66134e-16
2.22045e-16
0
0
0
0
-2.22045e-16
0
-1.11022e-16
0
-2.22045e-16
-1.11022e-16
0
0
-2.22045e-16
0
0
0
0
2.22045e-16
-4.44089e-16
2.22045e-16
1.11022e-16
1.11022e-16
-1.11022e-16
4.44089e-16
0
0
0
2.22045e-16
-2.22045e-16
2.22045e-16
0
1.11022e-16
-2.22045e-16
0
1.11022e-16
1.11022e-16
0
0
-2.22045e-16
4.44089e-16
-4.44089e-16
-2.22045e-16
-4.44089e-16
-1.11022e-16
0
0
2.22045e-16
0
0
1.11022e-16
2.22045e-16
-4.44089e-16
2.22045e-16
2.22045e-16
0
1.11022e-16
2.22045e-16
2.22045e-16
1.11022e-16
2.22045e-16
0
0
-1.11022e-16
2.22045e-16
2.22045e-16
2.22045e-16
0
0
-1.11022e-16
0
6.66134e-16
2.22045e-16
1.11022e-16
-2.22045e-16
2.22045e-16
0
0
-2.22045e-16
-2.22045e-16
2.22045e-16
1.11022e-16
-4.44089e-16
0
0
0
2.22045e-16
2.22045e-16
0
2.22045e-16
4.44089e-16
-1.11022e-16
-2.22045e-16
-2.22045e-16
4.44089e-16
-1.11022e-16
-1.11022e-16
3.33067e-16
0
-1.11022e-16
4.44089e-16
0
-2.22045e-16
-2.22045e-16
1.11022e-16
0
-2.22045e-16
2.22045e-16
2.22045e-16
1.11022e-16
2.22045e-16
-2.22045e-16
-2.22045e-16
0
2.22045e-16
0
0
0
0
-4.44089e-16
1.11022e-16
0
0
0
0
-2.22045e-16
-2.22045e-16
0
2.22045e-16
-4.44089e-16
1.11022e-16
0
0
-1.11022e-16
-1.11022e-16
0
-2.22045e-16
-1.11022e-16
0
0
1.11022e-16
3.33067e-16
2.22045e-16
2.22045e-16
-2.22045e-16
-1.11022e-16
3.33067e-16
-1.11022e-16
0
-3.33067e-16
1.11022e-16
0
-4.44089e-16
0
-1.11022e-16
0
-4.44089e-16
-2.22045e-16
0
2.22045e-16
2.22045e-16
0
0
2.22045e-16
2.22045e-16
-4.44089e-16
1.11022e-16
2.22045e-16
2.22045e-16
-3.33067e-16
4.44089e-16
-2.22045e-16
2.22045e-16
2.22045e-16
2.22045e-16
-2.22045e-16
0
-2.22045e-16
-4.44089e-16
4.44089e-16
4.44089e-16
4.44089e-16
0
-3.33067e-16
2.22045e-16
1.11022e-16
2.66454e-15
4.37428e-14
7.14984e-14
1.32117e-14
1.11022e-16
0
1.11022e-16
-2.22045e-16
-2.22045e-16
-2.22045e-16
0
-2.22045e-16
0
-2.22045e-16
4.44089e-16
0
0
0
-1.11022e-16
-1.11022e-16
-4.44089e-16
-2.22045e-16
-2.22045e-16
-2.22045e-16
2.22045e-16
-4.44089e-16
4.44089e-16
3.33067e-16
0
0
1.11022e-16
0
2.22045e-16
-2.22045e-16
2.22045e-16
-2.22045e-16
-2.22045e-16
2.22045e-16
1.11022e-16
1.11022e-16
2.22045e-16
2.22045e-16
2.22045e-16
2.22045e-16
1.11022e-16
-2.22045e-16
-3.33067e-16
-2.22045e-16
0
-1.11022e-16
4.44089e-16
1.11022e-16
0
1.11022e-16
2.22045e-16
2.22045e-16
-1.11022e-16
0
0
2.22045e-16
0
0
-1.11022e-16
0
-1.11022e-16
2.22045e-16
2.22045e-16
0
0
-1.11022e-16
4.44089e-16
2.22045e-16
4.44089e-16
2.22045e-16
-2.22045e-16
3.33067e-16
0
2.22045e-16
0
1.11022e-16
1.11022e-16
-1.11022e-16
4.44089e-16
0
2.22045e-16
0
0
0
2.22045e-16
0
0
2.22045e-16
-2.22045e-16
3.33067e-16
-3.33067e-16
-2.22045e-16
-4.44089e-16
-1.11022e-16
0
0
-4.44089e-16
2.22045e-16
-2.22045e-16
-1.11022e-16
-2.22045e-16
2.22045e-16
4.44089e-16
0
2.22045e-16
-1.11022e-16
-1.11022e-16
-2.22045e-16
1.11022e-16
2.22045e-16
0
4.44089e-16
0
-2.22045e-16
2.22045e-16
2.22045e-16
-2.22045e-16
2.22045e-16
-2.22045e-16
3.33067e-16
-4.44089e-16
-4.44089e-16
0
2.22045e-16
0
2.22045e-16
6.66134e-16
-4.44089e-16
4.44089e-16
-3.33067e-16
2.22045e-16
3.33067e-16
0
-1.11022e-16
-2.22045e-16
1.11022e-16
-2.22045e-16
0
2.22045e-16
0
2.22045e-16
0
-4.44089e-16
4.44089e-16
2.22045e-16
3.33067e-16
-3.33067e-16
1.11022e-16
2.22045e-16
0
0
0
-2.22045e-16
2.22045e-16
-2.22045e-16
0
0
0
-1.11022e-16
4.44089e-16
-1.11022e-16
-4.44089e-16
2.22045e-16
-2.22045e-16
0
2.22045e-16
2.22045e-16
-1.11022e-16
0
0
-4.44089e-16
0
2.22045e-16
2.22045e-16
0
-1.11022e-16
-1.11022e-16
-4.44089e-16
2.22045e-16
0
-2.22045e-16
1.11022e-16
-2.22045e-16
0
3.33067e-16
0
0
1.11022e-16
-2.22045e-16
0
-1.11022e-16
2.22045e-16
1.11022e-16
-2.22045e-16
-2.22045e-16
1.11022e-16
2.22045e-16
-4.44089e-16
0
0
0
1.11022e-16
-1.11022e-16
-4.44089e-16
-4.44089e-16
-1.11022e-16
1.11022e-16
4.44089e-16
-2.22045e-16
1.11022e-16
-4.44089e-16
0
0
0
1.11022e-16
-4.44089e-16
-2.22045e-16
-4.44089e-16
0
2.22045e-16
-4.44089e-16
2.22045e-16
2.22045e-16
0
0
3.33067e-16
1.11022e-16
4.44089e-16
0
4.44089e-16
0
0
0
0
-4.44089e-16
0
0
4.44089e-16
0
-4.44089e-16
0
0
-2.22045e-16
0
0
-3.33067e-16
-4.44089e-16
0
2.22045e-16
0
-1.11022e-16
-1.11022e-16
-1.11022e-16
0
-2.22045e-16
2.22045e-16
2.22045e-16
2.22045e-16
0
0
0
2.22045e-16
0
1.11022e-16
-2.22045e-16
0
2.22045e-16
0
0
4.44089e-16
-4.44089e-16
1.11022e-16
-4.44089e-16
-3.33067e-16
0
0
2.22045e-16
2.22045e-16
0
0
2.22045e-16
0
0
-2.22045e-16
-2.22045e-16
1.11022e-16
1.11022e-16
-2.22045e-16
-1.11022e-16
0
-4.44089e-16
1.11022e-16
2.22045e-16
0
2.22045e-16
0
-2.22045e-16
0
2.22045e-16
-3.33067e-16
-1.11022e-16
-1.11022e-16
-2.22045e-16
-2.22045e-16
3.33067e-16
7.71605e-14
7.30673e-09
2.96049e-09
8.40145e-09
2.12499e-07
1.96886e-07
4.1754e-07
9.76672e-07
8.51068e-07
9.86218e-07
2.18239e-06
2.13599e-06
2.29933e-06
2.02203e-06
2.23922e-06
3.67255e-06
4.4317e-06
5.08624e-06
3.91608e-06
4.18909e-06
4.26025e-06
4.23966e-06
2.64595e-06
2.35237e-06
2.75725e-06
2.80312e-06
2.66786e-06
3.24123e-06
2.26256e-06
1.8587e-06
7.16475e-07
8.31209e-07
8.04224e-07
9.70917e-07
9.50842e-07
1.19957e-06
1.03431e-06
1.18167e-05
3.16787e-05
2.9702e-06
4.48004e-05
4.21044e-06
1.40783e-05
5.43081e-07
3.68008e-06
2.01794e-07
1.25628e-06
2.43404e-08
2.02627e-07
2.25233e-07
5.5158e-08
1.16665e-07
2.96228e-08
7.51092e-08
1.66476e-08
4.84086e-08
9.38854e-09
3.03625e-08
4.54316e-09
1.79829e-08
1.51358e-09
7.26221e-09
9.54194e-09
4.83702e-09
6.51583e-09
1.80761e-09
3.4706e-09
5.15894e-10
1.3867e-09
1.32986e-09
1.29106e-09
1.07013e-09
2.62121e-10
5.04102e-10
2.16151e-11
3.56247e-11
2.50263e-11
2.25609e-11
1.68886e-11
3.00347e-11
2.26297e-11
1.6136e-11
1.1182e-11
5.74938e-12
2.60231e-11
1.9054e-11
1.76852e-09
1.51975e-10
2.10105e-08
5.72636e-09
2.89566e-11
1.80094e-09
4.77507e-13
1.67413e-09
5.76206e-14
2.36922e-13
1.99408e-11
3.73822e-09
2.32768e-09
1.41741e-08
4.2209e-09
4.77963e-08
1.52218e-09
1.10045e-08
6.15397e-09
4.46826e-10
1.74261e-09
9.38995e-10
6.96017e-10
1.26886e-09
3.85926e-10
1.13902e-09
7.60081e-12
8.97664e-10
4.56511e-10
7.17895e-11
1.40372e-09
4.33006e-10
1.46323e-10
1.76076e-09
4.80054e-10
4.06514e-10
4.28067e-09
2.50462e-11
5.66245e-09
1.56348e-09
4.58559e-09
2.71678e-09
9.61323e-10
2.0141e-09
1.20302e-09
3.89101e-09
3.80689e-09
1.7695e-08
9.94372e-09
1.74064e-09
9.87503e-09
1.80539e-09
1.43137e-07
1.79306e-07
1.43429e-07
9.08426e-11
-2.22045e-16
0
-4.44089e-16
-2.22045e-16
0
-1.11022e-16
0
-1.11022e-16
0
0
1.11022e-16
0
2.22045e-16
0
-2.22045e-16
-2.22045e-16
0
0
0
-2.22045e-16
1.11022e-16
0
2.22045e-16
0
-2.22045e-16
0
-3.33067e-16
0
2.22045e-16
0