/*--------------------------------*- C++ -*----------------------------------*\
| =========                 |                                                 |
| \\      /  F ield         | OpenFOAM: The Open Source CFD Toolbox           |
|  \\    /   O peration     | Version:  v2012                                 |
|   \\  /    A nd           | Website:  www.openfoam.com                      |
|    \\/     M anipulation  |                                                 |
\*---------------------------------------------------------------------------*/
FoamFile
{
    version     2.0;
    format      ascii;
    class       volScalarField;
    location    "1e-06";
    object      alpha.water_0;
}
// * * * * * * * * * * * * * * * * * * * * * * * * * * * * * * * * * * * * * //

dimensions      [0 0 0 0 0 0 0];


internalField   nonuniform List<scalar> 
102000
(
1
1
1
1
1
1
1
1
1
1
1
1
1
1
1
1
1
1
1
1
1
1
1
1
1
1
1
1
1
1
1
1
1
1
1
1
1
1
1
1
1
1
1
1
1
1
1
1
1
1
1
1
1
1
1
1
1
1
1
1
1
1
1
1
1
1
1
1
1
1
1
1
1
1
1
1
1
1
1
1
1
1
1
1
1
1
1
1
1
1
1
1
1
1
1
1
1
1
1
1
1
1
1
1
1
1
1
1
1
1
1
1
1
1
1
1
1
1
1
1
1
1
1
1
1
1
1
1
1
1
1
1
1
1
1
1
1
1
1
1
1
1
1
1
1
1
1
1
1
1
1
1
1
1
1
1
1
1
1
1
1
1
1
1
1
1
1
1
1
1
1
1
1
0.985084
0.98395
0.970671
0.968819
0.968014
0.951819
0.951944
0.938947
0.918101
0.907312
0.905051
0.90875
0.906201
0.90484
0.905181
0.904064
0.905171
0.901578
0.90042
0.901151
0.900498
0.903512
0.898989
0.897006
0.898481
0.89635
0.889278
0.882718
0.869468
0.851988
0.850307
0.857002
0.86015
0.866173
0.865804
0.837898
0.830114
0.752923
0.735272
0.590207
0.569057
0.43459
0.419645
0.338286
0.328216
0.276982
0.269895
0.230727
0.209494
0.199345
0.182072
0.17838
0.159594
0.156879
0.140656
0.138262
0.124248
0.121176
0.10735
0.105258
0.0926964
0.174936
0.166674
0.418911
0.428793
0.147087
0.152422
0.048971
0.135364
0.101344
0.372997
0.41076
0.124841
0.125441
0.0303767
0.0335712
0.0342617
0.0371493
0.0374828
0.0391455
0.0394663
0.0411371
0.0458779
0.0469961
0.0656016
0.0916903
0.194756
0.60319
0.682475
0.990288
0.990111
0.999771
0.999992
0.999818
1
1
1
0.999959
0.999959
0.991415
0.929987
0.914837
0.830931
0.861823
0.873128
0.910837
0.9115
0.813264
0.773265
0.723054
0.696816
0.765674
0.721577
0.742043
0.76837
0.999898
0.779721
0.770238
0.781009
0.81896
0.786056
0.761479
0.831103
0.779368
0.786424
0.839527
0.833182
0.933773
0.94693
0.970811
0.978863
0.977485
0.97922
0.941309
0.949023
0.995819
0.999842
0.999828
0.999997
0.999976
1
1
1
1
1
1
1
1
1
1
1
1
1
1
1
1
1
1
1
1
1
1
1
1
1
1
1
1
1
1
1
1
1
1
1
1
1
1
1
1
1
1
1
1
1
1
1
1
1
1
1
1
1
1
1
1
1
1
1
1
1
1
1
1
1
1
1
1
1
1
1
1
1
1
1
1
1
1
1
1
1
1
1
1
1
1
1
1
1
1
1
1
1
1
1
1
1
1
1
1
1
1
1
1
1
1
1
1
1
1
1
1
1
1
1
1
1
1
1
1
1
1
1
1
1
1
1
1
1
1
1
1
1
1
1
1
1
1
1
1
1
1
1
1
1
1
1
1
1
1
1
1
1
1
1
1
1
1
1
1
1
1
1
1
1
1
1
1
1
1
1
1
1
1
1
1
1
1
1
1
1
1
1
1
1
1
1
1
1
1
1
1
1
1
1
1
1
1
1
1
1
1
1
1
1
1
1
1
1
1
1
1
1
1
1
1
1
1
1
1
1
1
1
1
1
1
1
1
1
1
1
0.999963
0.999916
0.999912
0.999977
0.999992
1
1
0.999998
0.999999
1
1
1
1
1
1
1
1
1
1
1
1
1
1
1
1
1
1
1
1
1
1
1
1
1
1
1
1
1
1
1
1
1
1
1
1
1
1
1
1
1
1
1
1
1
1
1
1
1
1
1
1
1
1
1
1
1
1
1
1
1
1
1
1
1
1
1
1
1
1
1
1
1
1
1
1
1
1
1
1
1
1
1
1
1
1
1
1
1
1
1
1
1
1
1
1
1
1
1
1
1
1
1
1
1
1
1
1
1
1
1
1
1
1
1
1
1
1
1
1
1
1
1
1
1
1
1
1
1
1
1
1
1
1
1
1
1
1
1
1
1
1
1
1
1
1
1
1
1
1
1
1
1
1
1
1
1
1
1
1
1
1
1
1
1
1
1
1
1
1
1
1
1
1
1
1
1
1
1
1
1
1
1
1
1
1
1
1
1
1
1
1
1
1
1
1
1
1
1
1
1
1
1
1
1
1
1
1
1
1
1
1
1
1
1
1
1
1
1
1
1
1
1
1
1
1
1
1
1
1
1
1
1
1
1
1
1
1
1
1
1
1
1
1
1
1
1
1
1
1
1
1
1
1
1
1
1
1
1
1
1
1
1
1
1
1
1
1
1
1
1
1
1
1
1
1
1
1
1
1
1
1
1
1
1
1
1
1
1
1
1
1
1
1
1
1
1
1
1
1
0.99673
0.996302
0.995773
0.991831
0.990955
0.985396
0.984934
0.983792
0.976217
0.973593
0.969939
0.967837
0.961835
0.961407
0.960731
0.959855
0.960449
0.957721
0.958177
0.958243
0.957606
0.957462
0.956123
0.956336
0.956683
0.95557
0.953247
0.948835
0.942132
0.926596
0.92932
0.93333
0.936444
0.93979
0.939979
0.90753
0.903424
0.816319
0.80337
0.63266
0.612774
0.456703
0.443418
0.352799
0.345056
0.288524
0.283625
0.244769
0.218259
0.211736
0.190077
0.185561
0.166524
0.163549
0.146703
0.14456
0.129606
0.127826
0.113208
0.111372
0.0978454
0.0913219
0.0905237
0.316465
0.329762
0.0695085
0.0672696
0.0536018
0.0486847
0.0474256
0.278763
0.305414
0.0391897
0.0380225
0.0303766
0.033784
0.03433
0.037385
0.0376395
0.039161
0.0395293
0.0410815
0.0449379
0.0455943
0.0603418
0.0745389
0.153573
0.546789
0.604639
0.961047
0.954311
0.999706
0.999984
0.999829
1
1
0.999992
0.998481
0.996951
0.977912
0.855402
0.842886
0.713422
0.701986
0.719779
0.731433
0.734265
0.623896
0.505439
0.520452
0.486123
0.455544
0.522609
0.503455
0.501962
0.361491
0.53074
0.549409
0.591353
0.567108
0.596957
0.600168
0.575859
0.622776
0.637638
0.628828
0.728245
0.831138
0.84586
0.90702
0.906849
0.918715
0.92617
0.91846
0.925626
0.969715
0.977087
0.979338
0.991627
0.997192
0.997556
1
1
1
1
1
1
1
1
1
1
1
1
1
1
1
1
1
1
1
1
1
1
1
1
1
1
1
1
1
1
1
1
1
1
1
1
1
1
1
1
1
1
1
1
1
1
1
1
1
1
1
1
1
1
1
1
1
1
1
1
1
1
1
1
1
1
1
1
1
1
1
1
1
1
1
1
1
1
1
1
1
1
1
1
1
1
1
1
1
1
1
1
1
1
1
1
1
1
1
1
1
1
1
1
1
1
1
1
1
1
1
1
1
1
1
1
1
1
1
1
1
1
1
1
1
1
1
1
1
1
1
1
1
1
1
1
1
1
1
1
1
1
1
1
1
1
1
1
1
1
1
1
1
1
1
1
1
1
1
1
1
1
1
1
1
1
1
1
1
1
1
1
1
1
1
1
1
1
1
1
1
1
1
1
1
1
1
1
1
1
1
1
1
1
1
1
1
1
1
1
1
1
1
1
1
1
1
1
1
1
1
1
1
1
1
1
1
1
1
1
1
1
1
1
1
1
1
1
1
1
0.999993
0.999982
0.999996
0.999999
0.999998
1
1
1
0.999999
1
1
1
1
1
1
1
1
1
1
1
1
1
1
1
1
1
1
1
1
1
1
1
1
1
1
1
1
1
1
1
1
1
1
1
1
1
1
1
1
1
1
1
1
1
1
1
1
1
1
1
1
1
1
1
1
1
1
1
1
1
1
1
1
1
1
1
1
1
1
1
1
1
1
1
1
1
1
1
1
1
1
1
1
1
1
1
1
1
1
1
1
1
1
1
1
1
1
1
1
1
1
1
1
1
1
1
1
1
1
1
1
1
1
1
1
1
1
1
1
1
1
1
1
1
1
1
1
1
1
1
1
1
1
1
1
1
1
1
1
1
1
1
1
1
1
1
1
1
1
1
1
1
1
1
1
1
1
1
1
1
1
1
1
1
1
1
1
1
1
1
1
1
1
1
1
1
1
1
1
1
1
1
1
1
1
1
1
1
1
1
1
1
1
1
1
1
1
1
1
1
1
1
1
1
1
1
1
1
1
1
1
1
1
1
1
1
1
1
1
1
1
1
1
1
1
1
1
1
1
1
1
1
1
1
1
1
1
1
1
1
1
1
1
1
1
1
1
1
1
1
1
1
1
1
1
1
1
1
1
1
1
1
1
1
1
1
1
1
1
1
1
1
1
1
1
1
1
1
1
1
1
1
1
1
1
1
1
1
1
1
1
1
1
1
1
1
1
1
1
0.999359
0.998528
0.998573
0.996667
0.996519
0.996056
0.994034
0.993863
0.99386
0.990887
0.990758
0.990447
0.987003
0.986572
0.986151
0.985708
0.983734
0.983209
0.98307
0.982731
0.982773
0.980836
0.980976
0.981056
0.981021
0.980819
0.979104
0.977898
0.977579
0.977046
0.979738
0.980172
0.980644
0.979849
0.979424
0.958048
0.955773
0.881922
0.870989
0.692221
0.676796
0.500181
0.486684
0.381737
0.37508
0.309756
0.306722
0.265973
0.236101
0.226064
0.205646
0.199541
0.180236
0.17638
0.158799
0.156373
0.139978
0.138652
0.123189
0.122342
0.106149
0.0966316
0.0940918
0.0831372
0.081686
0.0732066
0.0724244
0.0614061
0.0539032
0.050454
0.048634
0.0479757
0.0410903
0.0400235
0.0314924
0.0338082
0.0342904
0.0371217
0.0373683
0.0388178
0.0389287
0.040384
0.0430365
0.0437435
0.0590018
0.0816527
0.169146
0.428567
0.462156
0.947617
0.942517
0.999829
0.999983
0.999866
0.999998
0.999994
0.999964
0.997668
0.9956
0.965556
0.795267
0.767837
0.58074
0.576479
0.556147
0.556423
0.551307
0.403839
0.305372
0.297911
0.280771
0.281926
0.289531
0.310696
0.312671
0.338166
0.35167
0.355651
0.393834
0.408084
0.414922
0.425149
0.447968
0.452419
0.493699
0.50858
0.586999
0.719275
0.72485
0.798901
0.791274
0.785974
0.837406
0.86874
0.872563
0.918709
0.937179
0.942213
0.976816
0.990756
0.992702
0.99975
1
1
1
1
1
1
1
1
1
1
1
1
1
1
1
1
1
1
1
1
1
1
1
1
1
1
1
1
1
1
1
1
1
1
1
1
1
1
1
1
1
1
1
1
1
1
1
1
1
1
1
1
1
1
1
1
1
1
1
1
1
1
1
1
1
1
1
1
1
1
1
1
1
1
1
1
1
1
1
1
1
1
1
1
1
1
1
1
1
1
1
1
1
1
1
1
1
1
1
1
1
1
1
1
1
1
1
1
1
1
1
1
1
1
1
1
1
1
1
1
1
1
1
1
1
1
1
1
1
1
1
1
1
1
1
1
1
1
1
1
1
1
1
1
1
1
1
1
1
1
1
1
1
1
1
1
1
1
1
1
1
1
1
1
1
1
1
1
1
1
1
1
1
1
1
1
1
1
1
1
1
1
1
1
1
1
1
1
1
1
1
1
1
1
1
1
1
1
1
1
1
1
1
1
1
1
1
1
1
1
1
1
1
1
1
1
1
1
1
1
1
1
1
1
1
1
1
1
1
0.999997
0.999989
0.999993
1
1
1
1
1
1
1
1
1
1
1
1
1
1
1
1
1
1
1
1
1
1
1
1
1
1
1
1
1
1
1
1
1
1
1
1
1
1
1
1
1
1
1
1
1
1
1
1
1
1
1
1
1
1
1
1
1
1
1
1
1
1
1
1
1
1
1
1
1
1
1
1
1
1
1
1
1
1
1
1
1
1
1
1
1
1
1
1
1
1
1
1
1
1
1
1
1
1
1
1
1
1
1
1
1
1
1
1
1
1
1
1
1
1
1
1
1
1
1
1
1
1
1
1
1
1
1
1
1
1
1
1
1
1
1
1
1
1
1
1
1
1
1
1
1
1
1
1
1
1
1
1
1
1
1
1
1
1
1
1
1
1
1
1
1
1
1
1
1
1
1
1
1
1
1
1
1
1
1
1
1
1
1
1
1
1
1
1
1
1
1
1
1
1
1
1
1
1
1
1
1
1
1
1
1
1
1
1
1
1
1
1
1
1
1
1
1
1
1
1
1
1
1
1
1
1
1
1
1
1
1
1
1
1
1
1
1
1
1
1
1
1
1
1
1
1
1
1
1
1
1
1
1
1
1
1
1
1
1
1
1
1
1
1
1
1
1
1
1
1
1
1
1
1
1
1
1
1
1
1
1
1
1
1
1
1
1
1
1
1
1
1
1
1
1
1
1
1
1
1
1
1
1
1
1
1
0.999779
0.999028
0.998997
0.998132
0.997725
0.997649
0.996421
0.996245
0.996313
0.995374
0.994648
0.994577
0.994555
0.993201
0.992717
0.992352
0.991476
0.99197
0.992016
0.992049
0.992069
0.990918
0.991686
0.991742
0.991984
0.991984
0.99179
0.990706
0.992403
0.992696
0.99456
0.994373
0.994478
0.993311
0.992777
0.975262
0.971742
0.900002
0.884265
0.75906
0.689764
0.509949
0.491274
0.390328
0.377518
0.31776
0.30821
0.265983
0.236828
0.23202
0.206624
0.203086
0.181282
0.178261
0.160126
0.157397
0.14207
0.139242
0.126702
0.122761
0.108554
0.0969995
0.0953054
0.0828315
0.0814722
0.074655
0.0727838
0.0637766
0.0541519
0.0521125
0.048252
0.0477733
0.0417007
0.0402063
0.0311177
0.0337844
0.0342031
0.0370815
0.0373383
0.0386446
0.0389071
0.039929
0.0429123
0.0435104
0.0583185
0.0808806
0.206559
0.4279
0.460718
0.943853
0.942162
0.999824
0.999982
0.999898
0.999998
0.999996
0.999958
0.997524
0.99566
0.963089
0.795662
0.766969
0.579126
0.576029
0.536136
0.551368
0.546129
0.380224
0.305391
0.297006
0.280768
0.281891
0.289331
0.310259
0.312417
0.322152
0.35127
0.35509
0.386492
0.407606
0.413643
0.42479
0.447871
0.452383
0.493943
0.508339
0.585982
0.714701
0.72364
0.77728
0.78691
0.784448
0.804354
0.865949
0.871418
0.899229
0.935927
0.941641
0.970751
0.990578
0.992647
0.999754
1
1
1
1
1
1
1
1
1
1
1
1
1
1
1
1
1
1
1
1
1
1
1
1
1
1
1
1
1
1
1
1
1
1
1
1
1
1
1
1
1
1
1
1
1
1
1
1
1
1
1
1
1
1
1
1
1
1
1
1
1
1
1
1
1
1
1
1
1
1
1
1
1
1
1
1
1
1
1
1
1
1
1
1
1
1
1
1
1
1
1
1
1
1
1
1
1
1
1
1
1
1
1
1
1
1
1
1
1
1
1
1
1
1
1
1
1
1
1
1
1
1
1
1
1
1
1
1
1
1
1
1
1
1
1
1
1
1
1
1
1
1
1
1
1
1
1
1
1
1
1
1
1
1
1
1
1
1
1
1
1
1
1
1
1
1
1
1
1
1
1
1
1
1
1
1
1
1
1
1
1
1
1
1
1
1
1
1
1
1
1
1
1
1
1
1
1
1
1
1
1
1
1
1
1
1
1
1
1
1
1
1
1
1
1
1
1
1
1
1
1
1
1
1
1
1
1
1
1
0.999999
0.999995
0.999993
0.999999
1
1
1
1
1
1
1
1
1
1
1
1
1
1
1
1
1
1
1
1
1
1
1
1
1
1
1
1
1
1
1
1
1
1
1
1
1
1
1
1
1
1
1
1
1
1
1
1
1
1
1
1
1
1
1
1
1
1
1
1
1
1
1
1
1
1
1
1
1
1
1
1
1
1
1
1
1
1
1
1
1
1
1
1
1
1
1
1
1
1
1
1
1
1
1
1
1
1
1
1
1
1
1
1
1
1
1
1
1
1
1
1
1
1
1
1
1
1
1
1
1
1
1
1
1
1
1
1
1
1
1
1
1
1
1
1
1
1
1
1
1
1
1
1
1
1
1
1
1
1
1
1
1
1
1
1
1
1
1
1
1
1
1
1
1
1
1
1
1
1
1
1
1
1
1
1
1
1
1
1
1
1
1
1
1
1
1
1
1
1
1
1
1
1
1
1
1
1
1
1
1
1
1
1
1
1
1
1
1
1
1
1
1
1
1
1
1
1
1
1
1
1
1
1
1
1
1
1
1
1
1
1
1
1
1
1
1
1
1
1
1
1
1
1
1
1
1
1
1
1
1
1
1
1
1
1
1
1
1
1
1
1
1
1
1
1
1
1
1
1
1
1
1
1
1
1
1
1
1
1
1
1
1
1
1
1
1
1
1
1
1
1
1
1
1
1
1
1
1
1
1
1
1
1
1
0.999998
0.998653
0.998624
0.998337
0.997102
0.997239
0.996508
0.995577
0.9959
0.995562
0.994374
0.994519
0.994252
0.994689
0.994342
0.99321
0.992914
0.992287
0.993144
0.992852
0.99279
0.992958
0.993912
0.994323
0.993813
0.993799
0.994074
0.993496
0.994631
0.994815
0.996389
0.996086
0.99617
0.995739
0.995774
0.987199
0.986286
0.930655
0.91681
0.77703
0.741902
0.55846
0.53918
0.424978
0.413241
0.343437
0.335606
0.289678
0.257399
0.250509
0.224695
0.219561
0.197392
0.193608
0.174636
0.171746
0.154915
0.152515
0.138046
0.135397
0.121473
0.107539
0.104822
0.094007
0.0925063
0.0843121
0.0829452
0.0741964
0.0635265
0.0606934
0.0561757
0.055222
0.0474168
0.0456198
0.0335381
0.0339414
0.0339256
0.0358864
0.0361708
0.0377993
0.037863
0.0385359
0.0399939
0.0404184
0.0483743
0.0535834
0.0824306
0.406333
0.450961
0.926822
0.928737
0.999748
0.999981
0.999873
0.999994
0.999984
0.999852
0.995428
0.992607
0.949103
0.769627
0.740841
0.543695
0.5355
0.472494
0.429268
0.423173
0.321162
0.291375
0.287702
0.280606
0.282224
0.289811
0.305188
0.307436
0.324415
0.344393
0.347393
0.372878
0.396371
0.400155
0.423874
0.44985
0.454541
0.498835
0.510873
0.578612
0.65496
0.659336
0.70029
0.710106
0.713801
0.737923
0.819721
0.827334
0.866605
0.915036
0.921461
0.962159
0.988727
0.99085
0.999773
1
1
1
1
1
1
1
1
1
1
1
1
1
1
1
1
1
1
1
1
1
1
1
1
1
1
1
1
1
1
1
1
1
1
1
1
1
1
1
1
1
1
1
1
1
1
1
1
1
1
1
1
1
1
1
1
1
1
1
1
1
1
1
1
1
1
1
1
1
1
1
1
1
1
1
1
1
1
1
1
1
1
1
1
1
1
1
1
1
1
1
1
1
1
1
1
1
1
1
1
1
1
1
1
1
1
1
1
1
1
1
1
1
1
1
1
1
1
1
1
1
1
1
1
1
1
1
1
1
1
1
1
1
1
1
1
1
1
1
1
1
1
1
1
1
1
1
1
1
1
1
1
1
1
1
1
1
1
1
1
1
1
1
1
1
1
1
1
1
1
1
1
1
1
1
1
1
1
1
1
1
1
1
1
1
1
1
1
1
1
1
1
1
1
1
1
1
1
1
1
1
1
1
1
1
1
1
1
1
1
1
1
1
1
1
1
1
1
1
1
1
1
1
1
1
1
1
1
1
0.999997
0.999995
0.999998
0.999997
0.999998
1
1
0.999999
0.999999
1
1
1
1
1
1
1
1
1
1
1
1
1
1
1
1
1
1
1
1
1
1
1
1
1
1
1
1
1
1
1
1
1
1
1
1
1
1
1
1
1
1
1
1
1
1
1
1
1
1
1
1
1
1
1
1
1
1
1
1
1
1
1
1
1
1
1
1
1
1
1
1
1
1
1
1
1
1
1
1
1
1
1
1
1
1
1
1
1
1
1
1
1
1
1
1
1
1
1
1
1
1
1
1
1
1
1
1
1
1
1
1
1
1
1
1
1
1
1
1
1
1
1
1
1
1
1
1
1
1
1
1
1
1
1
1
1
1
1
1
1
1
1
1
1
1
1
1
1
1
1
1
1
1
1
1
1
1
1
1
1
1
1
1
1
1
1
1
1
1
1
1
1
1
1
1
1
1
1
1
1
1
1
1
1
1
1
1
1
1
1
1
1
1
1
1
1
1
1
1
1
1
1
1
1
1
1
1
1
1
1
1
1
1
1
1
1
1
1
1
1
1
1
1
1
1
1
1
1
1
1
1
1
1
1
1
1
1
1
1
1
1
1
1
1
1
1
1
1
1
1
1
1
1
1
1
1
1
1
1
1
1
1
1
1
1
1
1
1
1
1
1
1
1
1
1
1
1
1
1
1
1
1
1
1
1
1
1
1
1
1
1
1
1
1
1
1
1
1
1
1
0.999206
0.999218
0.999145
0.998262
0.998239
0.998145
0.997237
0.99729
0.997066
0.996853
0.996158
0.996136
0.996322
0.996168
0.996219
0.996129
0.995892
0.996135
0.995951
0.996083
0.996286
0.995905
0.996088
0.995765
0.995803
0.995744
0.995431
0.996573
0.997272
0.997718
0.997472
0.997513
0.997424
0.99778
0.996191
0.99502
0.964621
0.955268
0.82678
0.806949
0.619322
0.60024
0.468944
0.458641
0.375071
0.369496
0.314622
0.281415
0.27005
0.245163
0.23768
0.215456
0.210571
0.190868
0.187813
0.169333
0.167672
0.150647
0.149663
0.133138
0.121173
0.117308
0.106655
0.10483
0.0949025
0.0941919
0.0834674
0.0750442
0.071153
0.0656442
0.0641399
0.0551376
0.0533783
0.0391192
0.0354541
0.0345113
0.0348462
0.0350846
0.0365184
0.0363902
0.0374598
0.0377307
0.0380292
0.0440587
0.0488596
0.0862267
0.379527
0.42712
0.909714
0.913663
0.99829
0.999985
0.999916
0.999978
0.99994
0.999571
0.99009
0.985109
0.922815
0.721593
0.694746
0.492749
0.479094
0.412345
0.352812
0.348492
0.301165
0.286221
0.284633
0.281292
0.283063
0.292195
0.307143
0.309374
0.325697
0.3466
0.349667
0.37432
0.397806
0.401543
0.426308
0.454897
0.459738
0.505972
0.517679
0.577727
0.634494
0.640364
0.675756
0.699541
0.705421
0.744717
0.815692
0.823354
0.870893
0.920458
0.926793
0.965908
0.990608
0.992434
0.999799
1
1
1
1
1
1
1
1
1
1
1
1
1
1
1
1
1
1
1
1
1
1
1
1
1
1
1
1
1
1
1
1
1
1
1
1
1
1
1
1
1
1
1
1
1
1
1
1
1
1
1
1
1
1
1
1
1
1
1
1
1
1
1
1
1
1
1
1
1
1
1
1
1
1
1
1
1
1
1
1
1
1
1
1
1
1
1
1
1
1
1
1
1
1
1
1
1
1
1
1
1
1
1
1
1
1
1
1
1
1
1
1
1
1
1
1
1
1
1
1
1
1
1
1
1
1
1
1
1
1
1
1
1
1
1
1
1
1
1
1
1
1
1
1
1
1
1
1
1
1
1
1
1
1
1
1
1
1
1
1
1
1
1
1
1
1
1
1
1
1
1
1
1
1
1
1
1
1
1
1
1
1
1
1
1
1
1
1
1
1
1
1
1
1
1
1
1
1
1
1
1
1
1
1
1
1
1
1
1
1
1
1
1
1
1
1
1
1
1
1
1
1
1
1
1
1
1
1
1
0.999999
0.999997
0.999999
1
1
1
1
1
1
1
1
1
1
1
1
1
1
1
1
1
1
1
1
1
1
1
1
1
1
1
1
1
1
1
1
1
1
1
1
1
1
1
1
1
1
1
1
1
1
1
1
1
1
1
1
1
1
1
1
1
1
1
1
1
1
1
1
1
1
1
1
1
1
1
1
1
1
1
1
1
1
1
1
1
1
1
1
1
1
1
1
1
1
1
1
1
1
1
1
1
1
1
1
1
1
1
1
1
1
1
1
1
1
1
1
1
1
1
1
1
1
1
1
1
1
1
1
1
1
1
1
1
1
1
1
1
1
1
1
1
1
1
1
1
1
1
1
1
1
1
1
1
1
1
1
1
1
1
1
1
1
1
1
1
1
1
1
1
1
1
1
1
1
1
1
1
1
1
1
1
1
1
1
1
1
1
1
1
1
1
1
1
1
1
1
1
1
1
1
1
1
1
1
1
1
1
1
1
1
1
1
1
1
1
1
1
1
1
1
1
1
1
1
1
1
1
1
1
1
1
1
1
1
1
1
1
1
1
1
1
1
1
1
1
1
1
1
1
1
1
1
1
1
1
1
1
1
1
1
1
1
1
1
1
1
1
1
1
1
1
1
1
1
1
1
1
1
1
1
1
1
1
1
1
1
1
1
1
1
1
1
1
1
1
1
1
1
1
1
1
1
1
1
1
1
1
1
1
1
1
0.999431
0.999394
0.999364
0.998809
0.998665
0.998694
0.998113
0.997775
0.997932
0.997983
0.997216
0.997266
0.997269
0.997334
0.997316
0.997047
0.997221
0.997215
0.997239
0.997286
0.997047
0.997126
0.997145
0.997092
0.996995
0.996829
0.996957
0.997665
0.998178
0.998424
0.998319
0.998324
0.998515
0.9989
0.997281
0.996007
0.9708
0.962986
0.845355
0.818517
0.635976
0.608903
0.481283
0.463565
0.384842
0.372396
0.31859
0.28289
0.276403
0.246797
0.242225
0.217216
0.213404
0.192963
0.189506
0.172332
0.168731
0.154487
0.150376
0.135848
0.122057
0.120001
0.107972
0.106133
0.0970102
0.0948222
0.0864245
0.0755464
0.0739843
0.0663722
0.0651793
0.0565772
0.0538701
0.0388657
0.0355374
0.0347913
0.0347486
0.0349875
0.036152
0.03634
0.0372042
0.0376319
0.03785
0.0434447
0.0485847
0.0831374
0.376221
0.421675
0.908619
0.913527
0.998338
0.999983
0.999925
0.999977
0.999941
0.999519
0.989743
0.985067
0.913332
0.720569
0.686806
0.486737
0.477667
0.394122
0.350871
0.346191
0.298567
0.286238
0.284532
0.281459
0.283056
0.292713
0.307227
0.309388
0.325461
0.346622
0.349723
0.374748
0.397768
0.401641
0.426796
0.454917
0.460459
0.506813
0.517592
0.578243
0.634389
0.640266
0.675428
0.699607
0.705355
0.747637
0.815823
0.823406
0.872739
0.920782
0.926934
0.967477
0.990655
0.992462
0.9998
1
1
1
1
1
1
1
1
1
1
1
1
1
1
1
1
1
1
1
1
1
1
1
1
1
1
1
1
1
1
1
1
1
1
1
1
1
1
1
1
1
1
1
1
1
1
1
1
1
1
1
1
1
1
1
1
1
1
1
1
1
1
1
1
1
1
1
1
1
1
1
1
1
1
1
1
1
1
1
1
1
1
1
1
1
1
1
1
1
1
1
1
1
1
1
1
1
1
1
1
1
1
1
1
1
1
1
1
1
1
1
1
1
1
1
1
1
1
1
1
1
1
1
1
1
1
1
1
1
1
1
1
1
1
1
1
1
1
1
1
1
1
1
1
1
1
1
1
1
1
1
1
1
1
1
1
1
1
1
1
1
1
1
1
1
1
1
1
1
1
1
1
1
1
1
1
1
1
1
1
1
1
1
1
1
1
1
1
1
1
1
1
1
1
1
1
1
1
1
1
1
1
1
1
1
1
1
1
1
1
1
1
1
1
1
1
1
1
1
1
1
1
1
1
1
1
1
1
1
1
0.999998
0.999997
0.999999
1
1
1
1
1
1
1
1
1
1
1
1
1
1
1
1
1
1
1
1
1
1
1
1
1
1
1
1
1
1
1
1
1
1
1
1
1
1
1
1
1
1
1
1
1
1
1
1
1
1
1
1
1
1
1
1
1
1
1
1
1
1
1
1
1
1
1
1
1
1
1
1
1
1
1
1
1
1
1
1
1
1
1
1
1
1
1
1
1
1
1
1
1
1
1
1
1
1
1
1
1
1
1
1
1
1
1
1
1
1
1
1
1
1
1
1
1
1
1
1
1
1
1
1
1
1
1
1
1
1
1
1
1
1
1
1
1
1
1
1
1
1
1
1
1
1
1
1
1
1
1
1
1
1
1
1
1
1
1
1
1
1
1
1
1
1
1
1
1
1
1
1
1
1
1
1
1
1
1
1
1
1
1
1
1
1
1
1
1
1
1
1
1
1
1
1
1
1
1
1
1
1
1
1
1
1
1
1
1
1
1
1
1
1
1
1
1
1
1
1
1
1
1
1
1
1
1
1
1
1
1
1
1
1
1
1
1
1
1
1
1
1
1
1
1
1
1
1
1
1
1
1
1
1
1
1
1
1
1
1
1
1
1
1
1
1
1
1
1
1
1
1
1
1
1
1
1
1
1
1
1
1
1
1
1
1
1
1
1
1
1
1
1
1
1
1
1
1
1
1
1
1
1
1
1
1
0.999458
0.999428
0.999396
0.999071
0.998767
0.998738
0.998669
0.997948
0.998083
0.998147
0.997994
0.997495
0.997527
0.997516
0.997531
0.997406
0.997445
0.997479
0.997442
0.997504
0.997347
0.997368
0.997422
0.997334
0.997276
0.997606
0.997784
0.998063
0.998362
0.998616
0.998503
0.998801
0.99895
0.999033
0.998635
0.998328
0.983847
0.978957
0.884134
0.860888
0.689789
0.666605
0.526874
0.511364
0.419076
0.408924
0.349895
0.308679
0.299647
0.26865
0.261333
0.236174
0.231048
0.209821
0.206238
0.187329
0.184712
0.168114
0.16557
0.15121
0.137054
0.133731
0.12207
0.119958
0.109161
0.107782
0.0978907
0.0882128
0.0852484
0.0775431
0.0758484
0.0664153
0.0644025
0.0506271
0.0414016
0.0388495
0.0352435
0.0350365
0.0350323
0.0353496
0.0362471
0.0361206
0.0362116
0.0399085
0.0433339
0.0624235
0.339367
0.384693
0.876437
0.883237
0.998122
0.999977
0.999927
0.999941
0.99984
0.998909
0.980881
0.973119
0.875174
0.655502
0.622155
0.431814
0.420533
0.348979
0.315515
0.312998
0.291731
0.285131
0.284214
0.283698
0.285693
0.295784
0.310349
0.312552
0.329198
0.350057
0.35303
0.377467
0.401557
0.405323
0.432401
0.463721
0.469222
0.516616
0.527026
0.582539
0.635874
0.64156
0.676918
0.70874
0.715541
0.762922
0.829168
0.837026
0.886136
0.934172
0.93996
0.975277
0.993925
0.995104
0.999875
1
1
1
1
1
1
1
1
1
1
1
1
1
1
1
1
1
1
1
1
1
1
1
1
1
1
1
1
1
1
1
1
1
1
1
1
1
1
1
1
1
1
1
1
1
1
1
1
1
1
1
1
1
1
1
1
1
1
1
1
1
1
1
1
1
1
1
1
1
1
1
1
1
1
1
1
1
1
1
1
1
1
1
1
1
1
1
1
1
1
1
1
1
1
1
1
1
1
1
1
1
1
1
1
1
1
1
1
1
1
1
1
1
1
1
1
1
1
1
1
1
1
1
1
1
1
1
1
1
1
1
1
1
1
1
1
1
1
1
1
1
1
1
1
1
1
1
1
1
1
1
1
1
1
1
1
1
1
1
1
1
1
1
1
1
1
1
1
1
1
1
1
1
1
1
1
1
1
1
1
1
1
1
1
1
1
1
1
1
1
1
1
1
1
1
1
1
1
1
1
1
1
1
1
1
1
1
1
1
1
1
1
1
1
1
1
1
1
1
1
1
1
1
1
1
1
1
1
1
1
0.999999
0.999999
0.999999
1
1
1
1
1
1
1
1
1
1
1
1
1
1
1
1
1
1
1
1
1
1
1
1
1
1
1
1
1
1
1
1
1
1
1
1
1
1
1
1
1
1
1
1
1
1
1
1
1
1
1
1
1
1
1
1
1
1
1
1
1
1
1
1
1
1
1
1
1
1
1
1
1
1
1
1
1
1
1
1
1
1
1
1
1
1
1
1
1
1
1
1
1
1
1
1
1
1
1
1
1
1
1
1
1
1
1
1
1
1
1
1
1
1
1
1
1
1
1
1
1
1
1
1
1
1
1
1
1
1
1
1
1
1
1
1
1
1
1
1
1
1
1
1
1
1
1
1
1
1
1
1
1
1
1
1
1
1
1
1
1
1
1
1
1
1
1
1
1
1
1
1
1
1
1
1
1
1
1
1
1
1
1
1
1
1
1
1
1
1
1
1
1
1
1
1
1
1
1
1
1
1
1
1
1
1
1
1
1
1
1
1
1
1
1
1
1
1
1
1
1
1
1
1
1
1
1
1
1
1
1
1
1
1
1
1
1
1
1
1
1
1
1
1
1
1
1
1
1
1
1
1
1
1
1
1
1
1
1
1
1
1
1
1
1
1
1
1
1
1
1
1
1
1
1
1
1
1
1
1
1
1
1
1
1
1
1
1
1
1
1
1
1
1
1
1
1
1
1
1
1
1
1
1
1
1
0.999528
0.999479
0.999478
0.999455
0.998913
0.998907
0.998844
0.998359
0.998315
0.998297
0.998329
0.997758
0.997792
0.997796
0.997723
0.997663
0.997694
0.997726
0.997726
0.997714
0.997648
0.997658
0.997733
0.997937
0.997895
0.998277
0.998149
0.998466
0.998626
0.999031
0.99905
0.99916
0.999146
0.999188
0.998946
0.998771
0.987535
0.982453
0.931224
0.909214
0.712855
0.678542
0.543526
0.518931
0.43222
0.413611
0.358844
0.310981
0.305847
0.270787
0.266683
0.238481
0.234615
0.212515
0.208533
0.190931
0.186247
0.172506
0.166682
0.154317
0.138244
0.136882
0.123788
0.121735
0.111894
0.108754
0.101083
0.0888876
0.0883461
0.0785608
0.0772874
0.0683203
0.0651356
0.0542705
0.041779
0.0403531
0.0354199
0.0351737
0.0348517
0.0352978
0.0359566
0.0360608
0.036097
0.0394471
0.0431096
0.0706513
0.335435
0.376845
0.86612
0.880939
0.997671
0.999925
0.999898
0.999933
0.999842
0.998762
0.980172
0.972812
0.861254
0.65406
0.612643
0.426705
0.419101
0.34139
0.314673
0.31192
0.291264
0.285168
0.284319
0.284117
0.285724
0.296712
0.310571
0.312649
0.330477
0.35017
0.353229
0.378551
0.401611
0.405718
0.433644
0.463821
0.470494
0.517676
0.52697
0.583374
0.635937
0.641471
0.677845
0.709574
0.715739
0.768471
0.829933
0.837335
0.89182
0.934906
0.940319
0.978055
0.994018
0.995156
0.999868
1
1
1
1
1
1
1
1
1
1
1
1
1
1
1
1
1
1
1
1
1
1
1
1
1
1
1
1
1
1
1
1
1
1
1
1
1
1
1
1
1
1
1
1
1
1
1
1
1
1
1
1
1
1
1
1
1
1
1
1
1
1
1
1
1
1
1
1
1
1
1
1
1
1
1
1
1
1
1
1
1
1
1
1
1
1
1
1
1
1
1
1
1
1
1
1
1
1
1
1
1
1
1
1
1
1
1
1
1
1
1
1
1
1
1
1
1
1
1
1
1
1
1
1
1
1
1
1
1
1
1
1
1
1
1
1
1
1
1
1
1
1
1
1
1
1
1
1
1
1
1
1
1
1
1
1
1
1
1
1
1
1
1
1
1
1
1
1
1
1
1
1
1
1
1
1
1
1
1
1
1
1
1
1
1
1
1
1
1
1
1
1
1
1
1
1
1
1
1
1
1
1
1
1
1
1
1
1
1
1
1
1
1
1
1
1
1
1
1
1
1
1
1
1
1
1
1
1
1
1
0.999999
1
0.999999
1
1
1
1
1
1
1
1
1
1
1
1
1
1
1
1
1
1
1
1
1
1
1
1
1
1
1
1
1
1
1
1
1
1
1
1
1
1
1
1
1
1
1
1
1
1
1
1
1
1
1
1
1
1
1
1
1
1
1
1
1
1
1
1
1
1
1
1
1
1
1
1
1
1
1
1
1
1
1
1
1
1
1
1
1
1
1
1
1
1
1
1
1
1
1
1
1
1
1
1
1
1
1
1
1
1
1
1
1
1
1
1
1
1
1
1
1
1
1
1
1
1
1
1
1
1
1
1
1
1
1
1
1
1
1
1
1
1
1
1
1
1
1
1
1
1
1
1
1
1
1
1
1
1
1
1
1
1
1
1
1
1
1
1
1
1
1
1
1
1
1
1
1
1
1
1
1
1
1
1
1
1
1
1
1
1
1
1
1
1
1
1
1
1
1
1
1
1
1
1
1
1
1
1
1
1
1
1
1
1
1
1
1
1
1
1
1
1
1
1
1
1
1
1
1
1
1
1
1
1
1
1
1
1
1
1
1
1
1
1
1
1
1
1
1
1
1
1
1
1
1
1
1
1
1
1
1
1
1
1
1
1
1
1
1
1
1
1
1
1
1
1
1
1
1
1
1
1
1
1
1
1
1
1
1
1
1
1
1
1
1
1
1
1
1
1
1
1
1
1
1
1
1
1
1
1
0.999258
0.999251
0.999297
0.999184
0.998592
0.998453
0.99837
0.998159
0.997629
0.997732
0.997956
0.997536
0.997372
0.997078
0.997002
0.997346
0.996933
0.997242
0.997092
0.997013
0.997332
0.997206
0.99762
0.997715
0.997685
0.998137
0.997874
0.99841
0.998354
0.999048
0.998975
0.998993
0.998932
0.998982
0.998891
0.999065
0.99461
0.991044
0.941476
0.923047
0.760658
0.732875
0.590381
0.570384
0.468014
0.454384
0.386222
0.339196
0.32869
0.294108
0.287124
0.258497
0.253342
0.230061
0.226127
0.206349
0.203026
0.186177
0.182754
0.167874
0.153878
0.151069
0.138697
0.136479
0.125158
0.123189
0.11261
0.102771
0.100319
0.0911914
0.0893669
0.0796822
0.0776132
0.0658853
0.052762
0.04949
0.0408882
0.0398068
0.0355594
0.0357338
0.0354665
0.0352424
0.0352827
0.0374062
0.0401754
0.0553178
0.283076
0.32228
0.81611
0.838021
0.999737
0.999801
0.999813
0.999863
0.999645
0.997576
0.967282
0.95593
0.819883
0.594884
0.557136
0.38964
0.380744
0.319973
0.301845
0.300305
0.289797
0.286255
0.285598
0.288045
0.289974
0.300821
0.315298
0.317463
0.334403
0.355843
0.358811
0.38372
0.409135
0.413083
0.44317
0.476346
0.482386
0.529994
0.539038
0.591485
0.644631
0.650255
0.689904
0.733105
0.740394
0.793971
0.854929
0.862504
0.912903
0.952999
0.957472
0.986218
0.997068
0.997657
0.999963
1
1
1
1
1
1
1
1
1
1
1
1
1
1
1
1
1
1
1
1
1
1
1
1
1
1
1
1
1
1
1
1
1
1
1
1
1
1
1
1
1
1
1
1
1
1
1
1
1
1
1
1
1
1
1
1
1
1
1
1
1
1
1
1
1
1
1
1
1
1
1
1
1
1
1
1
1
1
1
1
1
1
1
1
1
1
1
1
1
1
1
1
1
1
1
1
1
1
1
1
1
1
1
1
1
1
1
1
1
1
1
1
1
1
1
1
1
1
1
1
1
1
1
1
1
1
1
1
1
1
1
1
1
1
1
1
1
1
1
1
1
1
1
1
1
1
1
1
1
1
1
1
1
1
1
1
1
1
1
1
1
1
1
1
1
1
1
1
1
1
1
1
1
1
1
1
1
1
1
1
1
1
1
1
1
1
1
1
1
1
1
1
1
1
1
1
1
1
1
1
1
1
1
1
1
1
1
1
1
1
1
1
1
1
1
1
1
1
1
1
1
1
1
1
1
1
1
1
1
0.999999
0.999999
1
0.999997
0.999997
1
1
0.999998
0.999999
1
1
1
1
1
1
1
1
1
1
1
1
1
1
1
1
1
1
1
1
1
1
1
1
1
1
1
1
1
1
1
1
1
1
1
1
1
1
1
1
1
1
1
1
1
1
1
1
1
1
1
1
1
1
1
1
1
1
1
1
1
1
1
1
1
1
1
1
1
1
1
1
1
1
1
1
1
1
1
1
1
1
1
1
1
1
1
1
1
1
1
1
1
1
1
1
1
1
1
1
1
1
1
1
1
1
1
1
1
1
1
1
1
1
1
1
1
1
1
1
1
1
1
1
1
1
1
1
1
1
1
1
1
1
1
1
1
1
1
1
1
1
1
1
1
1
1
1
1
1
1
1
1
1
1
1
1
1
1
1
1
1
1
1
1
1
1
1
1
1
1
1
1
1
1
1
1
1
1
1
1
1
1
1
1
1
1
1
1
1
1
1
1
1
1
1
1
1
1
1
1
1
1
1
1
1
1
1
1
1
1
1
1
1
1
1
1
1
1
1
1
1
1
1
1
1
1
1
1
1
1
1
1
1
1
1
1
1
1
1
1
1
1
1
1
1
1
1
1
1
1
1
1
1
1
1
1
1
1
1
1
1
1
1
1
1
1
1
1
1
1
1
1
1
1
1
1
1
1
1
1
1
1
1
1
1
1
1
1
1
1
1
1
1
1
1
1
1
1
1
1
0.999551
0.999569
0.999544
0.999511
0.999108
0.998983
0.999004
0.999043
0.998396
0.998518
0.99853
0.99844
0.998283
0.997939
0.998008
0.998093
0.997852
0.998064
0.998216
0.998317
0.998422
0.998365
0.998519
0.998408
0.998434
0.998637
0.998464
0.998896
0.999173
0.999378
0.999314
0.999322
0.999276
0.999323
0.999452
0.999626
0.997566
0.995302
0.961241
0.948654
0.822714
0.801724
0.655194
0.640079
0.518769
0.510003
0.424777
0.375179
0.3571
0.322457
0.310886
0.281858
0.274689
0.250026
0.245947
0.223682
0.22179
0.201387
0.200727
0.181899
0.170731
0.16604
0.154622
0.152249
0.139658
0.139124
0.125605
0.118249
0.113256
0.105425
0.102969
0.0924212
0.0917002
0.0780895
0.0678381
0.0625365
0.0518873
0.049874
0.0404466
0.0411132
0.0367014
0.0358852
0.0357404
0.0364514
0.0381723
0.0573162
0.245168
0.283805
0.757521
0.784797
0.990699
0.999862
0.999856
0.999753
0.99933
0.995685
0.9533
0.937839
0.781387
0.551882
0.517895
0.37085
0.362298
0.313599
0.298592
0.297191
0.290189
0.288487
0.287855
0.293132
0.295574
0.305685
0.321567
0.324039
0.340517
0.36455
0.367452
0.392205
0.422036
0.425318
0.457462
0.495478
0.499726
0.54912
0.55981
0.608701
0.666518
0.675112
0.714833
0.770646
0.780011
0.825822
0.886269
0.893798
0.933383
0.968837
0.972393
0.991701
0.998888
0.999162
0.999992
1
1
1
1
1
1
1
1
1
1
1
1
1
1
1
1
1
1
1
1
1
1
1
1
1
1
1
1
1
1
1
1
1
1
1
1
1
1
1
1
1
1
1
1
1
1
1
1
1
1
1
1
1
1
1
1
1
1
1
1
1
1
1
1
1
1
1
1
1
1
1
1
1
1
1
1
1
1
1
1
1
1
1
1
1
1
1
1
1
1
1
1
1
1
1
1
1
1
1
1
1
1
1
1
1
1
1
1
1
1
1
1
1
1
1
1
1
1
1
1
1
1
1
1
1
1
1
1
1
1
1
1
1
1
1
1
1
1
1
1
1
1
1
1
1
1
1
1
1
1
1
1
1
1
1
1
1
1
1
1
1
1
1
1
1
1
1
1
1
1
1
1
1
1
1
1
1
1
1
1
1
1
1
1
1
1
1
1
1
1
1
1
1
1
1
1
1
1
1
1
1
1
1
1
1
1
1
1
1
1
1
1
1
1
1
1
1
1
1
1
1
1
1
1
1
1
1
1
1
1
1
1
0.999999
0.999999
1
1
1
1
1
1
1
1
1
1
1
1
1
1
1
1
1
1
1
1
1
1
1
1
1
1
1
1
1
1
1
1
1
1
1
1
1
1
1
1
1
1
1
1
1
1
1
1
1
1
1
1
1
1
1
1
1
1
1
1
1
1
1
1
1
1
1
1
1
1
1
1
1
1
1
1
1
1
1
1
1
1
1
1
1
1
1
1
1
1
1
1
1
1
1
1
1
1
1
1
1
1
1
1
1
1
1
1
1
1
1
1
1
1
1
1
1
1
1
1
1
1
1
1
1
1
1
1
1
1
1
1
1
1
1
1
1
1
1
1
1
1
1
1
1
1
1
1
1
1
1
1
1
1
1
1
1
1
1
1
1
1
1
1
1
1
1
1
1
1
1
1
1
1
1
1
1
1
1
1
1
1
1
1
1
1
1
1
1
1
1
1
1
1
1
1
1
1
1
1
1
1
1
1
1
1
1
1
1
1
1
1
1
1
1
1
1
1
1
1
1
1
1
1
1
1
1
1
1
1
1
1
1
1
1
1
1
1
1
1
1
1
1
1
1
1
1
1
1
1
1
1
1
1
1
1
1
1
1
1
1
1
1
1
1
1
1
1
1
1
1
1
1
1
1
1
1
1
1
1
1
1
1
1
1
1
1
1
1
1
1
1
1
1
1
1
1
1
1
1
1
1
1
1
1
0.999668
0.999648
0.999637
0.999622
0.999459
0.999233
0.999221
0.999219
0.99885
0.998846
0.998844
0.998846
0.998884
0.998851
0.99885
0.998828
0.998823
0.998851
0.998843
0.998865
0.998819
0.998839
0.998867
0.998834
0.998802
0.998916
0.998822
0.999243
0.999436
0.99954
0.999512
0.999507
0.999477
0.999679
0.999737
0.999751
0.997781
0.995703
0.967057
0.95471
0.84304
0.815183
0.674934
0.651059
0.533684
0.516856
0.433109
0.379188
0.364604
0.325959
0.31744
0.285269
0.279158
0.253488
0.248861
0.22759
0.223698
0.205781
0.202028
0.186223
0.172339
0.169475
0.156823
0.154391
0.142762
0.140416
0.129289
0.119314
0.116897
0.107025
0.104976
0.0949473
0.0927551
0.0818903
0.0689755
0.0660976
0.053622
0.0513161
0.0420436
0.0415468
0.0371218
0.0359887
0.0358632
0.0364239
0.0381111
0.0474937
0.240799
0.276594
0.746937
0.781685
0.999798
0.999818
0.999817
0.999741
0.999249
0.995477
0.952304
0.937575
0.771068
0.551787
0.513284
0.369779
0.361987
0.31229
0.298578
0.297149
0.290356
0.288609
0.288187
0.29405
0.295753
0.30695
0.322159
0.32434
0.341789
0.365067
0.368124
0.394734
0.422536
0.426783
0.460546
0.495959
0.502574
0.552323
0.560371
0.612929
0.669574
0.67602
0.722528
0.774149
0.78136
0.835417
0.888422
0.89479
0.939285
0.969621
0.972805
0.992907
0.998933
0.999181
0.999992
1
1
1
1
1
1
1
1
1
1
1
1
1
1
1
1
1
1
1
1
1
1
1
1
1
1
1
1
1
1
1
1
1
1
1
1
1
1
1
1
1
1
1
1
1
1
1
1
1
1
1
1
1
1
1
1
1
1
1
1
1
1
1
1
1
1
1
1
1
1
1
1
1
1
1
1
1
1
1
1
1
1
1
1
1
1
1
1
1
1
1
1
1
1
1
1
1
1
1
1
1
1
1
1
1
1
1
1
1
1
1
1
1
1
1
1
1
1
1
1
1
1
1
1
1
1
1
1
1
1
1
1
1
1
1
1
1
1
1
1
1
1
1
1
1
1
1
1
1
1
1
1
1
1
1
1
1
1
1
1
1
1
1
1
1
1
1
1
1
1
1
1
1
1
1
1
1
1
1
1
1
1
1
1
1
1
1
1
1
1
1
1
1
1
1
1
1
1
1
1
1
1
1
1
1
1
1
1
1
1
1
1
1
1
1
1
1
1
1
1
1
1
1
1
1
1
1
1
1
1
1
1
0.999999
0.999999
1
1
1
1
1
1
1
1
1
1
1
1
1
1
1
1
1
1
1
1
1
1
1
1
1
1
1
1
1
1
1
1
1
1
1
1
1
1
1
1
1
1
1
1
1
1
1
1
1
1
1
1
1
1
1
1
1
1
1
1
1
1
1
1
1
1
1
1
1
1
1
1
1
1
1
1
1
1
1
1
1
1
1
1
1
1
1
1
1
1
1
1
1
1
1
1
1
1
1
1
1
1
1
1
1
1
1
1
1
1
1
1
1
1
1
1
1
1
1
1
1
1
1
1
1
1
1
1
1
1
1
1
1
1
1
1
1
1
1
1
1
1
1
1
1
1
1
1
1
1
1
1
1
1
1
1
1
1
1
1
1
1
1
1
1
1
1
1
1
1
1
1
1
1
1
1
1
1
1
1
1
1
1
1
1
1
1
1
1
1
1
1
1
1
1
1
1
1
1
1
1
1
1
1
1
1
1
1
1
1
1
1
1
1
1
1
1
1
1
1
1
1
1
1
1
1
1
1
1
1
1
1
1
1
1
1
1
1
1
1
1
1
1
1
1
1
1
1
1
1
1
1
1
1
1
1
1
1
1
1
1
1
1
1
1
1
1
1
1
1
1
1
1
1
1
1
1
1
1
1
1
1
1
1
1
1
1
1
1
1
1
1
1
1
1
1
1
1
1
1
1
1
1
1
1
0.999662
0.999671
0.999645
0.999626
0.999649
0.999254
0.999257
0.999272
0.999218
0.998941
0.998902
0.998887
0.998972
0.998899
0.998948
0.998934
0.998877
0.998951
0.998892
0.998945
0.998913
0.998878
0.998949
0.99888
0.998895
0.999011
0.998934