/*--------------------------------*- C++ -*----------------------------------*\
| =========                 |                                                 |
| \\      /  F ield         | OpenFOAM: The Open Source CFD Toolbox           |
|  \\    /   O peration     | Version:  v2012                                 |
|   \\  /    A nd           | Website:  www.openfoam.com                      |
|    \\/     M anipulation  |                                                 |
\*---------------------------------------------------------------------------*/
FoamFile
{
    version     2.0;
    format      ascii;
    class       volScalarField;
    location    "1e-06";
    object      alpha.water;
}
// * * * * * * * * * * * * * * * * * * * * * * * * * * * * * * * * * * * * * //

dimensions      [0 0 0 0 0 0 0];


internalField   nonuniform List<scalar> 
102000
(
1
1
1
1
1
1
1
1
1
1
1
1
1
1
1
1
1
1
1
1
1
1
1
1
1
1
1
1
1
1
1
1
1
1
1
1
1
1
1
1
1
1
1
1
1
1
1
1
1
1
1
1
1
1
1
1
1
1
1
1
1
1
1
1
1
1
1
1
1
1
1
1
1
1
1
1
1
1
1
1
1
1
1
1
1
1
1
1
1
1
1
1
1
1
1
1
1
1
1
1
1
1
1
1
1
1
1
1
1
1
1
1
1
1
1
1
1
1
1
1
1
1
1
1
1
1
1
1
1
1
1
1
1
1
1
1
1
1
1
1
1
1
1
1
1
1
1
1
1
1
1
1
1
1
1
1
1
1
1
1
1
1
1
1
1
1
1
1
1
1
1
0.999549
0.998194
0.985535
0.984284
0.971355
0.969423
0.968635
0.952821
0.952817
0.940141
0.910904
0.896729
0.893349
0.89699
0.893669
0.891636
0.891764
0.8904
0.891495
0.887395
0.886076
0.886836
0.886088
0.889371
0.884306
0.882083
0.88369
0.881309
0.873379
0.865968
0.851257
0.835365
0.834042
0.841314
0.844243
0.850624
0.850198
0.823936
0.816147
0.742564
0.725191
0.586227
0.565233
0.434038
0.418675
0.338143
0.327767
0.276873
0.269634
0.230715
0.209388
0.199239
0.182003
0.178295
0.159562
0.156816
0.140632
0.138215
0.124229
0.121141
0.107337
0.105231
0.0926902
0.174802
0.166599
0.418532
0.428443
0.147062
0.152365
0.0489821
0.135308
0.101326
0.372734
0.410472
0.124811
0.125399
0.030375
0.0335684
0.0342594
0.0371457
0.0374797
0.0391418
0.0394629
0.0411348
0.0458735
0.0469926
0.065595
0.0916787
0.194767
0.603462
0.682831
0.990213
0.990119
0.999738
0.999992
0.999783
1
1
1
0.99996
0.99996
0.991383
0.929987
0.914799
0.831021
0.861865
0.873255
0.910904
0.911577
0.813377
0.773426
0.723177
0.696927
0.765817
0.72172
0.742148
0.768488
0.999879
0.779854
0.770309
0.781076
0.819026
0.786088
0.761547
0.8312
0.779426
0.786541
0.839609
0.833204
0.933719
0.946925
0.970811
0.97886
0.977458
0.979324
0.941331
0.949086
0.995821
0.999818
0.99982
0.999997
0.999977
1
1
1
1
1
1
1
1
1
1
1
1
1
1
1
1
1
1
1
1
1
1
1
1
1
1
1
1
1
1
1
1
1
1
1
1
1
1
1
1
1
1
1
1
1
1
1
1
1
1
1
1
1
1
1
1
1
1
1
1
1
1
1
1
1
1
1
1
1
1
1
1
1
1
1
1
1
1
1
1
1
1
1
1
1
1
1
1
1
1
1
1
1
1
1
1
1
1
1
1
1
1
1
1
1
1
1
1
1
1
1
1
1
1
1
1
1
1
1
1
1
1
1
1
1
1
1
1
1
1
1
1
1
1
1
1
1
1
1
1
1
1
1
1
1
1
1
1
1
1
1
1
1
1
1
1
1
1
1
1
1
1
1
1
1
1
1
1
1
1
1
1
1
1
1
1
1
1
1
1
1
1
1
1
1
1
1
1
1
1
1
1
1
1
1
1
1
1
1
1
1
1
1
1
1
1
1
1
1
1
1
1
1
1
1
1
1
1
1
1
1
1
1
1
1
1
1
1
1
1
1
0.999964
0.999918
0.999914
0.999977
0.999992
1
1
0.999998
0.999999
1
1
1
1
1
1
1
1
1
1
1
1
1
1
1
1
1
1
1
1
1
1
1
1
1
1
1
1
1
1
1
1
1
1
1
1
1
1
1
1
1
1
1
1
1
1
1
1
1
1
1
1
1
1
1
1
1
1
1
1
1
1
1
1
1
1
1
1
1
1
1
1
1
1
1
1
1
1
1
1
1
1
1
1
1
1
1
1
1
1
1
1
1
1
1
1
1
1
1
1
1
1
1
1
1
1
1
1
1
1
1
1
1
1
1
1
1
1
1
1
1
1
1
1
1
1
1
1
1
1
1
1
1
1
1
1
1
1
1
1
1
1
1
1
1
1
1
1
1
1
1
1
1
1
1
1
1
1
1
1
1
1
1
1
1
1
1
1
1
1
1
1
1
1
1
1
1
1
1
1
1
1
1
1
1
1
1
1
1
1
1
1
1
1
1
1
1
1
1
1
1
1
1
1
1
1
1
1
1
1
1
1
1
1
1
1
1
1
1
1
1
1
1
1
1
1
1
1
1
1
1
1
1
1
1
1
1
1
1
1
1
1
1
1
1
1
1
1
1
1
1
1
1
1
1
1
1
1
1
1
1
1
1
1
1
1
1
1
1
1
1
1
1
1
1
1
1
1
1
1
1
1
1
1
1
1
1
1
1
1
1
1
1
1
1
1
1
1
1
0.999998
0.996832
0.996374
0.995865
0.992039
0.991146
0.985733
0.985236
0.984102
0.975079
0.970161
0.965058
0.962486
0.955281
0.954051
0.952927
0.951645
0.952077
0.948711
0.949084
0.949092
0.948266
0.948104
0.946371
0.946512
0.946912
0.94556
0.94258
0.937292
0.929155
0.914737
0.917711
0.922278
0.925223
0.928946
0.92901
0.897383
0.892793
0.807942
0.794491
0.629056
0.608775
0.456276
0.442248
0.35269
0.344489
0.288427
0.283287
0.244753
0.21814
0.211586
0.190018
0.18546
0.166483
0.163471
0.146673
0.144499
0.129584
0.127779
0.113192
0.111338
0.0978393
0.0913622
0.0905501
0.316346
0.329692
0.0696307
0.0672883
0.0535991
0.0487167
0.0474353
0.278719
0.305377
0.0392645
0.0380499
0.0303749
0.0337811
0.0343277
0.0373813
0.0376363
0.0391572
0.0395258
0.0410792
0.0449338
0.0455914
0.0603367
0.0745327
0.153574
0.546721
0.604532
0.960992
0.954302
0.999678
0.999984
0.999797
1
1
0.999992
0.99851
0.996987
0.977869
0.855345
0.842789
0.713338
0.701876
0.719673
0.731346
0.734184
0.623787
0.505325
0.520349
0.486018
0.45546
0.522496
0.503363
0.501824
0.361523
0.530659
0.549345
0.591281
0.567045
0.596899
0.600103
0.575795
0.622718
0.63755
0.628751
0.728231
0.83105
0.845827
0.906987
0.906804
0.918645
0.926119
0.918417
0.925616
0.969704
0.977053
0.979323
0.991813
0.997252
0.997611
1
1
1
1
1
1
1
1
1
1
1
1
1
1
1
1
1
1
1
1
1
1
1
1
1
1
1
1
1
1
1
1
1
1
1
1
1
1
1
1
1
1
1
1
1
1
1
1
1
1
1
1
1
1
1
1
1
1
1
1
1
1
1
1
1
1
1
1
1
1
1
1
1
1
1
1
1
1
1
1
1
1
1
1
1
1
1
1
1
1
1
1
1
1
1
1
1
1
1
1
1
1
1
1
1
1
1
1
1
1
1
1
1
1
1
1
1
1
1
1
1
1
1
1
1
1
1
1
1
1
1
1
1
1
1
1
1
1
1
1
1
1
1
1
1
1
1
1
1
1
1
1
1
1
1
1
1
1
1
1
1
1
1
1
1
1
1
1
1
1
1
1
1
1
1
1
1
1
1
1
1
1
1
1
1
1
1
1
1
1
1
1
1
1
1
1
1
1
1
1
1
1
1
1
1
1
1
1
1
1
1
1
1
1
1
1
1
1
1
1
1
1
1
1
1
1
1
1
1
1
0.999993
0.999983
0.999996
0.999999
0.999998
1
1
1
0.999999
1
1
1
1
1
1
1
1
1
1
1
1
1
1
1
1
1
1
1
1
1
1
1
1
1
1
1
1
1
1
1
1
1
1
1
1
1
1
1
1
1
1
1
1
1
1
1
1
1
1
1
1
1
1
1
1
1
1
1
1
1
1
1
1
1
1
1
1
1
1
1
1
1
1
1
1
1
1
1
1
1
1
1
1
1
1
1
1
1
1
1
1
1
1
1
1
1
1
1
1
1
1
1
1
1
1
1
1
1
1
1
1
1
1
1
1
1
1
1
1
1
1
1
1
1
1
1
1
1
1
1
1
1
1
1
1
1
1
1
1
1
1
1
1
1
1
1
1
1
1
1
1
1
1
1
1
1
1
1
1
1
1
1
1
1
1
1
1
1
1
1
1
1
1
1
1
1
1
1
1
1
1
1
1
1
1
1
1
1
1
1
1
1
1
1
1
1
1
1
1
1
1
1
1
1
1
1
1
1
1
1
1
1
1
1
1
1
1
1
1
1
1
1
1
1
1
1
1
1
1
1
1
1
1
1
1
1
1
1
1
1
1
1
1
1
1
1
1
1
1
1
1
1
1
1
1
1
1
1
1
1
1
1
1
1
1
1
1
1
1
1
1
1
1
1
1
1
1
1
1
1
1
1
1
1
1
1
1
1
1
1
1
1
1
1
1
1
1
1
0.999711
0.999376
0.998566
0.998601
0.996756
0.996591
0.996139
0.994173
0.993984
0.993947
0.990578
0.989882
0.989259
0.985429
0.985162
0.984346
0.983432
0.980755
0.979655
0.979319
0.978706
0.978512
0.976189
0.97602
0.976129
0.975928
0.975614
0.973449
0.971705
0.970898
0.970776
0.974074
0.974791
0.975187
0.974477
0.973963
0.95228
0.949553
0.875991
0.864554
0.688501
0.672839
0.499724
0.485268
0.381661
0.374388
0.30969
0.306316
0.26601
0.235982
0.225908
0.205568
0.199425
0.180191
0.176281
0.158778
0.156297
0.139961
0.138594
0.123175
0.122299
0.106154
0.0966079
0.0940636
0.0833879
0.0819084
0.0731974
0.0724081
0.0614037
0.0538946
0.0504461
0.0488184
0.0481757
0.0410873
0.0400185
0.0314906
0.0338053
0.034288
0.0371182
0.0373653
0.0388142
0.0389254
0.0403815
0.043033
0.0437412
0.0589985
0.0816467
0.169164
0.428613
0.462235
0.947586
0.942525
0.999814
0.999983
0.999839
0.999998
0.999993
0.999964
0.997695
0.995613
0.965511
0.795232
0.767734
0.580702
0.576407
0.556104
0.556383
0.551245
0.403765
0.305345
0.297884
0.28076
0.281904
0.289524
0.310673
0.312652
0.338164
0.351641
0.355646
0.393825
0.408056
0.414908
0.425149
0.447925
0.452411
0.493673
0.50855
0.587076
0.719219
0.724866
0.798888
0.791242
0.785955
0.837405
0.868695
0.872549
0.918717
0.937153
0.942226
0.977302
0.990949
0.992866
0.999755
1
1
1
1
1
1
1
1
1
1
1
1
1
1
1
1
1
1
1
1
1
1
1
1
1
1
1
1
1
1
1
1
1
1
1
1
1
1
1
1
1
1
1
1
1
1
1
1
1
1
1
1
1
1
1
1
1
1
1
1
1
1
1
1
1
1
1
1
1
1
1
1
1
1
1
1
1
1
1
1
1
1
1
1
1
1
1
1
1
1
1
1
1
1
1
1
1
1
1
1
1
1
1
1
1
1
1
1
1
1
1
1
1
1
1
1
1
1
1
1
1
1
1
1
1
1
1
1
1
1
1
1
1
1
1
1
1
1
1
1
1
1
1
1
1
1
1
1
1
1
1
1
1
1
1
1
1
1
1
1
1
1
1
1
1
1
1
1
1
1
1
1
1
1
1
1
1
1
1
1
1
1
1
1
1
1
1
1
1
1
1
1
1
1
1
1
1
1
1
1
1
1
1
1
1
1
1
1
1
1
1
1
1
1
1
1
1
1
1
1
1
1
1
1
1
1
1
1
1
0.999997
0.99999
0.999993
1
1
1
1
1
1
1
1
1
1
1
1
1
1
1
1
1
1
1
1
1
1
1
1
1
1
1
1
1
1
1
1
1
1
1
1
1
1
1
1
1
1
1
1
1
1
1
1
1
1
1
1
1
1
1
1
1
1
1
1
1
1
1
1
1
1
1
1
1
1
1
1
1
1
1
1
1
1
1
1
1
1
1
1
1
1
1
1
1
1
1
1
1
1
1
1
1
1
1
1
1
1
1
1
1
1
1
1
1
1
1
1
1
1
1
1
1
1
1
1
1
1
1
1
1
1
1
1
1
1
1
1
1
1
1
1
1
1
1
1
1
1
1
1
1
1
1
1
1
1
1
1
1
1
1
1
1
1
1
1
1
1
1
1
1
1
1
1
1
1
1
1
1
1
1
1
1
1
1
1
1
1
1
1
1
1
1
1
1
1
1
1
1
1
1
1
1
1
1
1
1
1
1
1
1
1
1
1
1
1
1
1
1
1
1
1
1
1
1
1
1
1
1
1
1
1
1
1
1
1
1
1
1
1
1
1
1
1
1
1
1
1
1
1
1
1
1
1
1
1
1
1
1
1
1
1
1
1
1
1
1
1
1
1
1
1
1
1
1
1
1
1
1
1
1
1
1
1
1
1
1
1
1
1
1
1
1
1
1
1
1
1
1
1
1
1
1
1
1
1
1
1
1
1
1
0.999999
0.999787
0.999056
0.999018
0.998182
0.997774
0.997698
0.996506
0.996322
0.99637
0.99546
0.994743
0.994668
0.994512
0.993291
0.99265
0.992226
0.991211
0.991594
0.991561
0.991525
0.991491
0.990222
0.990617
0.990667
0.990563
0.99047
0.989979
0.988456
0.990458
0.991106
0.993024
0.992848
0.992913
0.99168
0.991129
0.973423
0.969499
0.897257
0.880562
0.755943
0.687321
0.509577
0.490188
0.390285
0.376977
0.317685
0.307893
0.266019
0.236712
0.231844
0.206589
0.202969
0.181261
0.178177
0.16011
0.157335
0.142055
0.139197
0.126684
0.12273
0.108554
0.0969845
0.0952802
0.0828284
0.0814586
0.0746462
0.0727713
0.0637727
0.0541479
0.0521045
0.0482479
0.0477687
0.0416984
0.0402023
0.0311165
0.0337815
0.0342007
0.0370779
0.0373352
0.0386409
0.0389037
0.0399268
0.0429084
0.0435081
0.0583154
0.0808784
0.206531
0.42792
0.46078
0.94382
0.942168
0.999811
0.999982
0.999876
0.999998
0.999996
0.999959
0.997538
0.995671
0.963041
0.795623
0.766862
0.579088
0.575952
0.536107
0.551327
0.546055
0.380165
0.305369
0.296978
0.280757
0.281869
0.289329
0.310237
0.312395
0.322159
0.351241
0.355075
0.386486
0.407574
0.413618
0.424788
0.447832
0.452374
0.493915
0.508314
0.586052
0.71463
0.723633
0.777266
0.786863
0.784387
0.804373
0.865876
0.871367
0.89925
0.935881
0.941639
0.971095
0.990771
0.992812
0.999759
1
1
1
1
1
1
1
1
1
1
1
1
1
1
1
1
1
1
1
1
1
1
1
1
1
1
1
1
1
1
1
1
1
1
1
1
1
1
1
1
1
1
1
1
1
1
1
1
1
1
1
1
1
1
1
1
1
1
1
1
1
1
1
1
1
1
1
1
1
1
1
1
1
1
1
1
1
1
1
1
1
1
1
1
1
1
1
1
1
1
1
1
1
1
1
1
1
1
1
1
1
1
1
1
1
1
1
1
1
1
1
1
1
1
1
1
1
1
1
1
1
1
1
1
1
1
1
1
1
1
1
1
1
1
1
1
1
1
1
1
1
1
1
1
1
1
1
1
1
1
1
1
1
1
1
1
1
1
1
1
1
1
1
1
1
1
1
1
1
1
1
1
1
1
1
1
1
1
1
1
1
1
1
1
1
1
1
1
1
1
1
1
1
1
1
1
1
1
1
1
1
1
1
1
1
1
1
1
1
1
1
1
1
1
1
1
1
1
1
1
1
1
1
1
1
1
1
1
1
0.999999
0.999995
0.999993
0.999999
1
1
1
1
1
1
1
1
1
1
1
1
1
1
1
1
1
1
1
1
1
1
1
1
1
1
1
1
1
1
1
1
1
1
1
1
1
1
1
1
1
1
1
1
1
1
1
1
1
1
1
1
1
1
1
1
1
1
1
1
1
1
1
1
1
1
1
1
1
1
1
1
1
1
1
1
1
1
1
1
1
1
1
1
1
1
1
1
1
1
1
1
1
1
1
1
1
1
1
1
1
1
1
1
1
1
1
1
1
1
1
1
1
1
1
1
1
1
1
1
1
1
1
1
1
1
1
1
1
1
1
1
1
1
1
1
1
1
1
1
1
1
1
1
1
1
1
1
1
1
1
1
1
1
1
1
1
1
1
1
1
1
1
1
1
1
1
1
1
1
1
1
1
1
1
1
1
1
1
1
1
1
1
1
1
1
1
1
1
1
1
1
1
1
1
1
1
1
1
1
1
1
1
1
1
1
1
1
1
1
1
1
1
1
1
1
1
1
1
1
1
1
1
1
1
1
1
1
1
1
1
1
1
1
1
1
1
1
1
1
1
1
1
1
1
1
1
1
1
1
1
1
1
1
1
1
1
1
1
1
1
1
1
1
1
1
1
1
1
1
1
1
1
1
1
1
1
1
1
1
1
1
1
1
1
1
1
1
1
1
1
1
1
1
1
1
1
1
1
1
1
1
1
1
1
0.999998
0.998697
0.998653
0.998374
0.997175
0.997295
0.996586
0.995677
0.995985
0.995654
0.994502
0.994631
0.994376
0.994773
0.994437
0.993337
0.993028
0.992443
0.993247
0.992973
0.992912
0.993049
0.993854
0.994267
0.993665
0.993598
0.993832
0.993054
0.994339
0.994571
0.996154
0.995813
0.995896
0.99542
0.995454
0.98674
0.985613
0.928868
0.913765
0.775556
0.738254
0.557303
0.537164
0.424554
0.412202
0.343179
0.334994
0.28958
0.257152
0.250246
0.224564
0.21937
0.197295
0.193454
0.174563
0.171622
0.154859
0.152418
0.138007
0.135322
0.12145
0.107492
0.104769
0.0939652
0.0924585
0.0842878
0.0829121
0.0741838
0.0635058
0.0606732
0.0561537
0.0552016
0.0474077
0.0456073
0.0335357
0.0339382
0.033923
0.035884
0.0361687
0.0377964
0.0378603
0.0385335
0.0399921
0.0404171
0.0483716
0.0535876
0.0824549
0.406322
0.451043
0.926783
0.928743
0.999728
0.999981
0.99985
0.999994
0.999984
0.999854
0.995461
0.992633
0.949039
0.769596
0.740722
0.543675
0.535443
0.472449
0.42928
0.423149
0.321143
0.291358
0.28768
0.280595
0.282203
0.289808
0.305169
0.307422
0.324419
0.34437
0.34738
0.372884
0.396346
0.400142
0.423884
0.449811
0.454544
0.498794
0.510852
0.578653
0.654934
0.659357
0.700319
0.710091
0.713771
0.737966
0.819656
0.827288
0.866634
0.914988
0.921465
0.962439
0.988957
0.991055
0.999779
1
1
1
1
1
1
1
1
1
1
1
1
1
1
1
1
1
1
1
1
1
1
1
1
1
1
1
1
1
1
1
1
1
1
1
1
1
1
1
1
1
1
1
1
1
1
1
1
1
1
1
1
1
1
1
1
1
1
1
1
1
1
1
1
1
1
1
1
1
1
1
1
1
1
1
1
1
1
1
1
1
1
1
1
1
1
1
1
1
1
1
1
1
1
1
1
1
1
1
1
1
1
1
1
1
1
1
1
1
1
1
1
1
1
1
1
1
1
1
1
1
1
1
1
1
1
1
1
1
1
1
1
1
1
1
1
1
1
1
1
1
1
1
1
1
1
1
1
1
1
1
1
1
1
1
1
1
1
1
1
1
1
1
1
1
1
1
1
1
1
1
1
1
1
1
1
1
1
1
1
1
1
1
1
1
1
1
1
1
1
1
1
1
1
1
1
1
1
1
1
1
1
1
1
1
1
1
1
1
1
1
1
1
1
1
1
1
1
1
1
1
1
1
1
1
1
1
1
1
0.999997
0.999995
0.999998
0.999997
0.999998
1
1
0.999999
0.999999
1
1
1
1
1
1
1
1
1
1
1
1
1
1
1
1
1
1
1
1
1
1
1
1
1
1
1
1
1
1
1
1
1
1
1
1
1
1
1
1
1
1
1
1
1
1
1
1
1
1
1
1
1
1
1
1
1
1
1
1
1
1
1
1
1
1
1
1
1
1
1
1
1
1
1
1
1
1
1
1
1
1
1
1
1
1
1
1
1
1
1
1
1
1
1
1
1
1
1
1
1
1
1
1
1
1
1
1
1
1
1
1
1
1
1
1
1
1
1
1
1
1
1
1
1
1
1
1
1
1
1
1
1
1
1
1
1
1
1
1
1
1
1
1
1
1
1
1
1
1
1
1
1
1
1
1
1
1
1
1
1
1
1
1
1
1
1
1
1
1
1
1
1
1
1
1
1
1
1
1
1
1
1
1
1
1
1
1
1
1
1
1
1
1
1
1
1
1
1
1
1
1
1
1
1
1
1
1
1
1
1
1
1
1
1
1
1
1
1
1
1
1
1
1
1
1
1
1
1
1
1
1
1
1
1
1
1
1
1
1
1
1
1
1
1
1
1
1
1
1
1
1
1
1
1
1
1
1
1
1
1
1
1
1
1
1
1
1
1
1
1
1
1
1
1
1
1
1
1
1
1
1
1
1
1
1
1
1
1
1
1
1
1
1
1
1
1
1
1
1
1
0.99923
0.999233
0.999163
0.998305
0.998274
0.998182
0.997296
0.997333
0.997109
0.996875
0.99621
0.996175
0.996371
0.996218
0.996238
0.996154
0.995881
0.996151
0.995967
0.996085
0.996304
0.995953
0.996134
0.99581
0.995844
0.995795
0.995477
0.996583
0.997269
0.997734
0.997494
0.997533
0.99744
0.99778
0.996155
0.994974
0.964753
0.954281
0.824639
0.803813
0.618626
0.598279
0.468829
0.457586
0.374998
0.36887
0.314706
0.281213
0.269805
0.24505
0.237501
0.215382
0.210413
0.190833
0.187689
0.169306
0.167575
0.150626
0.14959
0.133147
0.121135
0.117258
0.10663
0.10479
0.0948881
0.0941609
0.0834646
0.0750282
0.0711336
0.0656298
0.0641237
0.0551319
0.0533664
0.0391192
0.0354499
0.0345077
0.0348433
0.035082
0.0365156
0.0363877
0.0374571
0.0377281
0.0380276
0.0440566
0.0488601
0.0862673
0.379518
0.427202
0.909692
0.913681
0.998285
0.999985
0.999899
0.999979
0.99994
0.999578
0.9901
0.985115
0.92274
0.72158
0.694635
0.492737
0.479041
0.412286
0.352804
0.348462
0.301145
0.286206
0.284614
0.281279
0.283046
0.292196
0.307123
0.30936
0.325707
0.346574
0.349654
0.37433
0.397775
0.401528
0.426324
0.454859
0.459749
0.505927
0.517661
0.577754
0.63445
0.64035
0.675767
0.699508
0.705389
0.744756
0.815622
0.82332
0.870929
0.9204
0.926797
0.966195
0.9908
0.992604
0.999804
1
1
1
1
1
1
1
1
1
1
1
1
1
1
1
1
1
1
1
1
1
1
1
1
1
1
1
1
1
1
1
1
1
1
1
1
1
1
1
1
1
1
1
1
1
1
1
1
1
1
1
1
1
1
1
1
1
1
1
1
1
1
1
1
1
1
1
1
1
1
1
1
1
1
1
1
1
1
1
1
1
1
1
1
1
1
1
1
1
1
1
1
1
1
1
1
1
1
1
1
1
1
1
1
1
1
1
1
1
1
1
1
1
1
1
1
1
1
1
1
1
1
1
1
1
1
1
1
1
1
1
1
1
1
1
1
1
1
1
1
1
1
1
1
1
1
1
1
1
1
1
1
1
1
1
1
1
1
1
1
1
1
1
1
1
1
1
1
1
1
1
1
1
1
1
1
1
1
1
1
1
1
1
1
1
1
1
1
1
1
1
1
1
1
1
1
1
1
1
1
1
1
1
1
1
1
1
1
1
1
1
1
1
1
1
1
1
1
1
1
1
1
1
1
1
1
1
1
1
0.999999
0.999997
0.999999
1
1
1
1
1
1
1
1
1
1
1
1
1
1
1
1
1
1
1
1
1
1
1
1
1
1
1
1
1
1
1
1
1
1
1
1
1
1
1
1
1
1
1
1
1
1
1
1
1
1
1
1
1
1
1
1
1
1
1
1
1
1
1
1
1
1
1
1
1
1
1
1
1
1
1
1
1
1
1
1
1
1
1
1
1
1
1
1
1
1
1
1
1
1
1
1
1
1
1
1
1
1
1
1
1
1
1
1
1
1
1
1
1
1
1
1
1
1
1
1
1
1
1
1
1
1
1
1
1
1
1
1
1
1
1
1
1
1
1
1
1
1
1
1
1
1
1
1
1
1
1
1
1
1
1
1
1
1
1
1
1
1
1
1
1
1
1
1
1
1
1
1
1
1
1
1
1
1
1
1
1
1
1
1
1
1
1
1
1
1
1
1
1
1
1
1
1
1
1
1
1
1
1
1
1
1
1
1
1
1
1
1
1
1
1
1
1
1
1
1
1
1
1
1
1
1
1
1
1
1
1
1
1
1
1
1
1
1
1
1
1
1
1
1
1
1
1
1
1
1
1
1
1
1
1
1
1
1
1
1
1
1
1
1
1
1
1
1
1
1
1
1
1
1
1
1
1
1
1
1
1
1
1
1
1
1
1
1
1
1
1
1
1
1
1
1
1
1
1
1
1
1
1
1
1
1
1
0.99945
0.999407
0.999378
0.99884
0.998692
0.99872
0.998158
0.99782
0.997969
0.998018
0.997268
0.997313
0.997317
0.997378
0.997363
0.997101
0.997265
0.997262
0.997284
0.997331
0.997101
0.99717
0.997189
0.997136
0.997042
0.996873
0.996986
0.997686
0.998202
0.998446
0.998343
0.998343
0.998525
0.998908
0.997335
0.996075
0.971482
0.963548
0.844742
0.816707
0.63607
0.607656
0.481306
0.462858
0.384815
0.371967
0.318667
0.282746
0.276158
0.24676
0.242055
0.217197
0.213281
0.192948
0.189416
0.172318
0.168665
0.154466
0.15033
0.135852
0.12204
0.119959
0.107969
0.106106
0.0970024
0.0948015
0.0864182
0.0755411
0.0739672
0.0663691
0.0651692
0.0565749
0.0538638
0.0388693
0.0355346
0.0347881
0.0347455
0.0349845
0.036149
0.0363371
0.0372016
0.0376289
0.0378483
0.0434428
0.048585
0.0831691
0.376181
0.421716
0.908593
0.91354
0.998332
0.999983
0.99991
0.999977
0.999941
0.999527
0.989738
0.985066
0.913262
0.72053
0.686671
0.486716
0.477596
0.394075
0.350851
0.346144
0.298551
0.286222
0.284514
0.281446
0.28304
0.292714
0.307206
0.309375
0.325471
0.346596
0.349711
0.374757
0.397738
0.401627
0.426807
0.454885
0.460473
0.506766
0.517577
0.578276
0.634339
0.640252
0.675436
0.699571
0.705327
0.747677
0.815759
0.823381
0.872771
0.920737
0.926952
0.967779
0.990846
0.992631
0.999805
1
1
1
1
1
1
1
1
1
1
1
1
1
1
1
1
1
1
1
1
1
1
1
1
1
1
1
1
1
1
1
1
1
1
1
1
1
1
1
1
1
1
1
1
1
1
1
1
1
1
1
1
1
1
1
1
1
1
1
1
1
1
1
1
1
1
1
1
1
1
1
1
1
1
1
1
1
1
1
1
1
1
1
1
1
1
1
1
1
1
1
1
1
1
1
1
1
1
1
1
1
1
1
1
1
1
1
1
1
1
1
1
1
1
1
1
1
1
1
1
1
1
1
1
1
1
1
1
1
1
1
1
1
1
1
1
1
1
1
1
1
1
1
1
1
1
1
1
1
1
1
1
1
1
1
1
1
1
1
1
1
1
1
1
1
1
1
1
1
1
1
1
1
1
1
1
1
1
1
1
1
1
1
1
1
1
1
1
1
1
1
1
1
1
1
1
1
1
1
1
1
1
1
1
1
1
1
1
1
1
1
1
1
1
1
1
1
1
1
1
1
1
1
1
1
1
1
1
1
1
0.999998
0.999997
0.999999
1
1
1
1
1
1
1
1
1
1
1
1
1
1
1
1
1
1
1
1
1
1
1
1
1
1
1
1
1
1
1
1
1
1
1
1
1
1
1
1
1
1
1
1
1
1
1
1
1
1
1
1
1
1
1
1
1
1
1
1
1
1
1
1
1
1
1
1
1
1
1
1
1
1
1
1
1
1
1
1
1
1
1
1
1
1
1
1
1
1
1
1
1
1
1
1
1
1
1
1
1
1
1
1
1
1
1
1
1
1
1
1
1
1
1
1
1
1
1
1
1
1
1
1
1
1
1
1
1
1
1
1
1
1
1
1
1
1
1
1
1
1
1
1
1
1
1
1
1
1
1
1
1
1
1
1
1
1
1
1
1
1
1
1
1
1
1
1
1
1
1
1
1
1
1
1
1
1
1
1
1
1
1
1
1
1
1
1
1
1
1
1
1
1
1
1
1
1
1
1
1
1
1
1
1
1
1
1
1
1
1
1
1
1
1
1
1
1
1
1
1
1
1
1
1
1
1
1
1
1
1
1
1
1
1
1
1
1
1
1
1
1
1
1
1
1
1
1
1
1
1
1
1
1
1
1
1
1
1
1
1
1
1
1
1
1
1
1
1
1
1
1
1
1
1
1
1
1
1
1
1
1
1
1
1
1
1
1
1
1
1
1
1
1
1
1
1
1
1
1
1
1
1
1
1
1
0.999476
0.99944
0.999409
0.999095
0.998794
0.998765
0.998696
0.997996
0.99812
0.998184
0.998034
0.997548
0.997575
0.997567
0.99758
0.997457
0.997494
0.99753
0.997494
0.997552
0.997398
0.997418
0.99747
0.997389
0.997326
0.997644
0.997815
0.998092
0.99839
0.998639
0.99853
0.998818
0.998964
0.999052
0.998644
0.998306
0.984036
0.978965
0.882568
0.857837
0.688388
0.664227
0.526413
0.509897
0.41882
0.408025
0.349846
0.308357
0.29926
0.268498
0.261061
0.236054
0.230819
0.209742
0.206055
0.187266
0.184565
0.168067
0.165453
0.151188
0.136988
0.133644
0.122026
0.119888
0.109129
0.107727
0.0978767
0.088181
0.0852127
0.0775178
0.0758176
0.0664013
0.0643778
0.0506192
0.0413928
0.0388406
0.0352404
0.0350333
0.0350298
0.0353475
0.0362447
0.0361188
0.0362101
0.0399071
0.0433347
0.0624811
0.339346
0.384771
0.876417
0.883268
0.998113
0.999976
0.999912
0.999942
0.999842
0.998927
0.980881
0.973119
0.875086
0.655524
0.622064
0.431828
0.420497
0.348943
0.315515
0.312986
0.29172
0.285116
0.284198
0.283683
0.285678
0.295786
0.310327
0.312538
0.329207
0.350029
0.353016
0.377477
0.401524
0.405307
0.432419
0.463677
0.469232
0.516561
0.527003
0.58257
0.635821
0.64154
0.676939
0.708681
0.715506
0.762957
0.829093
0.836992
0.886168
0.934114
0.939972
0.975799
0.99405
0.995215
0.999878
1
1
1
1
1
1
1
1
1
1
1
1
1
1
1
1
1
1
1
1
1
1
1
1
1
1
1
1
1
1
1
1
1
1
1
1
1
1
1
1
1
1
1
1
1
1
1
1
1
1
1
1
1
1
1
1
1
1
1
1
1
1
1
1
1
1
1
1
1
1
1
1
1
1
1
1
1
1
1
1
1
1
1
1
1
1
1
1
1
1
1
1
1
1
1
1
1
1
1
1
1
1
1
1
1
1
1
1
1
1
1
1
1
1
1
1
1
1
1
1
1
1
1
1
1
1
1
1
1
1
1
1
1
1
1
1
1
1
1
1
1
1
1
1
1
1
1
1
1
1
1
1
1
1
1
1
1
1
1
1
1
1
1
1
1
1
1
1
1
1
1
1
1
1
1
1
1
1
1
1
1
1
1
1
1
1
1
1
1
1
1
1
1
1
1
1
1
1
1
1
1
1
1
1
1
1
1
1
1
1
1
1
1
1
1
1
1
1
1
1
1
1
1
1
1
1
1
1
1
1
0.999999
0.999999
0.999999
1
1
1
1
1
1
1
1
1
1
1
1
1
1
1
1
1
1
1
1
1
1
1
1
1
1
1
1
1
1
1
1
1
1
1
1
1
1
1
1
1
1
1
1
1
1
1
1
1
1
1
1
1
1
1
1
1
1
1
1
1
1
1
1
1
1
1
1
1
1
1
1
1
1
1
1
1
1
1
1
1
1
1
1
1
1
1
1
1
1
1
1
1
1
1
1
1
1
1
1
1
1
1
1
1
1
1
1
1
1
1
1
1
1
1
1
1
1
1
1
1
1
1
1
1
1
1
1
1
1
1
1
1
1
1
1
1
1
1
1
1
1
1
1
1
1
1
1
1
1
1
1
1
1
1
1
1
1
1
1
1
1
1
1
1
1
1
1
1
1
1
1
1
1
1
1
1
1
1
1
1
1
1
1
1
1
1
1
1
1
1
1
1
1
1
1
1
1
1
1
1
1
1
1
1
1
1
1
1
1
1
1
1
1
1
1
1
1
1
1
1
1
1
1
1
1
1
1
1
1
1
1
1
1
1
1
1
1
1
1
1
1
1
1
1
1
1
1
1
1
1
1
1
1
1
1
1
1
1
1
1
1
1
1
1
1
1
1
1
1
1
1
1
1
1
1
1
1
1
1
1
1
1
1
1
1
1
1
1
1
1
1
1
1
1
1
1
1
1
1
1
1
1
1
1
1
0.999544
0.999489
0.999489
0.999466
0.998942
0.99893
0.998868
0.998396
0.998349
0.998332
0.998359
0.997807
0.997836
0.997837
0.99777
0.99771
0.997739
0.997768
0.997768
0.99776
0.997694
0.997704
0.997776
0.997965
0.997929
0.998294
0.998186
0.998489
0.99865
0.999042
0.99906
0.999168
0.999162
0.999201
0.99897
0.998786
0.987835
0.982732
0.932066
0.907463
0.713125
0.677169
0.543473
0.518079
0.432165
0.413105
0.358846
0.310848
0.305545
0.270771
0.266467
0.23847
0.234461
0.212502
0.208422
0.190911
0.186167
0.172471
0.16663
0.15431
0.138229
0.136825
0.123787
0.121699
0.111886
0.108728
0.101072
0.0888819
0.0883197
0.0785612
0.0772725
0.0683171
0.0651268
0.0542696
0.0417799
0.040347
0.035418
0.0351704
0.0348489
0.035295
0.0359541
0.0360581
0.036095
0.0394453
0.04311
0.0706952
0.335386
0.376897
0.866082
0.880948
0.997658
0.999913
0.999879
0.999935
0.999844
0.99878
0.980165
0.972805
0.861167
0.654026
0.612503
0.426694
0.419036
0.341354
0.314657
0.311891
0.291251
0.285152
0.284304
0.284102
0.28571
0.296712
0.310552
0.312637
0.330482
0.350145
0.353216
0.378557
0.401583
0.405705
0.433655
0.463785
0.470506
0.517624
0.52695
0.583405
0.635883
0.641449
0.677857
0.709522
0.715711
0.768499
0.829871
0.837311
0.891845
0.934859
0.940344
0.978527
0.994142
0.995266
0.999871
1
1
1
1
1
1
1
1
1
1
1
1
1
1
1
1
1
1
1
1
1
1
1
1
1
1
1
1
1
1
1
1
1
1
1
1
1
1
1
1
1
1
1
1
1
1
1
1
1
1
1
1
1
1
1
1
1
1
1
1
1
1
1
1
1
1
1
1
1
1
1
1
1
1
1
1
1
1
1
1
1
1
1
1
1
1
1
1
1
1
1
1
1
1
1
1
1
1
1
1
1
1
1
1
1
1
1
1
1
1
1
1
1
1
1
1
1
1
1
1
1
1
1
1
1
1
1
1
1
1
1
1
1
1
1
1
1
1
1
1
1
1
1
1
1
1
1
1
1
1
1
1
1
1
1
1
1
1
1
1
1
1
1
1
1
1
1
1
1
1
1
1
1
1
1
1
1
1
1
1
1
1
1
1
1
1
1
1
1
1
1
1
1
1
1
1
1
1
1
1
1
1
1
1
1
1
1
1
1
1
1
1
1
1
1
1
1
1
1
1
1
1
1
1
1
1
1
1
1
1
0.999999
1
0.999999
1
1
1
1
1
1
1
1
1
1
1
1
1
1
1
1
1
1
1
1
1
1
1
1
1
1
1
1
1
1
1
1
1
1
1
1
1
1
1
1
1
1
1
1
1
1
1
1
1
1
1
1
1
1
1
1
1
1
1
1
1
1
1
1
1
1
1
1
1
1
1
1
1
1
1
1
1
1
1
1
1
1
1
1
1
1
1
1
1
1
1
1
1
1
1
1
1
1
1
1
1
1
1
1
1
1
1
1
1
1
1
1
1
1
1
1
1
1
1
1
1
1
1
1
1
1
1
1
1
1
1
1
1
1
1
1
1
1
1
1
1
1
1
1
1
1
1
1
1
1
1
1
1
1
1
1
1
1
1
1
1
1
1
1
1
1
1
1
1
1
1
1
1
1
1
1
1
1
1
1
1
1
1
1
1
1
1
1
1
1
1
1
1
1
1
1
1
1
1
1
1
1
1
1
1
1
1
1
1
1
1
1
1
1
1
1
1
1
1
1
1
1
1
1
1
1
1
1
1
1
1
1
1
1
1
1
1
1
1
1
1
1
1
1
1
1
1
1
1
1
1
1
1
1
1
1
1
1
1
1
1
1
1
1
1
1
1
1
1
1
1
1
1
1
1
1
1
1
1
1
1
1
1
1
1
1
1
1
1
1
1
1
1
1
1
1
1
1
1
1
1
1
1
1
1
1
0.999285
0.999267
0.999312
0.999204
0.998628
0.998487
0.998407
0.9982
0.99769
0.997784
0.998002
0.997594
0.997434
0.997151
0.997077
0.997403
0.997013
0.997306
0.997165
0.997089
0.99739
0.997274
0.997668
0.997767
0.997738
0.998175
0.997927
0.99844
0.998395
0.999061
0.998998
0.999018
0.998959
0.999007
0.998917
0.999076
0.994632
0.991045
0.942855
0.924144
0.759167
0.729932
0.589157
0.568271
0.467357
0.453068
0.386042
0.338652
0.328176
0.2938
0.28674
0.258276
0.253033
0.229894
0.225873
0.206224
0.202816
0.18609
0.182582
0.167822
0.153759
0.150946
0.13861
0.13637
0.125091
0.123095
0.112577
0.102706
0.10026
0.0911419
0.0893127
0.0796495
0.0775665
0.0658709
0.0527348
0.0494655
0.0408758
0.0397933
0.0355569
0.0357304
0.0354641
0.0352404
0.0352808
0.037405
0.0401758
0.0553735
0.28303
0.322366
0.81608
0.838066
0.999711
0.999772
0.999784
0.999866
0.99965
0.997597
0.967276
0.955911
0.819774
0.594931
0.557068
0.389661
0.380715
0.319954
0.30184
0.300291
0.289786
0.286238
0.285582
0.288027
0.289957
0.30082
0.315273
0.317445
0.334408
0.35581
0.358791
0.383724
0.409095
0.413061
0.443174
0.47629
0.482377
0.529929
0.538998
0.591498
0.644562
0.650214
0.689908
0.733012
0.740325
0.793971
0.854825
0.862435
0.912903
0.952922
0.957468
0.986526
0.997129
0.99771
0.999964
1
1
1
1
1
1
1
1
1
1
1
1
1
1
1
1
1
1
1
1
1
1
1
1
1
1
1
1
1
1
1
1
1
1
1
1
1
1
1
1
1
1
1
1
1
1
1
1
1
1
1
1
1
1
1
1
1
1
1
1
1
1
1
1
1
1
1
1
1
1
1
1
1
1
1
1
1
1
1
1
1
1
1
1
1
1
1
1
1
1
1
1
1
1
1
1
1
1
1
1
1
1
1
1
1
1
1
1
1
1
1
1
1
1
1
1
1
1
1
1
1
1
1
1
1
1
1
1
1
1
1
1
1
1
1
1
1
1
1
1
1
1
1
1
1
1
1
1
1
1
1
1
1
1
1
1
1
1
1
1
1
1
1
1
1
1
1
1
1
1
1
1
1
1
1
1
1
1
1
1
1
1
1
1
1
1
1
1
1
1
1
1
1
1
1
1
1
1
1
1
1
1
1
1
1
1
1
1
1
1
1
1
1
1
1
1
1
1
1
1
1
1
1
1
1
1
1
1
1
0.999999
0.999999
1
0.999997
0.999997
1
1
0.999998
0.999999
1
1
1
1
1
1
1
1
1
1
1
1
1
1
1
1
1
1
1
1
1
1
1
1
1
1
1
1
1
1
1
1
1
1
1
1
1
1
1
1
1
1
1
1
1
1
1
1
1
1
1
1
1
1
1
1
1
1
1
1
1
1
1
1
1
1
1
1
1
1
1
1
1
1
1
1
1
1
1
1
1
1
1
1
1
1
1
1
1
1
1
1
1
1
1
1
1
1
1
1
1
1
1
1
1
1
1
1
1
1
1
1
1
1
1
1
1
1
1
1
1
1
1
1
1
1
1
1
1
1
1
1
1
1
1
1
1
1
1
1
1
1
1
1
1
1
1
1
1
1
1
1
1
1
1
1
1
1
1
1
1
1
1
1
1
1
1
1
1
1
1
1
1
1
1
1
1
1
1
1
1
1
1
1
1
1
1
1
1
1
1
1
1
1
1
1
1
1
1
1
1
1
1
1
1
1
1
1
1
1
1
1
1
1
1
1
1
1
1
1
1
1
1
1
1
1
1
1
1
1
1
1
1
1
1
1
1
1
1
1
1
1
1
1
1
1
1
1
1
1
1
1
1
1
1
1
1
1
1
1
1
1
1
1
1
1
1
1
1
1
1
1
1
1
1
1
1
1
1
1
1
1
1
1
1
1
1
1
1
1
1
1
1
1
1
1
1
1
1
1
1
0.999564
0.999577
0.999553
0.999521
0.999129
0.999003
0.999021
0.999056
0.998426
0.998536
0.998552
0.998459
0.998303
0.997965
0.998026
0.998114
0.997876
0.998081
0.998225
0.998321
0.998429
0.998371
0.998526
0.998423
0.998446
0.998649
0.99848
0.998898
0.999166
0.999381
0.999319
0.999326
0.999281
0.999325
0.999446
0.99962
0.997621
0.995311
0.961986
0.948942
0.821503
0.799188
0.654393
0.638069
0.51846
0.508722
0.42487
0.374772
0.356655
0.32223
0.310555
0.281703
0.274416
0.249928
0.245715
0.223625
0.221605
0.201342
0.20058
0.18191
0.170649
0.165945
0.154564
0.152158
0.139623
0.139046
0.125599
0.118205
0.113211
0.105392
0.102925
0.0924042
0.0916631
0.0780909
0.0678197
0.0625148
0.0518761
0.0498567
0.0404424
0.0411024
0.0366994
0.0358818
0.0357374
0.0364493
0.0381719
0.057356
0.245145
0.283913
0.757525
0.784858
0.9907
0.99984
0.999832
0.999758
0.999338
0.995688
0.953299
0.937822
0.781282
0.551904
0.517783
0.370858
0.362251
0.313574
0.298581
0.297171
0.290181
0.288471
0.287842
0.293116
0.295558
0.305689
0.321542
0.324023
0.340529
0.364516
0.367432
0.39222
0.421994
0.425296
0.457482
0.495421
0.499729
0.549052
0.559771
0.60873
0.666447
0.675064
0.714862
0.770562
0.779956
0.825844
0.886187
0.893752
0.933399
0.968786
0.972414
0.991889
0.998912
0.999181
0.999992
1
1
1
1
1
1
1
1
1
1
1
1
1
1
1
1
1
1
1
1
1
1
1
1
1
1
1
1
1
1
1
1
1
1
1
1
1
1
1
1
1
1
1
1
1
1
1
1
1
1
1
1
1
1
1
1
1
1
1
1
1
1
1
1
1
1
1
1
1
1
1
1
1
1
1
1
1
1
1
1
1
1
1
1
1
1
1
1
1
1
1
1
1
1
1
1
1
1
1
1
1
1
1
1
1
1
1
1
1
1
1
1
1
1
1
1
1
1
1
1
1
1
1
1
1
1
1
1
1
1
1
1
1
1
1
1
1
1
1
1
1
1
1
1
1
1
1
1
1
1
1
1
1
1
1
1
1
1
1
1
1
1
1
1
1
1
1
1
1
1
1
1
1
1
1
1
1
1
1
1
1
1
1
1
1
1
1
1
1
1
1
1
1
1
1
1
1
1
1
1
1
1
1
1
1
1
1
1
1
1
1
1
1
1
1
1
1
1
1
1
1
1
1
1
1
1
1
1
1
1
1
1
0.999999
0.999999
1
1
1
1
1
1
1
1
1
1
1
1
1
1
1
1
1
1
1
1
1
1
1
1
1
1
1
1
1
1
1
1
1
1
1
1
1
1
1
1
1
1
1
1
1
1
1
1
1
1
1
1
1
1
1
1
1
1
1
1
1
1
1
1
1
1
1
1
1
1
1
1
1
1
1
1
1
1
1
1
1
1
1
1
1
1
1
1
1
1
1
1
1
1
1
1
1
1
1
1
1
1
1
1
1
1
1
1
1
1
1
1
1
1
1
1
1
1
1
1
1
1
1
1
1
1
1
1
1
1
1
1
1
1
1
1
1
1
1
1
1
1
1
1
1
1
1
1
1
1
1
1
1
1
1
1
1
1
1
1
1
1
1
1
1
1
1
1
1
1
1
1
1
1
1
1
1
1
1
1
1
1
1
1
1
1
1
1
1
1
1
1
1
1
1
1
1
1
1
1
1
1
1
1
1
1
1
1
1
1
1
1
1
1
1
1
1
1
1
1
1
1
1
1
1
1
1
1
1
1
1
1
1
1
1
1
1
1
1
1
1
1
1
1
1
1
1
1
1
1
1
1
1
1
1
1
1
1
1
1
1
1
1
1
1
1
1
1
1
1
1
1
1
1
1
1
1
1
1
1
1
1
1
1
1
1
1
1
1
1
1
1
1
1
1
1
1
1
1
1
1
1
1
1
1
0.99968
0.999655
0.999644
0.99963
0.999472
0.999251
0.999237
0.999234
0.998874
0.998868
0.998866
0.998868
0.998903
0.998869
0.998868
0.998845
0.998838
0.998867
0.998863
0.998885
0.998841
0.99886
0.998887
0.998854
0.998823
0.998934
0.998842
0.999248
0.999444
0.999548
0.99952
0.999516
0.999485
0.999679
0.99974
0.999755
0.99785
0.995798
0.967913
0.955497
0.843285
0.814008
0.674867
0.649946
0.533734
0.516109
0.433301
0.379011
0.36425
0.325902
0.317166
0.285245
0.278955
0.253469
0.248708
0.227575
0.223582
0.205764
0.201942
0.186231
0.172307
0.169399
0.156811
0.154333
0.142752
0.14037
0.129286
0.119298
0.116858
0.107022
0.10495
0.0949465
0.0927358
0.0818918
0.0689773
0.0660825
0.0536283
0.0513087
0.0420456
0.0415422
0.0371211
0.035986
0.0358606
0.0364216
0.0381096
0.0475407
0.240765
0.276696
0.746909
0.781736
0.999784
0.99979
0.999788
0.999747
0.999245
0.995463
0.952292
0.93755
0.770968
0.551818
0.513184
0.369791
0.361934
0.31227
0.298568
0.29713
0.290348
0.288594
0.288176
0.294035
0.29574
0.306952
0.322138
0.324327
0.341799
0.365041
0.368112
0.394746
0.422507
0.426773
0.460563
0.495922
0.502583
0.552275
0.560351
0.612965
0.669528
0.676002
0.722561
0.7741
0.781343
0.835447
0.888374
0.894777
0.939305
0.969589
0.972851
0.993066
0.998955
0.9992
0.999992
1
1
1
1
1
1
1
1
1
1
1
1
1
1
1
1
1
1
1
1
1
1
1
1
1
1
1
1
1
1
1
1
1
1
1
1
1
1
1
1
1
1
1
1
1
1
1
1
1
1
1
1
1
1
1
1
1
1
1
1
1
1
1
1
1
1
1
1
1
1
1
1
1
1
1
1
1
1
1
1
1
1
1
1
1
1
1
1
1
1
1
1
1
1
1
1
1
1
1
1
1
1
1
1
1
1
1
1
1
1
1
1
1
1
1
1
1
1
1
1
1
1
1
1
1
1
1
1
1
1
1
1
1
1
1
1
1
1
1
1
1
1
1
1
1
1
1
1
1
1
1
1
1
1
1
1
1
1
1
1
1
1
1
1
1
1
1
1
1
1
1
1
1
1
1
1
1
1
1
1
1
1
1
1
1
1
1
1
1
1
1
1
1
1
1
1
1
1
1
1
1
1
1
1
1
1
1
1
1
1
1
1
1
1
1
1
1
1
1
1
1
1
1
1
1
1
1
1
1
1
1
1
0.999999
0.999999
1
1
1
1
1
1
1
1
1
1
1
1
1
1
1
1
1
1
1
1
1
1
1
1
1
1
1
1
1
1
1
1
1
1
1
1
1
1
1
1
1
1
1
1
1
1
1
1
1
1
1
1
1
1
1
1
1
1
1
1
1
1
1
1
1
1
1
1
1
1
1
1
1
1
1
1
1
1
1
1
1
1
1
1
1
1
1
1
1
1
1
1
1
1
1
1
1
1
1
1
1
1
1
1
1
1
1
1
1
1
1
1
1
1
1
1
1
1
1
1
1
1
1
1
1
1
1
1
1
1
1
1
1
1
1
1
1
1
1
1
1
1
1
1
1
1
1
1
1
1
1
1
1
1
1
1
1
1
1
1
1
1
1
1
1
1
1
1
1
1
1
1
1
1
1
1
1
1
1
1
1
1
1
1
1
1
1
1
1
1
1
1
1
1
1
1
1
1
1
1
1
1
1
1
1
1
1
1
1
1
1
1
1
1
1
1
1
1
1
1
1
1
1
1
1
1
1
1
1
1
1
1
1
1
1
1
1
1
1
1
1
1
1
1
1
1
1
1
1
1
1
1
1
1
1
1
1
1
1
1
1
1
1
1
1
1
1
1
1
1
1
1
1
1
1
1
1
1
1
1
1
1
1
1
1
1
1
1
1
1
1
1
1
1
1
1
1
1
1
1
1
1
1
1
1
0.999674
0.999678
0.999653
0.999634
0.999656
0.999273
0.999272
0.999286
0.999233
0.998965
0.998925
0.99891
0.998992
0.998922
0.998968
0.998955
0.9989
0.998971
0.998915
0.998965
0.998935
0.998901
0.998969