/*--------------------------------*- C++ -*----------------------------------*\
| =========                 |                                                 |
| \\      /  F ield         | OpenFOAM: The Open Source CFD Toolbox           |
|  \\    /   O peration     | Version:  v2012                                 |
|   \\  /    A nd           | Website:  www.openfoam.com                      |
|    \\/     M anipulation  |                                                 |
\*---------------------------------------------------------------------------*/
FoamFile
{
    version     2.0;
    format      ascii;
    class       volScalarField;
    location    "1e-06";
    object      k;
}
// * * * * * * * * * * * * * * * * * * * * * * * * * * * * * * * * * * * * * //

dimensions      [0 2 -2 0 0 0 0];


internalField   nonuniform List<scalar> 
102000
(
3.40234
2.47084
2.08966
1.27661
1.06764
1.03003
1.02757
0.970041
0.925045
0.91834
0.925259
0.88813
0.862177
0.85392
0.856336
0.837857
0.813049
0.810737
0.814768
0.801485
0.778039
0.776421
0.781214
0.771977
0.750148
0.746885
0.751868
0.745608
0.72458
0.719154
0.722936
0.718643
0.697692
0.689672
0.69149
0.688603
0.667875
0.655542
0.655437
0.652866
0.629234
0.615433
0.607978
0.604914
0.580451
0.555886
0.545725
0.540256
0.505404
0.482207
0.448858
0.440689
0.409672
0.343586
0.308935
0.290636
0.222383
0.240959
0.28721
0.302188
0.354286
0.437014
0.488705
0.497296
0.518877
0.530691
0.56019
0.566307
0.60341
0.658768
0.718669
0.721991
0.740358
0.794548
0.844297
0.836141
0.881673
0.892379
0.917611
0.915051
0.935265
0.965164
0.982103
0.976613
0.993828
1.03236
1.03917
1.03065
1.05835
1.10058
1.09419
1.0867
1.1235
1.16752
1.14468
1.16797
1.18881
1.20555
1.1896
1.20751
1.24992
1.24628
1.23078
1.26692
1.31321
1.28473
1.29898
1.33035
1.3413
1.32055
1.348
1.39579
1.37544
1.53572
1.41463
1.4309
1.40624
1.43089
1.48001
1.45841
1.60248
1.49864
1.51117
1.4834
1.51475
1.56787
1.53283
1.54439
1.58402
1.57852
1.57544
1.59927
1.62472
1.59209
1.62046
1.6767
1.64053
1.65433
1.69864
1.68303
1.87246
1.72187
1.72434
1.71259
1.73738
1.76007
1.72137
1.76046
1.79989
1.76108
1.79327
1.84398
1.8031
1.831
1.90114
1.84784
1.87467
1.94065
1.88642
1.90667
1.97162
1.91189
1.93348
1.99623
2.06849
1.98985
1.98347
1.95713
2.01714
2.08782
2.23186
2.03684
2.15092
2.51644
2.14027
2.11321
2.10011
2.10997
2.08849
2.10659
2.11135
2.24192
2.04139
2.00595
2.03399
2.07102
2.02642
2.06747
2.06558
2.1128
2.12562
2.06723
2.11551
2.1213
2.32201
2.19442
2.132
2.19572
2.19254
2.20482
2.20051
2.35204
2.1782
2.13266
2.25293
2.23829
2.31736
2.29032
2.24253
2.19377
1.97842
1.91519
1.65957
1.65617
1.56131
1.58078
1.56913
1.54455
1.49016
1.47039
1.5197
1.31192
1.42324
1.20179
1.16864
1.08574
1.06461
1.07207
1.07588
1.00717
0.985361
0.821787
0.793771
0.682339
0.602008
0.58052
0.494909
0.471244
0.277317
0.25883
0.119964
0.155758
0.15236
0.208994
0.217983
0.164068
0.160875
0.137726
0.0718234
0.0528758
0.0500212
0.0486609
0.0463764
0.0410158
0.0412178
0.051054
0.0529929
0.0647409
0.0619154
0.0535657
0.0619027
0.0608911
0.0213314
0.0188364
0.00531337
0.0200902
0.021436
0.0349446
0.0311099
0.0409302
0.0390956
0.036984
0.0166416
0.0104061
0.0106941
0.0139114
0.0130614
0.0147911
0.0165865
0.0168924
0.0190619
0.0235772
0.0257774
0.0335606
0.0297495
0.0334786
0.0332829
0.0314926
0.0161636
0.0413204
0.0427713
0.0486112
0.052694
0.0584811
0.0750322
0.0829165
0.0949057
0.116387
0.104927
0.120744
0.132672
0.134319
0.168948
0.212771
0.220315
0.268702
0.312154
0.318312
0.356538
0.396354
0.403636
0.447717
0.483204
0.487912
0.521848
0.553029
0.555544
0.582552
0.603542
0.602864
0.621967
0.638391
0.636283
0.654444
0.66831
0.672448
0.679719
0.691661
0.694365
0.69883
0.706782
0.709187
0.710146
0.694857
0.714057
0.711112
0.713818
0.712809
0.705504
0.710357
0.709028
0.697
0.699463
0.690864
0.685592
0.681914
0.68033
0.671591
0.65939
0.661754
0.65582
0.635654
0.636515
0.583238
0.618206
0.608229
0.610176
0.600396
0.576257
0.580512
0.517256
0.558645
0.549068
0.552416
0.542922
0.518213
0.522864
0.456568
0.505673
0.493369
0.500147
0.495855
0.473204
0.474302
0.476544
0.468659
0.447399
0.460862
0.460861
0.448332
0.441465
0.453135
0.452635
0.435037
0.438393
0.445618
0.435906
0.413831
0.424865
0.360185
0.421985
0.410946
0.426174
0.433233
0.418281
0.414228
0.428235
0.429495
0.413127
0.414906
0.427209
0.422477
0.403872
0.409631
0.414847
0.406325
0.385956
0.394805
0.383688
0.382372
0.360395
0.371242
0.304972
0.355298
0.339596
0.344203
0.322927
0.321607
0.307894
0.313186
0.303835
0.295176
0.282565
0.286079
0.277006
0.269403
0.258131
0.264363
0.253322
0.255688
0.244793
0.252245
0.206518
0.248426
0.236819
0.245421
0.243801
0.241641
0.228706
0.23481
0.239693
0.234114
0.222515
0.226691
0.234613
0.231844
0.22086
0.222511
0.231926
0.231284
0.220391
0.218477
0.22547
0.220898
0.204714
0.197965
0.200722
0.199361
0.185071
0.174395
0.177053
0.172374
0.165741
0.152013
0.155488
0.158204
0.153569
0.14353
0.143333
0.147007
0.147857
0.139809
0.136255
0.141947
0.143858
0.139123
0.131329
0.136012
0.138745
0.134539
0.12582
0.12632
0.129715
0.128415
0.120118
0.116753
0.120994
0.121691
0.116493
0.109482
0.114001
0.118046
0.114784
0.107582
0.107456
0.111463
0.112058
0.103669
0.098806
0.101942
0.10085
0.0985266
0.0909579
0.0923695
0.0946412
0.0925996
0.0854768
0.0828136
0.0847946
0.0816518
0.0790027
0.0716635
0.0736045
0.0752001
0.0721025
0.0659021
0.0642348
0.0668831
0.0686646
0.0637208
0.0589807
0.0618627
0.0656412
0.06549
0.0628184
0.0623483
0.0667028
0.0703729
0.0677928
0.0648205
0.0671383
0.0697839
0.068524
0.0645882
0.0634191
0.0652257
0.065825
0.062878
0.0594442
0.0610525
0.0638241
0.0648029
0.0640749
0.0636817
0.0700091
0.0692485
0.0791694
0.0817543
0.084323
0.0927641
0.0990893
0.101585
0.101124
0.107173
0.112469
0.113568
0.111985
0.112144
0.114561
0.115195
0.110924
0.106453
0.108287
0.109264
0.106071
0.100547
0.0987211
0.09946
0.0957415
0.0929786
0.0872484
0.088194
0.0894422
0.0873304
0.0795585
0.0758753
0.076735
0.0791279
0.0764488
0.0736257
0.0738335
0.0775856
0.0812623
0.0805195
0.07972
0.0818515
0.0857157
0.0871661
0.0864917
0.0851558
0.084942
0.0875088
0.0898334
0.0900577
0.0876611
0.0859821
0.0887886
0.0917309
0.0949825
0.0954227
0.0967007
0.102108
0.106314
0.104879
0.105635
0.114238
0.118721
0.126529
0.130238
0.141109
0.154241
0.160447
0.164707
0.168993
0.174678
0.177767
0.187729
0.201022
0.205081
0.212324
0.210988
0.204946
0.199733
0.178168
0.157983
0.150494
0.129575
0.119043
0.11544
0.104008
0.0959476
0.0932075
0.0846527
0.080258
0.0791807
0.0773629
0.078179
0.0796567
0.087079
0.0964388
0.125985
0.167604
0.172384
0.181381
0.210629
0.214079
0.21771
0.199075
0.189888
0.147957
0.126776
0.120707
0.105969
0.0949023
0.0920707
0.0786006
0.0657636
0.0595355
0.057993
0.054846
0.060091
0.0643398
0.0832556
0.101593
0.125573
0.131336
0.154119
0.163298
0.163629
0.15843
0.142928
0.139104
0.118884
0.104724
0.0929203
0.0892955
0.0772511
0.0668086
0.0668347
0.0662297
2.51127
1.74246
1.64336
1.10831
0.983
0.929075
0.920127
0.892095
0.866394
0.840817
0.834133
0.819935
0.811432
0.788176
0.773176
0.774272
0.768615
0.7525
0.73974
0.740398
0.735662
0.723829
0.712724
0.712942
0.708686
0.699034
0.688796
0.688501
0.684162
0.675503
0.664843
0.663941
0.658943
0.650247
0.638516
0.637055
0.631476
0.620625
0.608171
0.606005
0.596673
0.58543
0.567459
0.564553
0.553497
0.533208
0.514851
0.510547
0.487476
0.467818
0.429778
0.424485
0.403174
0.344563
0.310883
0.300858
0.233446
0.241329
0.272574
0.280205
0.336797
0.41101
0.445736
0.450932
0.483135
0.49772
0.513182
0.516902
0.559412
0.604445
0.639774
0.64615
0.677893
0.720709
0.742998
0.748271
0.782137
0.805522
0.802705
0.825267
0.872151
0.870205
0.867887
0.887789
0.9215
0.926723
0.92556
0.942311
0.972283
0.980474
0.981032
0.996978
1.02343
1.03173
1.0343
1.08649
1.07314
1.06834
1.08369
1.11603
1.11798
1.1161
1.12877
1.1561
1.16108
1.16224
1.21271
1.19879
1.19336
1.2066
1.2382
1.24059
1.23928
1.22873
1.27663
1.26944
1.28212
1.31672
1.31629
1.3135
1.37178
1.35118
1.3424
1.35348
1.38769
1.38709
1.38436
1.43802
1.42095
1.41278
1.43128
1.45356
1.44028
1.45093
1.49016
1.48687
1.48229
1.53742
1.51887
1.50975
1.49613
1.54611
1.53509
1.55322
1.57614
1.55944
1.56653
1.60499
1.58424
1.59493
1.64077
1.61503
1.62692
1.67842
1.67132
1.66168
1.71806
1.70602
1.69518
1.74727
1.73315
1.72162
1.7712
1.73844
1.74746
1.78575
1.75553
1.77213
1.81346
1.78723
1.76482
1.8238
1.81442
1.80097
1.8572
1.83574
1.94144
1.87947
1.86279
1.92286
1.87961
1.88547
1.92715
1.89216
1.96359
1.90595
1.91533
1.95843
1.92473
2.00778
1.97383
1.95047
2.00974
1.97122
2.07706
2.03248
2.01038
2.08392
2.04606
2.14479
2.04651
2.00668
2.03585
2.00089
2.12563
2.07265
2.17326
2.11541
2.10429
2.04033
1.84733
1.78051
1.5126
1.49177
1.39552
1.38622
1.35886
1.33736
1.29664
1.26577
1.14894
1.1213
1.07066
1.04545
1.05719
0.963141
0.964172
0.957628
0.958472
0.909466
0.888731
0.761296
0.735182
0.588559
0.587498
0.585456
0.552533
0.539116
0.35474
0.343991
0.248263
0.231588
0.213278
0.263081
0.261237
0.18766
0.181414
0.126838
0.0987328
0.0867774
0.0950571
0.0932105
0.0861562
0.0878672
0.0779665
0.0973695
0.0962209
0.112957
0.117846
0.143889
0.100696
0.0927275
0.0404658
0.0391526
0.0222475
0.0410097
0.0424055
0.0611749
0.0637786
0.0686716
0.0687284
0.0648269
0.0319284
0.0221058
0.0195709
0.0236574
0.023924
0.0250856
0.02925
0.0289228
0.031186
0.0409301
0.0417243
0.0522286
0.0531532
0.0538766
0.0606658
0.060939
0.0701112
0.0768545
0.0767336
0.0811471
0.0950876
0.0938604
0.109812
0.133034
0.131188
0.156901
0.161809
0.16333
0.181311
0.184819
0.202945
0.248087
0.254637
0.296582
0.346665
0.351829
0.386596
0.4351
0.440445
0.477127
0.526936
0.531617
0.563046
0.602999
0.6058
0.627151
0.655859
0.65699
0.670882
0.692849
0.69326
0.706056
0.722533
0.731454
0.732852
0.744481
0.75204
0.752854
0.756611
0.766387
0.765979
0.756473
0.773035
0.771168
0.767664
0.774535
0.771454
0.771355
0.772315
0.768761
0.76761
0.754584
0.760884
0.758422
0.745917
0.74915
0.745482
0.738553
0.733219
0.72604
0.723337
0.70909
0.708418
0.705066
0.693441
0.688001
0.678451
0.674996
0.662497
0.65719
0.653965
0.640897
0.635596
0.626708
0.623119
0.613528
0.607143
0.604387
0.593541
0.58814
0.582002
0.579029
0.560421
0.567575
0.562692
0.558872
0.548422
0.552502
0.550705
0.543948
0.54505
0.543619
0.541514
0.52829
0.533413
0.528211
0.524687
0.526337
0.524262
0.523469
0.520904
0.521578
0.523289
0.522081
0.518026
0.520693
0.520066
0.518439
0.511737
0.515061
0.511701
0.509279
0.494365
0.499628
0.493964
0.490776
0.463634
0.47494
0.466887
0.462963
0.456481
0.445106
0.442668
0.430933
0.406241
0.408293
0.406053
0.395092
0.376317
0.37653
0.374062
0.362111
0.344201
0.344776
0.343114
0.335373
0.320134
0.325721
0.32462
0.31949
0.319079
0.314551
0.312807
0.311036
0.298089
0.305098
0.302003
0.300145
0.29186
0.296441
0.295348
0.294063
0.290038
0.29358
0.293041
0.292106
0.290089
0.291345
0.290806
0.289936
0.285691
0.277908
0.270853
0.269045
0.260219
0.251689
0.246051
0.244412
0.235709
0.21773
0.22071
0.214711
0.212361
0.20358
0.202015
0.198505
0.19555
0.190547
0.189327
0.187124
0.186464
0.183925
0.180519
0.181226
0.179363
0.178022
0.172479
0.173739
0.17118
0.170148
0.16664
0.165566
0.16344
0.162843
0.160351
0.156682
0.157214
0.156288
0.155178
0.151337
0.152009
0.150557
0.149798
0.146798
0.14543
0.142468
0.141856
0.138157
0.128597
0.132378
0.129339
0.128174
0.124018
0.121863
0.118878
0.118132
0.114682
0.108707
0.108867
0.105625
0.104437
0.100576
0.0988132
0.0968677
0.0963575
0.0940047
0.0924436
0.0913258
0.0898343
0.089465
0.0879465
0.0889232
0.0894245
0.0893181
0.0891607
0.0898912
0.0900309
0.0897728
0.0893062
0.087973
0.087677
0.0865577
0.0862204
0.0847566
0.0831116
0.0829313
0.0824049
0.0820042
0.0814105
0.0829047
0.0849084
0.085429
0.0887552
0.0889461
0.0794107
0.102931
0.103824
0.109527
0.115482
0.120141
0.120836
0.124679
0.127207
0.130728
0.131686
0.131799
0.1324
0.1325
0.131559
0.130565
0.130218
0.128463
0.127179
0.125356
0.124936
0.122548
0.116977
0.116838
0.114471
0.113716
0.110883
0.108112
0.103894
0.103343
0.100108
0.0977976
0.0971159
0.0968816
0.0967467
0.0966649
0.0976843
0.0990664
0.100265
0.100358
0.10143
0.102522
0.10368
0.104205
0.104307
0.105115
0.10523
0.106715
0.106954
0.107079
0.107621
0.107376
0.113673
0.117282
0.117789
0.120207
0.124529
0.126284
0.12691
0.132331
0.136301
0.146664
0.148259
0.155668
0.168086
0.174826
0.176832
0.179924
0.184587
0.185393
0.191905
0.199952
0.200459
0.207328
0.203514
0.193033
0.192424
0.17265
0.149476
0.146226
0.126875
0.114268
0.112799
0.102721
0.0940414
0.0930782
0.0863202
0.0831172
0.0829118
0.0826993
0.0854944
0.0863747
0.092003
0.0952452
0.122143
0.155808
0.158215
0.174966
0.198676
0.201406
0.207451
0.184206
0.181819
0.14226
0.118869
0.115673
0.103053
0.0906038
0.0885575
0.0775843
0.0665318
0.0618914
0.0613877
0.0593448
0.0629897
0.0644786
0.0819294
0.0979258
0.119742
0.125145
0.147552
0.153298
0.153789
0.152154
0.135429
0.131315
0.113673
0.100539
0.0868536
0.0850222
0.0754462
0.0647863
0.0645036
0.0657394
1.39452
1.18163
1.14732
0.928145
0.853153
0.817222
0.810041
0.791237
0.772503
0.753528
0.74867
0.737187
0.731415
0.711911
0.701231
0.700636
0.696045
0.682694
0.673656
0.673137
0.66816
0.658967
0.65108
0.650522
0.645849
0.63829
0.630977
0.630244
0.625592
0.618603
0.61104
0.610026
0.604969
0.597756
0.589483
0.588131
0.582395
0.573825
0.564533
0.562739
0.554791
0.544872
0.53248
0.529838
0.519736
0.504769
0.489741
0.486385
0.468724
0.450351
0.423995
0.419604
0.39781
0.357043
0.32349
0.315437
0.268256
0.241716
0.260895
0.266092
0.31817
0.371943
0.401468
0.406342
0.432757
0.45287
0.468805
0.514893
0.497054
0.528737
0.554516
0.559805
0.588359
0.619634
0.639888
0.644104
0.68234
0.693379
0.693601
0.713248
0.753569
0.753888
0.754079
0.771004
0.799002
0.806104
0.806465
0.821247
0.844351
0.853653
0.854665
0.873929
0.890237
0.899521
0.901567
0.94596
0.934004
0.931922
0.945577
0.970837
0.97502
0.974456
0.990987
1.00735
1.01383
1.01507
1.05585
1.04534
1.04261
1.0559
1.07839
1.08281
1.08254
1.13154
1.11373
1.10915
1.12176
1.14645
1.14866
1.14751
1.20366
1.17793
1.17255
1.18583
1.20827
1.20998
1.20919
1.25103
1.23833
1.23388
1.26366
1.26659
1.25804
1.27064
1.29705
1.2958
1.29362
1.33636
1.32317
1.31792
1.37161
1.34858
1.34001
1.36933
1.37412
1.36245
1.3774
1.39669
1.38183
1.39499
1.42521
1.40632
1.41896
1.45554
1.44803
1.44444
1.48492
1.47736
1.4732
1.51268
1.50089
1.4993
1.53271
1.5153
1.53243
1.55791
1.53508
1.55579
1.57514
1.55644
1.58342
1.59144
1.58503
1.64322
1.62211
1.60668
1.65887
1.63793
1.63728
1.67779
1.64675
1.64532
1.69045
1.67539
1.73565
1.68652
1.71761
1.73785
1.71075
1.79096
1.74413
1.74128
1.77482
1.74409
1.83181
1.79059
1.79363
1.843
1.81968
1.90982
1.83029
1.80733
1.79516
1.77149
1.83487
1.79602
1.85881
1.81779
1.82136
1.77467
1.63624
1.58216
1.36096
1.32475
1.20755
1.18789
1.15743
1.12825
1.10401
1.06685
1.00167
0.966334
0.97728
0.914238
0.917784
0.864377
0.860731
0.844193
0.839138
0.814144
0.800298
0.732308
0.713393
0.619447
0.632836
0.629381
0.612292
0.601459
0.497327
0.487998
0.356121
0.352148
0.325035
0.34383
0.336301
0.253734
0.249161
0.181132
0.174056
0.159311
0.171703
0.169274
0.154182
0.159778
0.139128
0.16667
0.165326
0.18616
0.193199
0.194844
0.153152
0.142017
0.0720445
0.0715293
0.0456594
0.0756923
0.077467
0.103035
0.107991
0.113717
0.111272
0.106375
0.0574909
0.0422167
0.0369512
0.0409102
0.0420679
0.0426942
0.0508722
0.0508657
0.052949
0.0670234
0.0668518
0.0778652
0.0805668
0.0833231
0.0939727
0.0954323
0.0977622
0.116704
0.117114
0.123805
0.138181
0.137543
0.153224
0.175334
0.175859
0.202047
0.20713
0.223585
0.244744
0.248301
0.258625
0.299851
0.30655
0.345202
0.401094
0.407441
0.440821
0.499693
0.506579
0.542703
0.605164
0.610332
0.637973
0.687099
0.690521
0.70842
0.74406
0.746213
0.758622
0.785341
0.787172
0.797836
0.816389
0.828552
0.827545
0.83802
0.850216
0.849301
0.84684
0.865875
0.864745
0.839819
0.875783
0.874668
0.867457
0.881576
0.88056
0.879388
0.882135
0.884756
0.882071
0.861704
0.881507
0.8792
0.862376
0.874147
0.872043
0.864888
0.860278
0.858704
0.855237
0.813376
0.844249
0.841535
0.828864
0.82546
0.819076
0.814839
0.77491
0.799461
0.796572
0.7822
0.778033
0.771167
0.767024
0.722
0.751784
0.749298
0.737434
0.730953
0.72679
0.723634
0.70031
0.71146
0.706738
0.702431
0.685436
0.695638
0.693842
0.685708
0.686177
0.685407
0.683145
0.666067
0.675602
0.671639
0.668101
0.639197
0.667034
0.666243
0.662937
0.66053
0.66467
0.663414
0.658215
0.660128
0.659817
0.658069
0.648976
0.652819
0.649266
0.646719
0.6279
0.635525
0.629066
0.625674
0.590257
0.607748
0.598366
0.594138
0.552052
0.572729
0.569989
0.556649
0.521684
0.531035
0.528318
0.515102
0.487054
0.491885
0.48886
0.474237
0.447543
0.452289
0.450199
0.440483
0.41529
0.426812
0.425378
0.418656
0.390379
0.411125
0.408689
0.406815
0.387782
0.39915
0.395758
0.393889
0.383394
0.390135
0.3893
0.388107
0.38358
0.387873
0.387429
0.386549
0.384291
0.385321
0.384667
0.383741
0.379248
0.369464
0.361517
0.35936
0.349464
0.336542
0.332481
0.330315
0.320399
0.297735
0.301898
0.293969
0.291468
0.280564
0.277073
0.2712
0.197547
0.260572
0.256976
0.253243
0.252234
0.248265
0.24028
0.243196
0.240681
0.23932
0.232852
0.234446
0.231884
0.230879
0.227293
0.226216
0.224061
0.223374
0.220607
0.21397
0.217098
0.21541
0.214303
0.209701
0.209971
0.207685
0.206802
0.203172
0.200726
0.197166
0.196252
0.191897
0.17936
0.183643
0.179682
0.178425
0.173128
0.169874
0.16592
0.165001
0.160821
0.151099
0.153717
0.149759
0.14849
0.144023
0.141862
0.139453
0.138822
0.136094
0.132741
0.132143
0.090411
0.129188
0.126753
0.126738
0.126145
0.125831
0.12477
0.123513
0.123609
0.122523
0.121985
0.119961
0.119283
0.117805
0.11739
0.115765
0.112583
0.113697
0.113024
0.112659
0.111952
0.113295
0.115074
0.115539
0.118668
0.115046
0.0980806
0.132562
0.133416
0.138681
0.144461
0.148916
0.149642
0.153306
0.155275
0.159647
0.161332
0.161549
0.16275
0.163644
0.163948
0.163866
0.163673
0.162648
0.162318
0.16107
0.160717
0.158831
0.151061
0.153681
0.150892
0.150114
0.146817
0.143402
0.139491
0.138777
0.135251
0.131681
0.130302
0.128996
0.12867
0.127518
0.127073
0.127732
0.128289
0.128276
0.128711
0.12973
0.13084
0.131644
0.131779
0.132716
0.13314
0.134928
0.13571
0.135872
0.136695
0.108257
0.144001
0.147736
0.148301
0.151184
0.155424
0.157607
0.158245
0.163295
0.166852
0.175776
0.176665
0.183388
0.192092
0.198009
0.199455
0.20208
0.202746
0.202706
0.202447
0.202682
0.202373
0.202595
0.195941
0.185765
0.184367
0.16715
0.146769
0.14346
0.124973
0.113306
0.111617
0.10245
0.0960262
0.0951438
0.0911011
0.0907656
0.0908393
0.0934156
0.0981975
0.0993082
0.105136
0.107145
0.12159
0.140721
0.143398
0.164842
0.184736
0.186932
0.191816
0.173979
0.171707
0.13746
0.11545
0.112008
0.0987801
0.0878539
0.0862074
0.0773491
0.070211
0.0685626
0.0684341
0.0685156
0.0714919
0.0723844
0.0811788
0.0961259
0.114612
0.118865
0.137661
0.143454
0.143903
0.142438
0.128351
0.124835
0.108348
0.095437
0.083236
0.0814365
0.0727841
0.0655074
0.0653181
0.0658462
1.34867
1.15884
1.12823
0.920416
0.847313
0.81194
0.807188
0.787271
0.767526
0.750163
0.746596
0.734139
0.72015
0.709851
0.698986
0.698574
0.688647
0.68081
0.671736
0.671347
0.665105
0.657218
0.649376
0.648919
0.643623
0.636673
0.629426
0.6288
0.623745
0.617103
0.609633
0.608767
0.603362
0.596422
0.588208
0.587066
0.581058
0.572629
0.563429
0.562029
0.553519
0.544231
0.531347
0.52936
0.519095
0.503823
0.489147
0.486009
0.468202
0.450133
0.423892
0.419525
0.397796
0.357558
0.32392
0.316365
0.269647
0.258652
0.261127
0.265909
0.317846
0.371195
0.399723
0.404878
0.431317
0.450629
0.468226
0.474463
0.493979
0.525266
0.552632
0.556733
0.579973
0.615651
0.63684
0.64038
0.656205
0.689023
0.689413
0.70896
0.733719
0.749507
0.749233
0.765992
0.790104
0.801621
0.801207
0.814359
0.837592
0.848492
0.848985
0.857276
0.883618
0.893884
0.89509
0.914659
0.927233
0.925377
0.937492
0.960641
0.968456
0.96732
0.973155
0.998989
1.00681
1.00688
1.0291
1.03725
1.03458
1.04368
1.0679
1.07472
1.07353
1.08133
1.10389
1.10018
1.10884
1.13398
1.13945
1.13733
1.14493
1.16685
1.16249
1.16854
1.19517
1.19996
1.19714
1.2221
1.227
1.22238
1.22328
1.25321
1.24662
1.25249
1.27977
1.2842
1.27942
1.30678
1.31017
1.30439
1.3118
1.33341
1.32673
1.32681
1.35756
1.34928
1.34932
1.37803
1.36801
1.37179
1.40295
1.39181
1.39747
1.42894
1.43285
1.42291
1.45555
1.46022
1.45103
1.4822
1.48547
1.473
1.50617
1.49166
1.49576
1.5261
1.51302
1.50969
1.54669
1.53254
1.52459
1.56532
1.55579
1.56343
1.60659
1.5755
1.60857
1.61317
1.59
1.63258
1.61557
1.61007
1.64993
1.64014
1.66839
1.64683
1.64849
1.68938
1.66939
1.68779
1.70673
1.68531
1.72909
1.70524
1.72605
1.7512
1.72945
1.79489
1.77176
1.81976
1.77685
1.72791
1.74348
1.708
1.76164
1.72447
1.78228
1.74488
1.75559
1.71274
1.58179
1.53673
1.26596
1.29954
1.17128
1.17082
1.11527
1.1151
1.05803
1.05714
0.993656
0.953468
0.945661
0.902477
0.899774
0.855092
0.85463
0.833916
0.835538
0.805361
0.799833
0.738394
0.716841
0.62566
0.633964
0.637048
0.619276
0.612076
0.520274
0.499003
0.390568
0.359617
0.355447
0.352581
0.348326
0.26874
0.255571
0.193011
0.179215
0.176293
0.179407
0.176256
0.1718
0.16397
0.160668
0.171652
0.172016
0.19825
0.197514
0.224401
0.156401
0.146471
0.0769539
0.0728998
0.0559396
0.0775515
0.0801183
0.110362
0.109736
0.124047
0.113925
0.10882
0.066035
0.0429564
0.0389754
0.0426508
0.0426548
0.049261
0.051859
0.0519003
0.0595457
0.0677901
0.068963
0.0800085
0.0811233
0.0880277
0.0952573
0.0963108
0.113708
0.117783
0.118454
0.1312
0.13931
0.13924
0.156507
0.176377
0.178185
0.204246
0.208244
0.228415
0.248415
0.249824
0.268713
0.303827
0.309123
0.3583
0.405584
0.410799
0.459067
0.505929
0.511293
0.565422
0.612755
0.617162
0.662069
0.696464
0.698596
0.730192
0.755709
0.755811
0.777521
0.798744
0.797625
0.81388
0.832468
0.83996
0.841625
0.858752
0.862229
0.86262
0.880849
0.878726
0.877783
0.878319
0.889817
0.887798
0.892655
0.897421
0.894022
0.896358
0.90328
0.898983
0.897549
0.909058
0.896888
0.894307
0.893709
0.891261
0.887252
0.883101
0.884658
0.874592
0.871745
0.86413
0.861191
0.857543
0.84982
0.846246
0.835331
0.831887
0.823142
0.81634
0.812719
0.803147
0.798311
0.787238
0.783687
0.775616
0.768396
0.764999
0.755813
0.75304
0.742331
0.739261
0.73384
0.727911
0.721664
0.718377
0.724197
0.710698
0.70846
0.703536
0.704617
0.699833
0.697664
0.695199
0.690964
0.685616
0.682702
0.694064
0.681383
0.679991
0.67802
0.684088
0.678604
0.677102
0.674631
0.677105
0.673477
0.671693
0.668496
0.667831
0.662633
0.660199
0.655239
0.649485
0.641971
0.638806
0.635033
0.620727
0.610492
0.606546
0.597659
0.584564
0.581297
0.568085
0.56577
0.541692
0.538513
0.525341
0.523075
0.501191
0.49776
0.483079
0.480407
0.460275
0.457831
0.448143
0.450058
0.433935
0.432152
0.425522
0.423127
0.417765
0.414965
0.413206
0.415462
0.405522
0.401757
0.399953
0.397173
0.396544
0.395313
0.394157
0.392538
0.394568
0.39354
0.39263
0.391605
0.392511
0.390807
0.389807
0.385817
0.377772
0.367239
0.364944
0.35511
0.352309
0.337674
0.335313
0.32531
0.317254
0.306527
0.2982
0.295651
0.286187
0.281219
0.274742
0.271605
0.264214
0.26127
0.256197
0.255101
0.251161
0.253953
0.245944
0.243306
0.241955
0.238252
0.237231
0.234453
0.233424
0.230235
0.229502
0.226626
0.225886
0.223204
0.226447
0.21962
0.21782
0.216708
0.213558
0.212473
0.209932
0.209015
0.205534
0.203937
0.199253
0.198282
0.193915
0.190165
0.185569
0.181467
0.180186
0.175139
0.171868
0.167495
0.166538
0.162359
0.163398
0.155151
0.1511
0.149814
0.145718
0.143295
0.140666
0.140007
0.137303
0.137875
0.133248
0.130719
0.130201
0.128133
0.127784
0.127019
0.126682
0.12563
0.127186
0.12438
0.123258
0.122702
0.120963
0.120093
0.118488
0.11806
0.116456
0.117827
0.114361
0.113655
0.113288
0.112743
0.114033
0.115684
0.116127
0.119293
0.125902
0.128434
0.133187
0.134031
0.139402
0.145321
0.149568
0.150281
0.153985
0.157263
0.160408
0.162072
0.162291
0.163565
0.165078
0.164776
0.164714
0.164522
0.163814
0.163296
0.161991
0.16163
0.159779
0.16093
0.15463
0.151802
0.151011
0.147774
0.14444
0.140326
0.139591
0.136035
0.133085
0.131024
0.12964
0.129297
0.128129
0.128796
0.128268
0.128811
0.128777
0.129297
0.130501
0.131362
0.13215
0.132283
0.133242
0.133967
0.135536
0.13626
0.136429
0.137271
0.138023
0.14467
0.148392
0.148955
0.151917
0.156187
0.158315
0.15895
0.164064
0.167602
0.204864
0.177348
0.184289
0.192698
0.198586
0.200027
0.202708
0.20315
0.203086
0.202838
0.202764
0.202439
0.202657
0.195915
0.185662
0.184368
0.1671
0.146748
0.143437
0.124958
0.113297
0.111607
0.102457
0.0960443
0.095169
0.0911481
0.0908384
0.0909266
0.0935266
0.0983558
0.0994565
0.1053
0.107295
0.121648
0.140665
0.143324
0.164581
0.184665
0.186829
0.191747
0.17385
0.171683
0.137424
0.115413
0.11199
0.0987719
0.0878634
0.0862142
0.0773491
0.0702417
0.068616
0.068501
0.0686287
0.0715698
0.0724544
0.0812035
0.0961188
0.11457
0.118815
0.137626
0.143382
0.143853
0.142404
0.128279
0.124831
0.108289
0.0954312
0.0832272
0.0814375
0.0727901
0.0655054
0.0653419
0.0658524
0.86094
0.867455
0.864637
0.800187
0.766922
0.748844
0.745918
0.733744
0.720884
0.709405
0.706896
0.697136
0.687942
0.677998
0.669972
0.668774
0.661297
0.65375
0.646913
0.645927
0.64016
0.63351
0.627534
0.626667
0.621509
0.615658
0.6101
0.60924
0.604259
0.598588
0.59285
0.5919
0.586712
0.580669
0.574415
0.573309
0.567458
0.560418
0.553084
0.551709
0.544363
0.53576
0.526253
0.524429
0.514712
0.502786
0.490083
0.487586
0.473598
0.45638
0.437496
0.433685
0.411894
0.382988
0.349107
0.343031
0.310638
0.287561
0.272282
0.275328
0.32123
0.360361
0.385144
0.389457
0.412282
0.434017
0.451655
0.454416
0.466583
0.487931
0.508715
0.512354
0.533091
0.561798
0.580947
0.584147
0.604878
0.628263
0.629857
0.647716
0.674113
0.686549
0.687544
0.702721
0.725899
0.737128
0.737759
0.749995
0.7708
0.781938
0.782588
0.793625
0.814276
0.824961
0.82565
0.84706
0.855205
0.854581
0.865508
0.886584
0.894678
0.894211
0.902778
0.922941
0.931572
0.931254
0.953859
0.959173
0.957699
0.966424
0.987186
0.994646
0.993539
1.00302
1.0211
1.01887
1.02701
1.04865
1.05484
1.05296
1.06184
1.07969
1.07681
1.08361
1.10549
1.11116
1.10858
1.1327
1.13559
1.13206
1.14044
1.15922
1.15451
1.16068
1.18299
1.1872
1.18325
1.2097
1.21212
1.20749
1.21585
1.23401
1.22876
1.23597
1.2569
1.25036
1.25416
1.27477
1.26664
1.27059
1.29561
1.28607
1.29097
1.31767
1.31876
1.31105
1.33931
1.3428
1.3353
1.36468
1.36682
1.35893
1.38748
1.37632
1.37963
1.40193
1.39077
1.39582
1.41999
1.40758
1.40712
1.43275
1.43075
1.44055
1.47569
1.45092
1.48035
1.50384
1.47072
1.50004
1.5024
1.4962
1.52132
1.50932
1.54421
1.52208
1.52728
1.55778
1.54107
1.5641
1.57333
1.55829
1.59166
1.57218
1.58276
1.61279
1.59889
1.65281
1.63356
1.67809
1.64119
1.60118
1.59368
1.56586
1.59319
1.56466
1.6024
1.57309
1.59196
1.56053
1.47193
1.4339
1.24294
1.23144
1.09889
1.09076
1.03077
1.02472
0.976592
0.970967
0.923122
0.891773
0.881155
0.854502
0.851954
0.825416
0.823983
0.810441
0.810028
0.795199
0.792331
0.761291
0.747614
0.692071
0.68124
0.676448
0.689384
0.686921
0.622994
0.609261
0.527446
0.481923
0.465328
0.459901
0.451712
0.371896
0.361304
0.296887
0.279618
0.269183
0.271303
0.266645
0.248504
0.245096
0.226369
0.240838
0.23987
0.261303
0.260937
0.269178
0.198631
0.187494
0.112117
0.109259
0.0860562
0.114044
0.116509
0.147628
0.149443
0.160973
0.149596
0.143947
0.0916797
0.0650582
0.0591271
0.0616849
0.0621932
0.0669644
0.0735044
0.0738047
0.0796627
0.0877316
0.0881449
0.0948951
0.0960524
0.101376
0.110947
0.112548
0.126352
0.135464
0.136874
0.148808
0.159628
0.160531
0.175802
0.194441
0.197569
0.225303
0.230382
0.258734
0.291215
0.294663
0.317176
0.359554
0.365753
0.411265
0.469931
0.476581
0.525
0.587184
0.594223
0.647018
0.709938
0.715759
0.755874
0.802688
0.805867
0.832989
0.86853
0.870149
0.888787
0.916593
0.917322
0.931431
0.952922
0.964569
0.963679
0.979611
0.989292
0.98815
0.997521
1.0081
1.00668
1.01002
1.02182
1.02011
1.01919
1.03172
1.0298
1.0305
1.0377
1.03849
1.03589
1.03417
1.03842
1.03574
1.02727
1.03391
1.03095
1.02537
1.02525
1.02016
1.01673
1.00923
1.00711
1.0037
0.993249
0.990569
0.981826
0.977692
0.968093
0.962136
0.958524
0.946017
0.94165
0.931973
0.927895
0.917873
0.911531
0.908132
0.896947
0.892036
0.883583
0.880197
0.865578
0.867226
0.860731
0.856829
0.851294
0.848318
0.845937
0.83886
0.839324
0.835541
0.833151
0.823326
0.82619
0.821445
0.818373
0.817215
0.816334
0.814827
0.811897
0.813545
0.812004
0.810361
0.806187
0.808088
0.80513
0.803179
0.796384
0.797435
0.792016
0.789418
0.777175
0.776973
0.768592
0.765207
0.747771
0.744856
0.733268
0.729054
0.716686
0.70376
0.700022
0.685196
0.667486
0.65536
0.651628
0.636436
0.620284
0.608116
0.604068
0.587068
0.571178
0.56
0.557045
0.545614
0.533936
0.527923
0.525709
0.517773
0.512571
0.507727
0.504137
0.502317
0.494861
0.492962
0.488638
0.486803
0.479924
0.482826
0.481499
0.480379
0.477359
0.480607
0.479541
0.478628
0.476978
0.477802
0.476016
0.474908
0.470389
0.460235
0.449189
0.446519
0.435485
0.426596
0.415284
0.412425
0.401166
0.385228
0.379126
0.369069
0.366302
0.35447
0.34844
0.340139
0.337836
0.327287
0.322379
0.316239
0.314817
0.309758
0.306447
0.302724
0.299439
0.298065
0.292737
0.292678
0.289702
0.28866
0.285202
0.284335
0.281364
0.280501
0.277637
0.275992
0.273339
0.270839
0.269709
0.265378
0.264179
0.260876
0.259817
0.255576
0.252887
0.247746
0.246515
0.241525
0.23316
0.231416
0.226536
0.22516
0.219211
0.215127
0.209943
0.208781
0.203969
0.199366
0.195327
0.190429
0.189062
0.184255
0.181388
0.178263
0.177482
0.174417
0.172735
0.169311
0.16634
0.165385
0.162485
0.161563
0.160052
0.159562
0.157861
0.15744
0.155205
0.153484
0.152848
0.150482
0.149356
0.147437
0.146929
0.145113
0.144255
0.142741
0.14192
0.14156
0.140895
0.142212
0.143879
0.144309
0.147554
0.151304
0.156813
0.162041
0.162905
0.168344
0.174441
0.178824
0.179564
0.183387
0.186132
0.190287
0.192415
0.192699
0.194361
0.196205
0.19669
0.197057
0.196959
0.196508
0.196505
0.195384
0.19502
0.193317
0.190556
0.188139
0.18497
0.184143
0.180515
0.176614
0.172201
0.171303
0.167341
0.163409
0.160943
0.15881
0.158329
0.156483
0.156012
0.155296
0.15542
0.155338
0.155497
0.156619
0.157496
0.158434
0.158583
0.159655