/*--------------------------------*- C++ -*----------------------------------*\
| =========                 |                                                 |
| \\      /  F ield         | OpenFOAM: The Open Source CFD Toolbox           |
|  \\    /   O peration     | Version:  v2012                                 |
|   \\  /    A nd           | Website:  www.openfoam.com                      |
|    \\/     M anipulation  |                                                 |
\*---------------------------------------------------------------------------*/
FoamFile
{
    version     2.0;
    format      ascii;
    class       volScalarField;
    location    "1e-06";
    object      kMean;
}
// * * * * * * * * * * * * * * * * * * * * * * * * * * * * * * * * * * * * * //

dimensions      [0 2 -2 0 0 0 0];


internalField   nonuniform List<scalar> 
102000
(
3.32907
2.4641
2.10208
1.27614
1.07005
1.03158
1.02837
0.971734
0.927172
0.919709
0.925864
0.889544
0.864345
0.855261
0.856935
0.839101
0.815058
0.812073
0.815438
0.802604
0.779793
0.777768
0.781933
0.772988
0.751757
0.748236
0.752621
0.746523
0.726073
0.720493
0.723716
0.719477
0.699081
0.690989
0.692286
0.689371
0.669158
0.65682
0.656205
0.653543
0.630419
0.616631
0.608738
0.605548
0.581511
0.556971
0.546374
0.540746
0.506312
0.483121
0.449187
0.441207
0.410034
0.343483
0.308348
0.290421
0.221164
0.239781
0.287652
0.30269
0.355312
0.43812
0.48926
0.498089
0.520141
0.532217
0.561429
0.567567
0.605188
0.660639
0.719472
0.72313
0.742236
0.796445
0.845013
0.837546
0.883225
0.894293
0.918266
0.917011
0.939454
0.967526
0.983475
0.979099
0.997743
1.03449
1.04061
1.0331
1.06161
1.10195
1.09578
1.08948
1.12645
1.16838
1.14674
1.17336
1.19129
1.20659
1.19225
1.21199
1.2519
1.24801
1.23399
1.27067
1.31428
1.28712
1.30535
1.3331
1.34265
1.3237
1.35274
1.39749
1.37787
1.52586
1.41719
1.43208
1.40945
1.43632
1.48205
1.46108
1.60225
1.5014
1.5125
1.48687
1.52014
1.56928
1.53546
1.55241
1.58747
1.5817
1.58134
1.60568
1.62793
1.59743
1.62875
1.68095
1.64497
1.66369
1.70249
1.68623
1.86012
1.72435
1.72598
1.7172
1.74272
1.76126
1.7251
1.76678
1.80033
1.76427
1.80057
1.84403
1.8059
1.83904
1.9027
1.85019
1.88316
1.94243
1.88827
1.91499
1.9732
1.91419
1.94331
1.99216
2.01511
1.99034
1.99442
1.96633
2.02306
2.06451
2.22213
2.04849
2.1003
2.41999
2.13243
2.10047
2.10155
2.11464
2.07884
2.10272
2.09881
2.26703
2.09479
2.0621
2.09731
2.129
2.08793
2.13356
2.12766
2.18324
2.19271
2.13318
2.18712
2.18732
2.392
2.26373
2.20261
2.27257
2.2631
2.29196
2.28206
2.43027
2.25924
2.21148
2.33971
2.31949
2.40479
2.37134
2.32016
2.2664
2.03194
1.96705
1.68363
1.67812
1.57239
1.58954
1.56381
1.55042
1.49825
1.47472
1.51211
1.31464
1.41649
1.20397
1.17462
1.08946
1.06972
1.07296
1.07687
1.00812
0.985432
0.823068
0.794226
0.681658
0.598907
0.578482
0.493246
0.46929
0.27804
0.259601
0.119725
0.156257
0.152926
0.208678
0.217805
0.163911
0.160779
0.13751
0.0722675
0.0531386
0.0502103
0.0488444
0.0466104
0.0411852
0.0414209
0.0512728
0.0532332
0.065024
0.0621465
0.0534699
0.0620712
0.0611043
0.021419
0.0189148
0.00530114
0.0201515
0.0215027
0.0350833
0.031202
0.0411042
0.0392507
0.0371376
0.0167008
0.0104219
0.0107154
0.0139252
0.0130637
0.0148091
0.0165906
0.016898
0.0190615
0.0235639
0.0257812
0.0335756
0.0297333
0.0335456
0.0333604
0.0315641
0.0161249
0.0413973
0.0428654
0.0487324
0.0527455
0.0585482
0.0750966
0.0828463
0.0949331
0.11625
0.10481
0.120754
0.132703
0.134285
0.169512
0.213549
0.221013
0.269896
0.313233
0.319314
0.358014
0.397667
0.403891
0.446047
0.484396
0.488888
0.523989
0.554833
0.557074
0.584811
0.605397
0.604326
0.624195
0.640325
0.637695
0.656533
0.670234
0.673706
0.681628
0.693608
0.695701
0.700551
0.708729
0.710579
0.71172
0.694355
0.715487
0.712385
0.715657
0.714271
0.70658
0.711907
0.710546
0.698056
0.700795
0.692386
0.686767
0.683034
0.68197
0.672882
0.660301
0.663128
0.657243
0.636657
0.637756
0.582832
0.619354
0.60914
0.611526
0.601669
0.577141
0.581696
0.516895
0.559677
0.549916
0.553652
0.544079
0.519019
0.523922
0.456268
0.506641
0.494122
0.501224
0.496944
0.473984
0.475141
0.477724
0.469585
0.448029
0.461766
0.461917
0.44912
0.442159
0.454101
0.45357
0.435716
0.439145
0.44667
0.436742
0.414414
0.425704
0.359955
0.422737
0.41154
0.427005
0.43415
0.418964
0.414862
0.42911
0.43034
0.413744
0.41556
0.428105
0.423248
0.404419
0.41028
0.415745
0.407017
0.38641
0.39543
0.384469
0.382976
0.360774
0.37184
0.304771
0.355823
0.339979
0.344709
0.323471
0.322045
0.308235
0.313632
0.304397
0.295594
0.282909
0.286542
0.277544
0.26985
0.258489
0.264813
0.25379
0.256085
0.245099
0.252651
0.206492
0.248816
0.237096
0.245805
0.244291
0.24202
0.228979
0.23516
0.240157
0.234479
0.222788
0.227012
0.23504
0.232209
0.221135
0.222807
0.232321
0.231656
0.220666
0.218752
0.225828
0.221259
0.204991
0.198199
0.201029
0.199701
0.185331
0.174584
0.177309
0.172702
0.165974
0.15218
0.155682
0.158474
0.153794
0.143704
0.143518
0.147245
0.148094
0.139991
0.136416
0.142157
0.144095
0.139305
0.131456
0.136185
0.138967
0.134709
0.125942
0.12645
0.129882
0.128573
0.120223
0.116856
0.12112
0.121841
0.116608
0.109562
0.114119
0.118199
0.114925
0.107697
0.107573
0.11161
0.112211
0.103788
0.0989011
0.102064
0.100997
0.0986284
0.0910296
0.0924532
0.0947385
0.0926859
0.0855374
0.0828615
0.0848638
0.0817293
0.0790682
0.0717133
0.0736657
0.0752804
0.0721786
0.0659599
0.0642884
0.066953
0.0687443
0.0637879
0.059037
0.0619324
0.0657256
0.0655689
0.062882
0.06241
0.066783
0.0704654
0.0678696
0.0648782
0.0672114
0.0698747
0.0686065
0.0646512
0.0634766
0.0652978
0.0659047
0.0629423
0.059492
0.0611097
0.063896
0.0648727
0.0641321
0.0637338
0.0700796
0.0693167
0.0793087
0.0818116
0.0843972
0.092861
0.099193
0.101673
0.1012
0.107271
0.112592
0.113671
0.112066
0.112227
0.114662
0.1153
0.111007
0.106513
0.108361
0.109352
0.106148
0.100599
0.0987711
0.0995195
0.0958066
0.0930301
0.0872682
0.088235
0.0894827
0.087377
0.0795936
0.0759073
0.076773
0.0791684
0.0764784
0.0736585
0.0738565
0.077632
0.0813163
0.0805648
0.0797559
0.0818963
0.0857714
0.0872228
0.0865409
0.0851975
0.0849824
0.0875568
0.0898904
0.0901089
0.087702
0.0860161
0.0888305
0.0917834
0.0950267
0.0954556
0.0967364
0.102156
0.106362
0.104918
0.105673
0.11429
0.118749
0.12658
0.13025
0.141169
0.154209
0.160468
0.164635
0.168925
0.174706
0.177683
0.187816
0.201136
0.205177
0.212479
0.21113
0.205019
0.199862
0.178294
0.158016
0.150586
0.129667
0.119097
0.115508
0.104081
0.0959897
0.0932611
0.0847065
0.0802902
0.0792235
0.0774046
0.0782064
0.0796974
0.0871278
0.0965028
0.125894
0.167767
0.172366
0.181524
0.210701
0.214182
0.217853
0.198853
0.189984
0.148017
0.126829
0.120764
0.106038
0.0949439
0.0920992
0.0786431
0.0657951
0.059554
0.0580158
0.0548709
0.0601157
0.0643717
0.0833082
0.101646
0.125591
0.131401
0.154206
0.163346
0.163684
0.158521
0.142947
0.139124
0.118938
0.104774
0.092949
0.089325
0.0772935
0.0668341
0.0668531
0.0662607
2.53018
1.74593
1.6486
1.1098
0.984777
0.930227
0.921045
0.893409
0.867941
0.841847
0.834829
0.821025
0.812941
0.789156
0.773745
0.775231
0.770001
0.753461
0.740319
0.741252
0.736879
0.724774
0.713311
0.713714
0.709792
0.699963
0.689388
0.689206
0.685178
0.676414
0.665429
0.664584
0.659877
0.651127
0.639084
0.637638
0.632333
0.621456
0.608711
0.606533
0.597439
0.586201
0.567941
0.565013
0.554169
0.533858
0.515265
0.510933
0.488001
0.468351
0.430053
0.424757
0.40357
0.344805
0.310998
0.300994
0.233474
0.241757
0.272807
0.280399
0.337256
0.411703
0.446198
0.4514
0.483919
0.498537
0.513749
0.517811
0.560422
0.605576
0.640541
0.646991
0.679188
0.722094
0.743819
0.749383
0.783357
0.807009
0.80342
0.826715
0.874882
0.87175
0.868891
0.889546
0.924077
0.928256
0.926786
0.944267
0.974683
0.98186
0.982539
0.999222
1.02573
1.03294
1.03616
1.0903
1.07517
1.06963
1.08601
1.11933
1.11982
1.11788
1.13149
1.159
1.16258
1.16454
1.21735
1.20114
1.19506
1.20946
1.24186
1.2425
1.24167
1.22576
1.27973
1.27119
1.28522
1.32096
1.31847
1.31616
1.37378
1.35424
1.34442
1.35698
1.39214
1.38923
1.38737
1.4442
1.42386
1.41552
1.43545
1.45803
1.44267
1.45507
1.49587
1.48983
1.48604
1.54448
1.52202
1.51287
1.49186
1.5505
1.53771
1.55771
1.58101
1.5618
1.57098
1.61079
1.58628
1.59936
1.64735
1.61681
1.63137
1.68574
1.67428
1.66589
1.72596
1.70903
1.69939
1.75522
1.736
1.72585
1.77934
1.74014
1.75169
1.79686
1.76159
1.77984
1.82226
1.79163
1.76416
1.83668
1.8182
1.79477
1.86537
1.84164
1.95092
1.88574
1.87082
1.93103
1.88453
1.87459
1.93811
1.90639
1.98736
1.92154
1.93862
1.98563
1.94757
2.03934
1.9994
1.97785
2.04173
1.99646
2.10208
2.06014
2.04029
2.11848
2.07466
2.18695
2.07581
2.01661
2.07044
2.03126
2.16429
2.10259
2.21153
2.14476
2.13966
2.06812
1.8742
1.80357
1.52603
1.50485
1.40441
1.39446
1.36619
1.34351
1.30311
1.2707
1.14536
1.12457
1.06919
1.04848
1.06223
0.965326
0.967826
0.960788
0.96176
0.912379
0.891287
0.76309
0.736705
0.588226
0.587667
0.586044
0.553509
0.540227
0.354385
0.343804
0.248402
0.231485
0.213258
0.263615
0.261753
0.18783
0.18154
0.126766
0.0986605
0.0867474
0.0950018
0.0931608
0.0861233
0.0878134
0.0779525
0.0973184
0.0961615
0.112875
0.11774
0.143958
0.10058
0.0926505
0.0404823
0.0391647
0.022267
0.0410126
0.0424061
0.0611726
0.0637606
0.0686675
0.0687186
0.0648219
0.0319557
0.0221221
0.0195878
0.0236784
0.0239414
0.0251018
0.0292624
0.0289347
0.0312076
0.0409438
0.0417454
0.0522576
0.0531611
0.053894
0.060662
0.0609275
0.0701324
0.0768374
0.0767229
0.0811509
0.0950823
0.0938622
0.109814
0.133026
0.131197
0.156899
0.161771
0.163269
0.181307
0.18477
0.203114
0.248395
0.254858
0.296996
0.347044
0.352112
0.387133
0.435538
0.440769
0.477514
0.527245
0.531804
0.563619
0.603427
0.606069
0.627713
0.656271
0.657231
0.671367
0.693236
0.693426
0.706474
0.722894
0.7316
0.733208
0.744901
0.752214
0.753175
0.757135
0.766587
0.766266
0.756578
0.773244
0.771333
0.76807
0.774722
0.771496
0.771571
0.772499
0.768701
0.767699
0.754861
0.760784
0.758359
0.746007
0.748986
0.745274
0.738394
0.733033
0.725686
0.723051
0.709553
0.708001
0.704672
0.693045
0.687537
0.677926
0.674501
0.662926
0.656603
0.653422
0.640312
0.634967
0.626082
0.622489
0.614142
0.606454
0.603762
0.592844
0.587436
0.581325
0.578366
0.559775
0.566854
0.562052
0.558168
0.547819
0.551809
0.550056
0.543224
0.544323
0.542963
0.54085
0.527623
0.532705
0.527588
0.523996
0.526787
0.523583
0.522849
0.520198
0.520883
0.522617
0.521438
0.5173
0.51996
0.519405
0.517773
0.511008
0.514326
0.511048
0.508596
0.493674
0.498901
0.493325
0.49009
0.463106
0.47424
0.466282
0.462292
0.456947
0.444461
0.442105
0.430312
0.405855
0.407695
0.405527
0.394528
0.375914
0.376024
0.373613
0.361642
0.343876
0.344362
0.342744
0.334984
0.31992
0.325369
0.324304
0.319159
0.319327
0.314233
0.31252
0.310729
0.297873
0.304792
0.301722
0.299847
0.291565
0.296116
0.295046
0.293749
0.289692
0.293225
0.292717
0.291777
0.289719
0.290969
0.290462
0.289601
0.285314
0.277536
0.270517
0.268735
0.259879
0.251382
0.245733
0.244133
0.235407
0.217476
0.220423
0.214464
0.212106
0.203327
0.201781
0.198309
0.195979
0.190361
0.189152
0.186971
0.186321
0.18378
0.18041
0.181091
0.179236
0.177891
0.172347
0.173598
0.171045
0.170013
0.166491
0.165411
0.163295
0.162707
0.160203
0.156554
0.157066
0.156156
0.155039
0.151191
0.151865
0.150428
0.149671
0.146662
0.145294
0.142343
0.141742
0.138036
0.128498
0.132265
0.129238
0.128071
0.123914
0.121763
0.11879
0.118048
0.114596
0.108646
0.108785
0.10555
0.10436
0.100497
0.0987347
0.0967964
0.0962897
0.0939337
0.092379
0.091262
0.0899621
0.0894088
0.0878917
0.0888735
0.0893823
0.0892779
0.0891228
0.0898606
0.0899992
0.089743
0.089278
0.0879467
0.0876499
0.0865302
0.086194
0.0847304
0.0830919
0.082904
0.0823777
0.0819783
0.0813851
0.0828793
0.0848848
0.0854059
0.0887344
0.0889511
0.079442
0.102912
0.103805
0.109512
0.115467
0.120126
0.120818
0.124665
0.127198
0.130711
0.131664
0.131778
0.132377
0.132472
0.131525
0.130526
0.130179
0.128419
0.12713
0.125306
0.124888
0.122494
0.116936
0.116779
0.114418
0.113662
0.110827
0.108057
0.10384
0.103295
0.100057
0.0977504
0.0970728
0.0968462
0.0967126
0.0966333
0.097657
0.0990429
0.100244
0.100337
0.101411
0.102503
0.103661
0.104185
0.104287
0.105094
0.105206
0.106689
0.106927
0.107053
0.107593
0.107447
0.113636
0.117247
0.117753
0.120166
0.124487
0.126245
0.126871
0.132288
0.136261
0.146637
0.148232
0.155639
0.168078
0.174815
0.176826
0.179918
0.184592
0.185399
0.191949
0.200004
0.200497
0.207407
0.20359
0.193074
0.192496
0.172713
0.149505
0.146272
0.12692
0.114292
0.112833
0.102755
0.0940586
0.093103
0.0863418
0.083126
0.0829263
0.0827092
0.0854965
0.0863811
0.0920075
0.0952432
0.122195
0.155896
0.158297
0.175044
0.198735
0.201472
0.207537
0.184242
0.181879
0.142301
0.118889
0.115701
0.103088
0.090624
0.088575
0.0776049
0.0665437
0.061895
0.0613944
0.05935
0.062993
0.0644807
0.081958
0.0979491
0.119762
0.125178
0.147602
0.15333
0.153823
0.152205
0.135459
0.131334
0.1137
0.100565
0.0868661
0.0850385
0.0754677
0.0647955
0.0645106
0.0657541
1.38612
1.17745
1.14403
0.927177
0.852678
0.8169
0.810367
0.791004
0.772331
0.753713
0.749137
0.737414
0.73159
0.712406
0.701649
0.701138
0.696382
0.683193
0.674114
0.673643
0.668614
0.659465
0.651556
0.651027
0.646315
0.638786
0.631452
0.630745
0.626059
0.619091
0.611509
0.610525
0.605421
0.598235
0.589929
0.588622
0.58283
0.574269
0.564955
0.563211
0.555135
0.545306
0.53274
0.530274
0.520056
0.50491
0.489967
0.486683
0.468904
0.450632
0.424217
0.419842
0.398017
0.357306
0.32373
0.315885
0.268563
0.242023
0.261135
0.266175
0.318423
0.37228
0.401421
0.406268
0.433066
0.452878
0.469222
0.516623
0.497288
0.528561
0.554832
0.559946
0.588687
0.619867
0.640238
0.644425
0.682223
0.693771
0.693836
0.713666
0.753566
0.754314
0.754319
0.771488
0.799333
0.806619
0.806828
0.821785
0.844921
0.85423
0.85519
0.874352
0.890837
0.900126
0.902138
0.94609
0.934595
0.932459
0.946231
0.971523
0.975708
0.975089
0.991514
1.00811
1.01455
1.01576
1.05639
1.04606
1.04328
1.05665
1.07929
1.0836
1.08327
1.13338
1.11446
1.10985
1.12257
1.14747
1.14947
1.14827
1.20385
1.17866
1.17331
1.18665
1.20935
1.21088
1.21002
1.25193
1.23909
1.23462
1.26325
1.26752
1.25878
1.27147
1.29791
1.29658
1.29444
1.33748
1.32395
1.31871
1.37416
1.3493
1.34081
1.36906
1.37506
1.36327
1.37811
1.39773
1.38244
1.39588
1.42614
1.40664
1.41989
1.45619
1.44841
1.44507
1.4858
1.47742
1.47381
1.51345
1.50157
1.49969
1.53407
1.51302
1.52992
1.55714
1.53364
1.55574
1.57512
1.55564
1.58817
1.59236
1.58133
1.64753
1.62065
1.60571
1.65966
1.637
1.63697
1.67495
1.64272
1.63818
1.68501
1.66953
1.7306
1.67995
1.71027
1.73144
1.70529
1.78782
1.74074
1.73859
1.77304
1.74159
1.83057
1.7886
1.79129
1.84217
1.8166
1.90752
1.8225
1.80456
1.78932
1.76551
1.8269
1.78686
1.85055
1.80828
1.81601
1.76897
1.63194
1.58067
1.35802
1.32782
1.20877
1.19204
1.15878
1.13223
1.10564
1.07058
1.00262
0.967667
0.980668
0.915344
0.920204
0.865634
0.863608
0.845353
0.84172
0.815232
0.802791
0.733462
0.715943
0.621157
0.634588
0.631094
0.613944
0.603826
0.499244
0.490658
0.357238
0.35371
0.326032
0.345217
0.337605
0.254547
0.250082
0.181711
0.174771
0.159857
0.17238
0.169949
0.154659
0.160418
0.139461
0.167279
0.165887
0.186723
0.193926
0.195093
0.153563
0.142374
0.0722099
0.0717121
0.0457317
0.0758927
0.0776534
0.103264
0.108278
0.113957
0.111552
0.106661
0.0576076
0.0423263
0.0370354
0.0409984
0.0421676
0.0427459
0.0510003
0.0509672
0.0530186
0.0671973
0.0669595
0.0780474
0.0807794
0.0834702
0.094237
0.0957093
0.0978283
0.117057
0.117463
0.12396
0.138619
0.137801
0.153461
0.175857
0.176317
0.202615
0.207729
0.224088
0.245571
0.248859
0.259066
0.300715
0.30736
0.345725
0.402228
0.408455
0.441452
0.501162
0.507734
0.543181
0.606487
0.611691
0.639106
0.688949
0.692344
0.709981
0.746385
0.748551
0.760692
0.78781
0.789702
0.800176
0.818859
0.831226
0.829939
0.840312
0.852944
0.851902
0.848673
0.868707
0.867565
0.841569
0.878712
0.877561
0.869744
0.884472
0.883568
0.882122
0.884896
0.887806
0.885136
0.863561
0.884678
0.882399
0.864841
0.87727
0.875325
0.867967
0.8632
0.861995
0.858575
0.815157
0.847538
0.844883
0.831961
0.828627
0.822435
0.818191
0.776816
0.802768
0.799913
0.785289
0.781182
0.774469
0.770324
0.723573
0.755004
0.752552
0.740514
0.733907
0.729961
0.726794
0.702754
0.714521
0.709848
0.705462
0.687675
0.698663
0.696873
0.688562
0.689026
0.688391
0.686109
0.668472
0.678492
0.674573
0.67099
0.640603
0.669914
0.669135
0.665741
0.663073
0.667531
0.666272
0.660934
0.66285
0.662649
0.660883
0.651537
0.65555
0.652044
0.649468
0.630129
0.638192
0.631743
0.628315
0.591842
0.610283
0.600878
0.596602
0.553163
0.575062
0.572334
0.558894
0.52294
0.53315
0.530432
0.517105
0.488302
0.493745
0.490714
0.475975
0.448632
0.453898
0.451806
0.442009
0.416154
0.428258
0.426819
0.420059
0.391031
0.412483
0.410045
0.408146
0.38863
0.400444
0.397051
0.395165
0.384478
0.391399
0.390579
0.389379
0.384769
0.38914
0.388719
0.387829
0.385531
0.386576
0.385949
0.385016
0.380485
0.370626
0.362695
0.360529
0.350578
0.337422
0.333529
0.331358
0.321389
0.298401
0.302805
0.294846
0.292326
0.281336
0.277838
0.271944
0.197159
0.261247
0.257603
0.253863
0.252849
0.248851
0.240707
0.243773
0.241253
0.239881
0.233353
0.234992
0.232426
0.231415
0.227814
0.226738
0.224593
0.223904
0.221123
0.214354
0.217609
0.215916
0.214799
0.21016
0.210446
0.208154
0.207265
0.203617
0.201151
0.197595
0.196679
0.192306
0.179641
0.184021
0.180051
0.178787
0.173468
0.170203
0.166243
0.165321
0.161125
0.151286
0.154003
0.150038
0.148763
0.144278
0.142116
0.139705
0.13907
0.136332
0.132939
0.132368
0.0903001
0.129401
0.12695
0.126931
0.126332
0.126016
0.124944
0.123661
0.123771
0.122685
0.122139
0.120113
0.119437
0.117956
0.11754
0.11591
0.112695
0.113838
0.113164
0.112798
0.112085
0.113426
0.11521
0.115673
0.1188
0.115114
0.0980646
0.132706
0.133554
0.13882
0.144603
0.149063
0.149789
0.153461
0.155417
0.159814
0.161505
0.161722
0.162924
0.163815
0.164126
0.164051
0.163856
0.162831
0.162509
0.161266
0.160913
0.159027
0.151185
0.153877
0.151084
0.150303
0.146999
0.143577
0.139665
0.13895
0.135415
0.131828
0.130447
0.129135
0.128806
0.127645
0.127188
0.127849
0.128409
0.12839
0.128825
0.129838
0.130956
0.131761
0.131897
0.132834
0.133253
0.135046
0.135832
0.135998
0.136821
0.108201
0.144142
0.147881
0.148444
0.151331
0.155577
0.157763
0.1584
0.163453
0.167008
0.175734
0.176817
0.183539
0.192229
0.198145
0.199588
0.202207
0.202853
0.202808
0.202523
0.202734
0.202423
0.20267
0.195986
0.185789
0.184425
0.167174
0.146792
0.143485
0.124993
0.113324
0.111636
0.102471
0.096046
0.0951644
0.0911227
0.0907921
0.0908697
0.0934496
0.0982457
0.0993494
0.10518
0.107188
0.121617
0.140731
0.143405
0.164858
0.184774
0.186973
0.191863
0.173991
0.171748
0.137475
0.115462
0.112034
0.0988071
0.0878775
0.0862248
0.0773587
0.0702253
0.0685799
0.0684554
0.0685372
0.0715142
0.0724054
0.0811919
0.0961385
0.114622
0.118873
0.137691
0.143477
0.143934
0.142468
0.128358
0.12486
0.108355
0.0954582
0.0832501
0.0814509
0.0727892
0.0655151
0.0653343
0.0658586
1.35864
1.16418
1.13292
0.9226
0.849027
0.813822
0.808698
0.788662
0.768868
0.751745
0.747928
0.73562
0.721201
0.711195
0.70034
0.699923
0.689769
0.68208
0.672993
0.672591
0.66633
0.658419
0.650559
0.650085
0.644792
0.637806
0.630543
0.629897
0.624846
0.618165
0.610683
0.609784
0.604389
0.597392
0.589179
0.587996
0.581978
0.573492
0.564304
0.562792
0.554341
0.544844
0.532071
0.529992
0.519641
0.50431
0.489615
0.486465
0.468601
0.450501
0.424159
0.419799
0.398046
0.357788
0.323988
0.316429
0.269592
0.258379
0.261256
0.266129
0.318167
0.371769
0.400425
0.405411
0.431939
0.451465
0.468899
0.47388
0.494805
0.526407
0.553771
0.558106
0.581048
0.617402
0.638499
0.642152
0.657127
0.691113
0.691383
0.710973
0.735345
0.751683
0.751457
0.768176
0.792562
0.803964
0.803683
0.816741
0.840358
0.851217
0.851728
0.859425
0.886665
0.896859
0.898063
0.916441
0.930494
0.928531
0.940668
0.964062
0.971836
0.970723
0.975907
1.00274
1.01047
1.0105
1.03184
1.04117
1.03839
1.04734
1.07207
1.07883
1.07758
1.08273
1.10837
1.10441
1.11293
1.13859
1.144
1.14177
1.14636
1.1718
1.16714
1.17279
1.2003
1.20497
1.20196
1.22616
1.23218
1.22737
1.22587
1.25885
1.25179
1.25733
1.28545
1.28966
1.28467
1.31168
1.31598
1.30992
1.31386
1.33966
1.33244
1.32993
1.36409
1.35507
1.35391
1.38473
1.37387
1.3771
1.40981
1.39768
1.40306
1.43591
1.43927
1.42836
1.46269
1.46708
1.45632
1.48955
1.4923
1.47862
1.51341
1.49797
1.50001
1.53431
1.51971
1.51503
1.55552
1.5402
1.53223
1.57521
1.56242
1.56718
1.61491
1.58102
1.61552
1.6198
1.59544
1.63944
1.62018
1.6162
1.65685
1.64251
1.67276
1.65331
1.65132
1.69659
1.675
1.68688
1.71381
1.68843
1.7359
1.71126
1.72505
1.75994
1.73299
1.80431
1.77927
1.82385
1.7843
1.72967
1.75053
1.71247
1.76872
1.7292
1.78982
1.74982
1.76266
1.71939
1.58912
1.54672
1.26459
1.30987
1.17777
1.17929
1.12048
1.12238
1.06212
1.06345
0.99798
0.959159
0.948927
0.907353
0.903164
0.859203
0.857775
0.837694
0.838453
0.808179
0.802248
0.739527
0.718419
0.625915
0.635686
0.638019
0.620467
0.612951
0.52067
0.498921
0.389925
0.359208
0.355148
0.352242
0.347875
0.268276
0.255055
0.192472
0.178645
0.175876
0.178853
0.175709
0.171412
0.16344
0.160383
0.171187
0.171565
0.197846
0.196996
0.224178
0.156056
0.146189
0.0768618
0.0727972
0.0558812
0.0774206
0.0799736
0.110201
0.109513
0.123893
0.113755
0.108669
0.0660137
0.042926
0.0389587
0.0426321
0.042639
0.0492516
0.0518562
0.0518912
0.0595277
0.0677804
0.0689839
0.0800254
0.0811931
0.0880705
0.0953632
0.0963995
0.113717
0.117915
0.118579
0.131235
0.139433
0.139371
0.156567
0.176523
0.178356
0.204471
0.208416
0.228588
0.248583
0.249933
0.268679
0.303786
0.309064
0.358231
0.405509
0.41066
0.458907
0.505556
0.510842
0.564775
0.611775
0.616075
0.661443
0.695456
0.697415
0.729313
0.754476
0.754484
0.776385
0.797379
0.796078
0.812479
0.830887
0.838143
0.839941
0.857187
0.860302
0.860751
0.87959
0.876706
0.875832
0.876373
0.887703
0.885642
0.890935
0.895219
0.891698
0.89418
0.901111
0.896451
0.8951
0.907604
0.894257
0.891691
0.891697
0.888568
0.884475
0.880455
0.882122
0.871649
0.868893
0.861691
0.858217
0.854554
0.847064
0.843377
0.832229
0.828895
0.820576
0.813266
0.809649
0.800323
0.79539
0.784134
0.780676
0.773217
0.765364
0.761961
0.752948
0.750276
0.739336
0.736321
0.731607
0.725037
0.718734
0.715551
0.722151
0.707858
0.705632
0.700892
0.701958
0.697039
0.694916
0.693018
0.688274
0.68288
0.680036
0.692412
0.678714
0.677304
0.675422
0.681732
0.675929
0.674442
0.672109
0.674555
0.670809
0.669058
0.666114
0.665246
0.659987
0.657602
0.653163
0.646931
0.639389
0.636284
0.633508
0.618275
0.608047
0.604172
0.59585
0.582282
0.579009
0.5659
0.564522
0.539619
0.536447
0.523392
0.521871
0.49938
0.495961
0.481406
0.479376
0.458734
0.456296
0.446699
0.449243
0.432578
0.430798
0.424236
0.422132
0.416523
0.413729
0.412004
0.414706
0.404349
0.400576
0.398796
0.3962
0.395369
0.394115
0.392976
0.391435
0.393372
0.392318
0.391422
0.390436
0.391311
0.389575
0.388585
0.38463
0.376643
0.366091
0.363807
0.354024
0.351441
0.336636
0.334284
0.324331
0.3166
0.305623
0.297328
0.294804
0.285435
0.28047
0.274028
0.271413
0.263585
0.260674
0.255613
0.254526
0.250617
0.253566
0.245423
0.242787
0.241449
0.237797
0.236719
0.233932
0.232912
0.229735
0.228992
0.226107
0.225371
0.222699
0.226071
0.219118
0.217322
0.216223
0.213112
0.212006
0.20947
0.208561
0.2051
0.203517
0.198829
0.197861
0.193512
0.189887
0.185189
0.181094
0.179822
0.174799
0.171535
0.167169
0.166216
0.162054
0.163208
0.154864
0.150821
0.149542
0.145464
0.143041
0.140417
0.139761
0.137069
0.137679
0.133028
0.130663
0.129997
0.127947
0.127603
0.126845
0.126511
0.125471
0.127052
0.124233
0.123113
0.122563
0.120833
0.119961
0.118357
0.11793
0.116331
0.11773
0.114236
0.113532
0.113168
0.112629
0.113919
0.115568
0.116012
0.119182
0.12584
0.128397
0.133069
0.133914
0.139288
0.145204
0.149447
0.150159
0.153863
0.15715
0.160276
0.161935
0.162153
0.163421
0.164929
0.164614
0.164542
0.164353
0.163644
0.163115
0.161803
0.161442
0.159591
0.16081
0.154439
0.151612
0.150826
0.147596
0.144266
0.140154
0.139421
0.135876
0.132945
0.130885
0.129509
0.12917
0.128013
0.128694
0.128166
0.128711
0.128682
0.129205
0.130412
0.131268
0.132055
0.132189
0.133145
0.13387
0.135433
0.136153
0.13632
0.137159
0.137994
0.144543
0.148261
0.148823
0.151783
0.156048
0.158172
0.158807
0.163922
0.167461
0.205078
0.177213
0.184158
0.192584
0.198477
0.199922
0.202615
0.203086
0.203028
0.202821
0.202782
0.202461
0.202706
0.195973
0.185731
0.184426
0.167146
0.146782
0.143473
0.124986
0.11332
0.111631
0.102476
0.0960563
0.0951812
0.0911524
0.090834
0.0909217
0.0935156
0.0983361
0.0994368
0.105276
0.107273
0.121655
0.1407
0.14336
0.164634
0.184734
0.186911
0.191819
0.173918
0.171735
0.137455
0.115441
0.112025
0.098802
0.087882
0.0862308
0.0773595
0.0702432
0.0686104
0.0684947
0.0686189
0.0715595
0.0724453
0.0812087
0.0961341
0.114597
0.118844
0.137668
0.143436
0.143906
0.142443
0.128317
0.12486
0.108321
0.0954547
0.0832448
0.0814528
0.0728018
0.0655143
0.0653478
0.0658627
0.859781
0.866426
0.863743
0.799678
0.766468
0.748405
0.745494
0.733303
0.72046
0.70898
0.706484
0.696718
0.687624
0.677595
0.669574
0.668383
0.660968
0.653362
0.646528
0.645549
0.639796
0.633134
0.62716
0.626299
0.621147
0.615292
0.609736
0.608881
0.603904
0.598232
0.592496
0.591551
0.586365
0.580323
0.57407
0.57297
0.56712
0.560083
0.552748
0.551379
0.544034
0.535435
0.525927
0.524114
0.514394
0.502476
0.489773
0.487286
0.473301
0.456094
0.437212
0.433415
0.411627
0.382713
0.348823
0.34277
0.310346
0.287824
0.271926
0.274969
0.320944
0.360104
0.384849
0.389134
0.411989
0.433737
0.451353
0.454061
0.466279
0.487625
0.50838
0.511959
0.532751
0.561436
0.580551
0.583699
0.604595
0.627849
0.629361
0.647254
0.673773
0.686059
0.686997
0.702207
0.725438
0.736583
0.73716
0.749424
0.770253
0.78133
0.781927
0.793066
0.813669
0.824299
0.824924
0.846574
0.854506
0.853811
0.864778
0.885934
0.893921
0.893393
0.902072
0.922218
0.930772
0.930381
0.953268
0.958326
0.956778
0.965563
0.986405
0.993738
0.992552
1.00199
1.02025
1.01785
1.02606
1.04782
1.05382
1.05186
1.0607
1.07879
1.0757
1.0826
1.1046
1.11009
1.1074
1.13192
1.13441
1.13079
1.1396
1.15822
1.15323
1.15953
1.18204
1.18601
1.18193
1.20889
1.21084
1.20608
1.21442
1.23296
1.22737
1.23505
1.25589
1.24894
1.25301
1.27379
1.26515
1.26932
1.2947
1.28451
1.28967
1.31682
1.31737
1.30948
1.33851
1.34141
1.33369
1.36395
1.36532
1.35702
1.38626
1.37361
1.37758
1.4024
1.38994
1.39541
1.42062
1.40762
1.41046
1.43562
1.42869
1.43871
1.47543
1.44897
1.48006
1.50076
1.4686
1.4987
1.49575
1.49134
1.51642
1.50278
1.53756
1.51556
1.52141
1.55157
1.5337
1.55793
1.56569
1.55054
1.58412
1.5636
1.57365
1.60477
1.59052
1.64478
1.62417
1.66903
1.63012
1.59066
1.5831
1.5555
1.58206
1.55261
1.5902
1.55989
1.58062
1.54874
1.46534
1.43082
1.24635
1.23364
1.09909
1.09222
1.03039
1.02483
0.976059
0.970606
0.92199
0.890862
0.880741
0.853653
0.851644
0.824593
0.823535
0.809676
0.809367
0.794575
0.79166
0.760948
0.747104
0.69189
0.680754
0.676079
0.689031
0.686589
0.622766
0.609093
0.52743
0.481556
0.465069
0.459483
0.451475
0.371804
0.361182
0.29676
0.279284
0.268964
0.271077
0.266438
0.248382
0.244907
0.226284
0.240746
0.23975
0.261133
0.260688
0.269103
0.19847
0.187361
0.11209
0.109218
0.0860295
0.113994
0.116438
0.147588
0.149366
0.160952
0.14956
0.143936
0.0917077
0.0650626
0.0591326
0.0616718
0.0621717
0.0669391
0.0734495
0.0737404
0.0796139
0.0876526
0.0880689
0.0948206
0.0959597
0.101305
0.110842
0.112411
0.126234
0.135335
0.136727
0.148705
0.159505
0.160397
0.175696
0.194337
0.197448
0.225194
0.230191
0.258534
0.291018
0.294388
0.316998
0.359403
0.365487
0.411041
0.469684
0.476193
0.524757
0.586884
0.593737
0.646402
0.709119
0.714912
0.755459
0.802157
0.805166
0.83245
0.867889
0.869362
0.888135
0.915912
0.916502
0.930698
0.952185
0.963741
0.962878
0.97895
0.988449
0.987321
0.997006
1.00725
1.00584
1.01022
1.02099
1.01925
1.01854
1.03091
1.02893
1.02971
1.03699
1.03761
1.03506
1.03372
1.03755
1.0349
1.02669
1.03309
1.0301
1.02459
1.02459
1.01931
1.01592
1.00964
1.00628
1.00288
0.99254
0.989856
0.981006
0.97692
0.968364
0.961353
0.957754
0.945353
0.940978
0.931211
0.927174
0.918292
0.910814
0.907421
0.896307
0.891466
0.882895
0.87954
0.865162
0.866598
0.860081
0.856219
0.850948
0.847702
0.845329
0.838323
0.8388
0.834949
0.83258
0.82295
0.825637
0.820869
0.817822
0.817246
0.815783
0.814268
0.811371
0.813142
0.811451
0.809814
0.805692
0.807595
0.804576
0.802638
0.795938
0.796911
0.791459
0.788879
0.776812
0.776436
0.768035
0.764672
0.747553
0.744321
0.732721
0.728527
0.716982
0.703233
0.699495
0.684692
0.667249
0.654862
0.651132
0.635965
0.620034
0.607658
0.603613
0.58664
0.570953
0.559591
0.55664
0.545229
0.533754
0.527555
0.525344
0.517424
0.512719
0.50739
0.503804
0.501994
0.494714
0.492652
0.48833
0.486503
0.47971
0.482535
0.481206
0.480091
0.477113
0.480326
0.479254
0.478345
0.476713
0.477528
0.475728
0.474623
0.470113
0.459979
0.448905
0.446239
0.435213
0.426417
0.415011
0.412156
0.400905
0.385085
0.378876
0.368825
0.366064
0.354264
0.348222
0.339926
0.337637
0.327095
0.322198
0.316051
0.314635
0.309582
0.306344
0.302553
0.299272
0.297902
0.292603
0.29252
0.289545
0.288507
0.285056
0.284191
0.281216
0.280356
0.277495
0.275909
0.273199
0.2707
0.269573
0.265259
0.264046
0.260742
0.259687
0.25545
0.252767
0.247619
0.24639
0.241403
0.23309
0.231298
0.22642
0.225047
0.219105
0.215023
0.20984
0.20868
0.203872
0.199313
0.195236
0.190341
0.188976
0.184176
0.181309
0.178185
0.177406
0.174344
0.172685
0.169242
0.166274
0.165319
0.162425
0.1615
0.15999
0.159501
0.157801
0.157395
0.155145
0.153424
0.15279
0.150426
0.149299
0.14738
0.146874
0.145059
0.144221
0.142689
0.141869
0.14151
0.140847
0.142164
0.143831
0.144261
0.147506
0.151292
0.156992
0.161988
0.162854
0.168291
0.174387
0.178766
0.179506
0.183329
0.18608
0.190224
0.192351
0.192636
0.194298
0.196145
0.196626
0.196993
0.196895
0.196447
0.196442
0.195321
0.194959
0.193257
0.190524
0.188081
0.184913
0.184087
0.180461
0.176561
0.172149
0.171253
0.167293
0.163367
0.160898
0.158766
0.158287
0.156443
0.155977
0.155257
0.155382
0.155301