/*--------------------------------*- C++ -*----------------------------------*\
| =========                 |                                                 |
| \\      /  F ield         | OpenFOAM: The Open Source CFD Toolbox           |
|  \\    /   O peration     | Version:  v2012                                 |
|   \\  /    A nd           | Website:  www.openfoam.com                      |
|    \\/     M anipulation  |                                                 |
\*---------------------------------------------------------------------------*/
FoamFile
{
    version     2.0;
    format      ascii;
    class       volScalarField;
    location    "1e-06";
    object      kPrime2Mean;
}
// * * * * * * * * * * * * * * * * * * * * * * * * * * * * * * * * * * * * * //

dimensions      [0 4 -4 0 0 0 0];


internalField   nonuniform List<scalar> 
102000
(
0.00256672
2.1696e-05
7.49281e-05
1.09474e-07
2.87441e-06
1.20912e-06
3.35737e-07
1.43206e-06
2.2354e-06
9.38669e-07
1.92089e-07
9.98735e-07
2.30783e-06
8.97259e-07
1.86316e-07
7.73048e-07
1.98156e-06
8.86004e-07
2.29447e-07
6.26402e-07
1.51305e-06
8.98733e-07
2.62211e-07
5.12065e-07
1.27294e-06
9.0157e-07
2.86024e-07
4.19379e-07
1.09661e-06
8.84684e-07
3.05459e-07
3.48537e-07
9.50092e-07
8.54261e-07
3.16569e-07
2.95506e-07
8.09565e-07
8.02484e-07
2.94031e-07
2.29313e-07
6.88917e-07
7.03921e-07
2.86126e-07
2.00322e-07
5.50161e-07
5.74897e-07
2.07627e-07
1.19009e-07
4.0163e-07
4.07142e-07
4.84289e-08
1.30666e-07
7.73201e-08
5.37533e-09
1.7596e-07
2.18396e-08
7.06823e-07
7.61777e-07
9.71174e-08
1.24678e-07
5.13854e-07
6.07808e-07
1.48583e-07
3.03748e-07
7.67438e-07
1.12302e-06
7.56117e-07
7.45949e-07
1.56909e-06
1.73986e-06
3.39111e-07
6.68407e-07
1.77393e-06
1.81168e-06
2.80863e-07
1.02146e-06
1.23357e-06
1.86904e-06
2.44358e-07
1.97256e-06
8.66872e-06
2.83313e-06
1.00031e-06
3.16235e-06
7.65372e-06
2.35365e-06
1.11996e-06
3.08666e-06
5.37176e-06
1.02253e-06
1.37691e-06
4.00129e-06
4.48353e-06
4.48845e-07
2.27824e-06
1.4508e-05
3.23521e-06
6.45059e-07
3.70574e-06
1.02065e-05
2.12616e-06
1.68889e-06
5.39508e-06
7.29204e-06
7.13157e-07
3.12852e-06
2.04663e-05
4.04308e-06
1.10789e-06
5.32521e-06
1.16224e-05
1.6787e-06
3.28659e-06
4.73586e-05
3.75505e-06
8.98247e-07
5.64352e-06
1.53433e-05
2.40164e-06
4.06168e-06
1.43301e-08
4.33722e-06
1.17872e-06
6.6985e-06
1.53491e-05
1.28806e-06
4.07462e-06
3.30043e-05
6.56636e-06
5.76461e-06
1.83869e-05
2.16174e-05
5.87914e-06
1.5434e-05
3.55395e-05
9.93547e-06
1.10068e-05
4.52554e-05
8.32624e-06
6.02861e-06
7.41385e-05
4.18011e-06
1.97154e-06
1.20108e-05
1.58113e-05
1.19851e-06
8.34627e-06
2.1841e-05
3.71217e-07
6.50183e-06
2.89291e-05
1.5887e-07
5.3436e-06
3.50468e-05
1.94691e-06
4.13623e-06
3.92721e-05
2.46163e-06
3.00367e-06
3.8252e-05
2.17039e-06
4.28344e-06
5.2813e-05
6.49926e-06
0.00132624
3.96864e-07
6.69194e-05
4.72558e-05
1.50219e-05
0.00024568
4.40153e-05
7.28119e-05
0.00117282
0.00448777
1.94613e-05
0.000429083
6.85865e-05
4.89567e-05
0.000229861
4.48271e-05
0.000196261
0.000494454
0.00172984
0.00183484
0.00225782
0.00186893
0.00207857
0.00237199
0.00209054
0.00267163
0.00242523
0.00235438
0.00276256
0.002352
0.00261176
0.00258741
0.00269324
0.00317464
0.00268152
0.00410611
0.00358669
0.00332177
0.00363531
0.00344087
0.00412137
0.00361816
0.00416984
0.00359039
0.00329013
0.00288768
0.00156738
0.0014888
0.000320516
0.000270999
6.50177e-05
4.11321e-05
1.56489e-05
1.8273e-05
3.29241e-05
9.72309e-06
2.78386e-05
4.00875e-06
2.23198e-05
2.60541e-06
1.7794e-05
6.86654e-06
1.2933e-05
4.29256e-07
5.26041e-07
4.7237e-07
6.12331e-09
8.11566e-07
1.06898e-07
2.38304e-07
4.54716e-06
2.01933e-06
1.39378e-06
1.90158e-06
2.5889e-07
2.83019e-07
2.72179e-08
1.19745e-07
1.53875e-07
5.33803e-08
1.92444e-08
1.18846e-08
4.44264e-09
2.23181e-08
9.54028e-08
3.32083e-08
1.71549e-08
1.61302e-08
2.62032e-08
1.37507e-08
1.97589e-08
2.3005e-08
2.77067e-08
3.80577e-08
2.52216e-08
5.23629e-09
1.39522e-08
2.22608e-08
3.67123e-09
2.94716e-09
7.18511e-11
1.79125e-09
2.12888e-09
9.18472e-09
4.05709e-09
1.44687e-08
1.14793e-08
1.12643e-08
1.6749e-09
1.18955e-10
2.1622e-10
9.1903e-11
2.87834e-12
1.60466e-10
1.05681e-11
1.8876e-11
5.46738e-13
7.18239e-11
9.70432e-12
1.08456e-10
1.0251e-10
2.20639e-09
2.98116e-09
2.57039e-09
7.16016e-10
2.98722e-09
4.36057e-09
7.17453e-09
1.38085e-09
2.16335e-09
2.08626e-09
2.14253e-09
3.95477e-10
8.73451e-09
6.45954e-09
4.05752e-11
5.01727e-10
5.39295e-10
1.53879e-07
2.93305e-07
2.36313e-07
6.88468e-07
5.63577e-07
4.86267e-07
1.05666e-06
8.40716e-07
1.61383e-07
1.10171e-06
4.91967e-07
4.57581e-07
2.25602e-06
1.61987e-06
1.1723e-06
2.52485e-06
1.71998e-06
1.07908e-06
2.46161e-06
1.86914e-06
1.00983e-06
2.17069e-06
1.85055e-06
8.0568e-07
1.81773e-06
1.88837e-06
9.02957e-07
1.47838e-06
1.88023e-06
9.7572e-07
1.24499e-06
1.17562e-07
1.02537e-06
8.14672e-07
1.67361e-06
1.06735e-06
5.84076e-07
1.19328e-06
1.14517e-06
5.61414e-07
8.83698e-07
1.14493e-06
6.89911e-07
6.27054e-07
1.3237e-06
8.26863e-07
4.16237e-07
9.31382e-07
9.98042e-07
5.00634e-07
7.61903e-07
7.89226e-08
6.51482e-07
4.12107e-07
8.94007e-07
7.95959e-07
3.86755e-07
6.89274e-07
6.27187e-08
5.22913e-07
3.5471e-07
7.45797e-07
6.54181e-07
3.1936e-07
5.4705e-07
4.37513e-08
4.5738e-07
2.77328e-07
5.63985e-07
5.76354e-07
2.97217e-07
3.42967e-07
6.7391e-07
4.16537e-07
1.93597e-07
3.96281e-07
5.40151e-07
3.01697e-07
2.34134e-07
4.5205e-07
4.23724e-07
2.24001e-07
2.7428e-07
5.34028e-07
3.38806e-07
1.64905e-07
3.40125e-07
2.56593e-08
2.73435e-07
1.71143e-07
3.34504e-07
4.06881e-07
2.26151e-07
1.94773e-07
3.69641e-07
3.45147e-07
1.83978e-07
2.06674e-07
3.88207e-07
2.87075e-07
1.44688e-07
2.03531e-07
3.88704e-07
2.30932e-07
9.96077e-08
1.88702e-07
2.92863e-07
1.75249e-07
6.91208e-08
1.73141e-07
1.99041e-08
1.32862e-07
7.09168e-08
1.23567e-07
1.41702e-07
9.21561e-08
5.59677e-08
9.56002e-08
1.51575e-07
8.39104e-08
5.71713e-08
1.03208e-07
1.39085e-07
9.6115e-08
6.14427e-08
9.68266e-08
1.04335e-07
7.54579e-08
4.46039e-08
7.91367e-08
3.81826e-10
7.30099e-08
3.69694e-08
7.084e-08
1.15363e-07
6.90459e-08
3.59615e-08
5.86029e-08
1.03515e-07
6.39901e-08
3.57022e-08
4.92866e-08
8.75144e-08
6.42457e-08
3.65104e-08
4.20814e-08
7.45685e-08
6.65134e-08
3.63902e-08
3.62934e-08
6.13092e-08
6.27484e-08
3.67226e-08
2.63181e-08
4.51955e-08
5.54267e-08
3.2544e-08
1.72609e-08
3.12233e-08
5.14874e-08
2.59572e-08
1.34726e-08
1.7879e-08
3.47702e-08
2.40954e-08
1.46097e-08
1.60946e-08
2.70905e-08
2.68953e-08
1.59113e-08
1.24038e-08
2.11552e-08
2.68203e-08
1.6004e-08
7.75775e-09
1.44148e-08
2.35225e-08
1.39135e-08
7.05068e-09
8.16696e-09
1.33731e-08
1.19849e-08
5.29871e-09
5.05066e-09
7.66704e-09
1.07185e-08
6.29836e-09
3.06262e-09
6.64883e-09
1.108e-08
9.47735e-09
6.32229e-09
6.53478e-09
1.03926e-08
1.11959e-08
6.81972e-09
4.35089e-09
7.13807e-09
1.03238e-08
4.94833e-09
2.46655e-09
3.35532e-09
4.51281e-09
3.53402e-09
1.7632e-09
1.09454e-09
2.27687e-09
2.86873e-09
2.05114e-09
1.18519e-09
1.78859e-09
3.07624e-09
2.76381e-09
1.59154e-09
1.37907e-09
2.33214e-09
3.03062e-09
2.14364e-09
1.50176e-09
2.3162e-09
3.41546e-09
2.97467e-09
1.92607e-09
1.8196e-09
3.07036e-09
4.09415e-09
2.81908e-09
1.59313e-09
2.55294e-09
3.94344e-09
3.25163e-09
1.89831e-09
1.57852e-09
2.48445e-09
3.03443e-09
1.97302e-09
1.08818e-09
1.56612e-09
2.47258e-09
2.32741e-09
1.56462e-09
1.29757e-09
2.37452e-09
2.21727e-09
8.90556e-09
1.36675e-09
2.5475e-09
4.49517e-09
5.14082e-09
3.65468e-09
2.81198e-09
4.60402e-09
7.21746e-09
5.17011e-09
3.19727e-09
3.33824e-09
4.8715e-09
5.28959e-09
3.25054e-09
1.73611e-09
2.62342e-09
3.75923e-09
2.83663e-09
1.26171e-09
1.19801e-09
1.67612e-09
2.00417e-09
1.25013e-09
1.80513e-10
8.09668e-10
7.67877e-10
1.00781e-09
6.07016e-10
4.92723e-10
6.75381e-10
7.63867e-10
4.10782e-10
5.20177e-10
2.46619e-10
1.02675e-09
1.39304e-09
9.7803e-10
6.16482e-10
9.62921e-10
1.4827e-09
1.53601e-09
1.15646e-09
8.31243e-10
7.78292e-10
1.10305e-09
1.55183e-09
1.24949e-09
7.99076e-10
5.51423e-10
8.35278e-10
1.31205e-09
9.33254e-10
5.16698e-10
6.09719e-10
1.09739e-09
1.10417e-09
7.11731e-10
6.96837e-10
1.26735e-09
3.69641e-10
1.26976e-09
6.59225e-11
1.63349e-09
5.07193e-10
2.68573e-10
2.80529e-09
2.3293e-09
5.57372e-10
3.69539e-09
3.40905e-09
6.23973e-09
4.49718e-09
1.1511e-08
9.75147e-09
2.54243e-09
7.96438e-09
7.61289e-09
5.33117e-10
4.01968e-09
4.13123e-09
1.39099e-09
2.24674e-09
2.52317e-09
8.50471e-10
1.37554e-09
1.38656e-09
4.95604e-10
8.75885e-10
8.29514e-10
3.5876e-10
7.90001e-10
1.14019e-09
1.95602e-09
4.01085e-09
1.26961e-08
2.72884e-10
9.85451e-09
2.49231e-09
5.05827e-09
9.80119e-09
2.23781e-08
4.36974e-09
1.60597e-09
1.32777e-09
1.55166e-09
2.24205e-09
8.27518e-10
3.89262e-10
8.63103e-10
4.73825e-10
1.63805e-10
2.47737e-10
2.96551e-10
2.92344e-10
4.86451e-10
1.25357e-09
1.3394e-09
1.50496e-10
2.05077e-09
3.59157e-09
1.11795e-09
1.42714e-09
4.00253e-09
2.15097e-10
1.87251e-10
1.36776e-09
1.23173e-09
3.93633e-10
4.1761e-10
8.60727e-10
3.10922e-10
1.62473e-10
4.58508e-10
0.000178821
5.90783e-06
1.31491e-05
1.07545e-06
1.51595e-06
6.3533e-07
4.02565e-07
8.27688e-07
1.14709e-06
5.07322e-07
2.31381e-07
5.6848e-07
1.09139e-06
4.58662e-07
1.54169e-07
4.39672e-07
9.19958e-07
4.41014e-07
1.59453e-07
3.4821e-07
7.0766e-07
4.263e-07
1.64387e-07
2.84612e-07
5.84052e-07
4.12594e-07
1.66787e-07
2.36847e-07
4.93104e-07
3.96118e-07
1.63195e-07
1.96812e-07
4.16848e-07
3.70086e-07
1.53372e-07
1.6204e-07
3.51305e-07
3.29734e-07
1.38886e-07
1.3249e-07
2.80138e-07
2.8339e-07
1.10402e-07
1.00573e-07
2.15983e-07
2.01942e-07
8.17794e-08
7.10743e-08
1.31476e-07
1.35627e-07
3.58945e-08
3.49014e-08
7.47024e-08
2.78462e-08
6.27884e-09
9.01012e-09
3.91572e-10
8.83779e-08
2.59478e-08
1.79566e-08
1.00567e-07
2.29742e-07
1.01322e-07
1.04329e-07
2.93264e-07
3.18656e-07
1.52784e-07
3.94896e-07
4.89234e-07
6.14356e-07
2.82673e-07
3.40502e-07
8.07057e-07
9.21639e-07
3.23517e-07
5.95113e-07
7.18692e-07
1.06168e-06
2.45256e-07
1.00848e-06
3.59111e-06
1.14276e-06
4.83621e-07
1.48433e-06
3.19476e-06
1.12762e-06
7.22462e-07
1.84368e-06
2.77237e-06
9.2268e-07
1.09332e-06
2.43056e-06
2.54575e-06
7.07366e-07
1.66103e-06
7.00802e-06
1.987e-06
8.04899e-07
2.59393e-06
5.24267e-06
1.62126e-06
1.51824e-06
3.56727e-06
4.07464e-06
1.07684e-06
2.54543e-06
1.03808e-05
2.66678e-06
1.38764e-06
3.96979e-06
6.47896e-06
1.74839e-06
2.75883e-06
4.23872e-06
4.70878e-06
1.4696e-06
4.67019e-06
8.69303e-06
2.28446e-06
3.4252e-06
1.95859e-06
4.52641e-06
1.96426e-06
5.9436e-06
9.5927e-06
2.19468e-06
4.42211e-06
1.85215e-05
4.08833e-06
3.63316e-06
8.48582e-06
9.66137e-06
2.75541e-06
8.35041e-06
1.57841e-05
4.23276e-06
6.82577e-06
2.42004e-05
4.75676e-06
4.76465e-06
8.79847e-06
9.55555e-06
3.34084e-06
9.92228e-06
1.15011e-05
2.70578e-06
9.74903e-06
1.63473e-05
2.00389e-06
9.66827e-06
2.11378e-05
1.52663e-06
9.79382e-06
2.62027e-05
4.25015e-06
8.78133e-06
3.06049e-05
4.3836e-06
8.77054e-06
3.10443e-05
3.91836e-06
8.90738e-06
3.25293e-05
1.46415e-06
1.04557e-05
6.18873e-05
1.77837e-05
2.94239e-05
3.82734e-05
1.00579e-05
2.0607e-07
8.29436e-05
8.6001e-06
1.60653e-05
3.41547e-05
2.0917e-05
0.000122284
1.84475e-05
3.43941e-05
2.50035e-05
1.70857e-05
6.59676e-05
5.74832e-05
0.0001013
0.000284103
0.000110314
0.000256161
0.000344154
0.000232904
0.000456093
0.00028544
0.0003328
0.000460095
0.000273757
0.000259845
0.000328553
0.000390666
0.000529837
0.000350534
0.000797888
0.000359061
2.88648e-05
0.00052602
0.000395825
0.000669199
0.000382892
0.000651068
0.000364674
0.000558445
0.000338508
0.000328894
0.00024365
8.69679e-05
8.26846e-05
3.86339e-05
3.28878e-05
2.6591e-05
1.83314e-05
2.03295e-05
1.17496e-05
6.31553e-06
5.21851e-06
1.0585e-06
4.47337e-06
1.22284e-05
2.26616e-06
6.39647e-06
4.80854e-06
5.19793e-06
4.08602e-06
3.13006e-06
1.54407e-06
1.10234e-06
5.76742e-08
1.47736e-08
1.65329e-07
4.1802e-07
5.61182e-07
6.03423e-08
1.89635e-08
8.63191e-09
5.44852e-09
3.12526e-10
1.28303e-07
1.21104e-07
1.26928e-08
7.46216e-09
2.59146e-09
2.60394e-09
4.49544e-10
1.51958e-09
1.23249e-09
5.43214e-10
1.4604e-09
9.99931e-11
1.34128e-09
1.76054e-09
3.50887e-09
5.82457e-09
1.8238e-09
6.66743e-09
3.04434e-09
1.2796e-10
6.81316e-11
1.82632e-10
3.30931e-12
8.43449e-14
3.48597e-12
1.63533e-10
9.68529e-12
5.17373e-11
1.58839e-11
3.5257e-10
1.27052e-10
1.36674e-10
2.09723e-10
1.42646e-10
1.26908e-10
6.94162e-11
6.31589e-11
2.14469e-10
9.15625e-11
2.14774e-10
3.92773e-10
3.17115e-11
1.45162e-10
7.61358e-12
6.49221e-11
2.06688e-10
1.60731e-10
6.47749e-11
5.1629e-12
2.25474e-11
1.15434e-12
2.14401e-12
4.6469e-11
2.37094e-11
9.12057e-12
7.47768e-10
1.84768e-09
1.2896e-11
1.21582e-09
1.36138e-08
4.50215e-08
2.3151e-08
8.15423e-08
6.74685e-08
3.75587e-08
1.36927e-07
8.98275e-08
5.06397e-08
7.53656e-08
4.29283e-08
1.56729e-08
1.56735e-07
8.51135e-08
3.30721e-08
1.4979e-07
7.83981e-08
2.5795e-08
1.09511e-07
6.82298e-08
1.1534e-08
7.98357e-08
5.90603e-08
8.54466e-09
5.696e-08
8.05065e-08
1.23826e-08
4.53318e-08
1.27809e-07
1.65868e-08
3.58403e-08
4.73734e-09
1.79376e-08
1.07311e-08
7.45834e-08
1.39671e-08
4.63199e-10
1.93262e-08
1.38107e-08
3.26545e-09
2.56074e-09
3.43165e-08
7.33057e-09
3.66833e-09
2.85627e-09
1.66866e-08
2.58956e-08
1.58229e-08
2.06695e-08
6.91046e-08
4.65095e-08
1.00759e-07
9.40519e-08
8.42977e-08
8.4693e-08
1.14646e-07
1.46518e-07
1.31152e-07
8.57721e-08
1.80918e-07
1.55342e-07
1.78259e-07
2.05663e-07
2.05019e-07
2.0718e-07
1.78465e-07
2.45311e-07
2.0341e-07
2.49998e-07
2.54293e-07
2.36664e-07
2.27442e-07
2.12513e-07
2.66578e-07
2.11328e-07
2.54078e-07
1.84711e-07
2.46866e-07
2.17273e-07
2.6744e-07
2.69463e-07
2.21259e-07
2.26671e-07
2.25354e-07
2.56134e-07
1.99268e-07
2.43855e-07
9.52288e-08
2.35613e-07
1.96894e-07
2.53319e-07
2.44808e-07
2.30387e-07
2.11824e-07
2.67729e-07
2.7261e-07
2.23212e-07
2.26825e-07
2.6859e-07
2.74627e-07
2.17573e-07
2.3724e-07
2.40527e-07
2.68197e-07
2.08438e-07
2.39107e-07
1.39834e-07
2.48103e-07
1.86145e-07
2.28218e-07
1.02442e-07
2.09616e-07
1.61099e-07
1.94242e-07
7.43351e-08
1.79243e-07
1.39922e-07
1.59716e-07
8.08742e-08
1.28584e-07
1.01543e-07
1.09907e-07
5.26129e-08
8.58652e-08
6.89757e-08
7.58023e-08
2.2926e-08
6.20078e-08
5.00903e-08
5.508e-08
2.88428e-08
5.06713e-08
4.11719e-08
4.71894e-08
2.3165e-08
4.66782e-08
3.94814e-08
4.42045e-08
4.33032e-08
5.26407e-08
4.54199e-08
4.93454e-08
5.92985e-08
6.26542e-08
5.24206e-08
5.39964e-08
6.78109e-08
7.01936e-08
5.89663e-08
5.59163e-08
7.01671e-08
6.8478e-08
5.58174e-08
4.76806e-08
5.69218e-08
4.64745e-08
4.98551e-08
3.86484e-08
4.50317e-08
3.15257e-08
4.02414e-08
2.9958e-08
3.20188e-08
3.15709e-08
2.68196e-08
1.8855e-08
8.8498e-08
1.70263e-08
1.50644e-08
1.14832e-08
1.0091e-08
1.03806e-08
5.8315e-09
8.999e-09
7.90198e-09
8.38418e-09
8.50403e-09
9.73252e-09
8.96868e-09
8.87969e-09
1.07459e-08
1.16984e-08
1.02964e-08
9.15329e-09
1.06312e-08
8.03288e-09
1.07032e-08
8.45785e-09
9.49347e-09
1.03895e-08
1.01927e-08
8.09426e-09
7.83394e-09
9.00403e-09
9.01546e-09
7.66419e-09
6.4327e-09
7.21921e-09
4.80229e-09
6.25594e-09
5.03206e-09
5.14596e-09
5.25306e-09
4.8451e-09
3.83264e-09
3.41903e-09
3.65685e-09
1.79818e-09
3.31245e-09
2.73648e-09
2.84621e-09
3.03642e-09
2.99035e-09
2.46433e-09
2.23235e-09
2.43889e-09
2.01635e-09
1.97622e-09
7.8052e-09
1.53073e-09
1.45118e-09
1.19562e-09
8.61419e-10
7.84196e-10
6.94837e-10
4.56552e-10
4.89401e-10
4.30466e-10
3.84779e-10
3.34496e-10
3.58361e-10
3.67918e-10
3.397e-10
3.33532e-10
1.89046e-10
3.6316e-10
3.56997e-10
3.26127e-10
3.13607e-10
3.13791e-10
2.70754e-10
2.60303e-10
2.10575e-10
1.14914e-11
4.6438e-10
2.02133e-10
1.90209e-10
1.09761e-10
1.01294e-10
1.17177e-10
1.47967e-10
9.68569e-11
3.70767e-11
1.35256e-10
2.49183e-10
2.24953e-10
2.56696e-10
3.74901e-10
5.65916e-10
7.26661e-10
7.02208e-10
9.30187e-10
1.17236e-09
1.2166e-09
1.111e-09
1.43429e-09
8.07414e-10
1.68957e-09
1.33671e-09
1.37973e-09
1.52334e-09
1.47514e-09
1.40507e-09
1.11228e-09
1.25014e-09
1.07623e-09
8.96032e-10
6.04015e-10
5.6037e-10
4.81919e-10
3.6079e-10
2.6555e-10
2.15181e-10
2.06193e-10
1.72751e-10
1.84043e-10
1.80552e-10
1.99117e-10
1.90336e-10
2.17225e-10
2.76711e-10
3.23186e-10
3.47404e-10
3.16876e-10
4.01552e-10
2.41752e-09
6.51003e-10
5.72235e-10
6.01397e-10
8.24502e-10
8.42435e-10
7.50267e-10
7.50064e-10
8.78977e-10
7.95057e-10
3.60212e-10
3.67425e-10
4.13133e-10
3.25309e-11
6.74292e-11
2.01255e-11
2.01896e-11
1.12269e-11
1.70429e-11
9.15593e-10
1.27425e-09
6.723e-10
2.94013e-09
2.7097e-09
8.04347e-10
2.48658e-09
1.9358e-09
4.17416e-10
1.02084e-09
9.32511e-10
2.70551e-10
5.49538e-10
5.61031e-10
1.41206e-10
2.94537e-10
2.22618e-10
3.6475e-11
9.91385e-11
4.60093e-11
1.97953e-12
1.91717e-11
9.41664e-12
2.01841e-12
1.25888e-09
3.72931e-09
3.20074e-09
2.8914e-09
1.68538e-09
2.0213e-09
3.53302e-09
6.08574e-10
1.70026e-09
7.99592e-10
1.94324e-10
3.94548e-10
6.04505e-10
1.93231e-10
1.45843e-10
2.01484e-10
6.64032e-11
5.94e-12
2.18094e-11
1.29575e-11
5.15415e-12
2.0097e-12
3.91139e-10
2.5884e-10
1.81724e-10
5.11804e-10
1.16654e-09
4.91346e-10
5.4981e-10
1.22988e-09
4.41875e-10
1.71448e-10
3.47071e-10
3.24593e-10
7.46983e-11
1.26029e-10
2.20726e-10
4.0456e-11
2.30397e-11
1.03284e-10
3.48717e-05
8.51929e-06
5.27662e-06
4.61217e-07
1.13252e-07
5.25668e-08
4.90368e-08
2.80074e-08
1.55455e-08
1.51481e-08
1.0242e-07
2.29977e-08
1.30258e-08
1.16272e-07
8.16797e-08
1.18024e-07
5.19337e-08
1.18513e-07
9.89661e-08
1.20724e-07
9.61283e-08
1.16743e-07
1.06512e-07
1.20736e-07
1.01661e-07
1.15741e-07
1.06327e-07
1.19211e-07
1.02185e-07
1.11813e-07
1.03714e-07
1.17465e-07
9.62605e-08
1.08343e-07
9.39586e-08
1.14261e-07
8.89433e-08
9.24031e-08
8.40675e-08
1.05847e-07
5.55448e-08
8.8709e-08
3.14215e-08
9.07766e-08
4.8179e-08
9.1657e-09
2.43808e-08
4.31247e-08
1.52215e-08
3.67489e-08
2.32731e-08
2.69737e-08
2.04164e-08
3.29911e-08
2.74583e-08
9.59163e-08
4.53478e-08
4.55824e-08
2.74248e-08
4.12812e-09
2.64742e-08
5.38786e-08
1.19562e-09
2.7591e-09
4.62913e-08
1.60005e-11
8.34369e-08
1.44327e-06
2.49265e-08
1.60056e-08
4.71184e-08
8.88422e-09
5.31852e-08
2.40343e-08
5.67573e-08
4.82755e-08
5.19472e-09
7.02568e-08
2.45017e-08
8.2662e-08
6.81283e-10
8.2568e-08
2.54035e-08
1.11261e-07
4.68309e-08
1.22485e-07
5.91804e-08
1.39138e-07
1.46264e-07
1.57723e-07
1.28673e-07
9.34738e-08
1.61684e-07
1.70415e-07
1.54703e-07
9.69229e-09
1.64115e-07
1.30123e-07
2.05605e-07
2.08053e-07
2.25936e-07
1.90733e-07
1.4621e-07
2.5893e-07
2.48643e-07
2.25081e-07
1.27617e-07
2.45087e-07
2.057e-07
2.7381e-07
3.64519e-07
2.89586e-07
2.6015e-07
1.68303e-06
2.48619e-07
2.28682e-07
3.22991e-07
4.82339e-07
3.04801e-07
2.81016e-07
1.64099e-08
2.53293e-07
2.74377e-07
3.44747e-07
5.31098e-07
3.86343e-07
3.37865e-07
4.28007e-07
2.88888e-07
2.70051e-07
5.86451e-08
3.93818e-07
2.56587e-07
3.57204e-07
3.01991e-07
2.62408e-07
3.38592e-07
6.20273e-07
2.80187e-07
3.1585e-07
3.28756e-06
2.24095e-07
3.16312e-07
2.19819e-08
3.69338e-07
3.23225e-07
2.93953e-07
4.55271e-07
1.53893e-07
4.31621e-07
3.33471e-07
3.50159e-08
4.65091e-07
1.44499e-07
4.99835e-08
2.22356e-07
2.90021e-07
3.16032e-09
2.14692e-07
2.16334e-07
2.22453e-07
1.05726e-07
9.79758e-07
3.06056e-06
3.3096e-06
4.19365e-07
1.15799e-06
8.16561e-09
1.36514e-08
3.77642e-07
1.12041e-05
3.00248e-07
7.22897e-06
9.70808e-06
1.10097e-06
4.79364e-07
9.02453e-07
2.17396e-06
5.99014e-07
3.1717e-05
1.01408e-05
2.52132e-05
2.09612e-05
1.97364e-05
1.56105e-05
2.47242e-05
3.15015e-05
2.62442e-05
2.0076e-05
1.07765e-05
1.1189e-05
8.94161e-06
6.67705e-06
8.83048e-06
6.02578e-06
7.57177e-06
8.53608e-06
4.37302e-06
1.27114e-05
1.22189e-05
5.0108e-05
8.08924e-06
3.67981e-05
3.47409e-05
5.69663e-05
6.28933e-05
5.55548e-05
6.35862e-05
2.53798e-05
2.4052e-05
1.48716e-05
2.09293e-06
5.48536e-06
4.29564e-06
5.96405e-07
8.00744e-06
7.92796e-07
7.62613e-06
1.2123e-06
6.73425e-06
4.39537e-07
8.37899e-07
5.62396e-06
5.68309e-07
2.89933e-06
7.44331e-07
3.98972e-06
6.26202e-07
3.2337e-06
5.53921e-07
3.01662e-06
6.31973e-07
3.15224e-06
1.41131e-06
1.48407e-06
1.53597e-06
1.2898e-06
2.7661e-06
1.73918e-06
3.42724e-06
6.02571e-07
1.17976e-06
4.86101e-07
9.07738e-07
8.09329e-07
3.17416e-07
4.10063e-07
1.62201e-07
2.47266e-07
1.44135e-07
2.21431e-07
2.20283e-07
1.09784e-07
1.97236e-07
5.35536e-08
1.7955e-07
1.51613e-07
1.52579e-07
2.51849e-07
2.81491e-08
8.1399e-08
6.13135e-08
1.30653e-08
1.59903e-08
2.49667e-09
1.92555e-08
1.66503e-08
2.51732e-08
3.9602e-08
2.77948e-08
3.74761e-08
3.92859e-08
6.50967e-09
5.74546e-09
3.39109e-09
3.73038e-09
4.76132e-09
1.27882e-09
7.84641e-09
4.92906e-09
2.32877e-09
1.44183e-08
5.52709e-09
1.58791e-08
2.16156e-08
1.04087e-08
3.3397e-08
3.67048e-08
2.09096e-09
5.98247e-08
5.85799e-08
1.14039e-08
9.17788e-08
3.20067e-08
2.66585e-08
1.30939e-07
1.00218e-07
1.54957e-07
1.71595e-07
1.20789e-07
3.27965e-07
1.49194e-07
9.30697e-08
3.58316e-07
3.14326e-07
1.28801e-07
6.19329e-07
4.95277e-07
1.90144e-07
1.04275e-06
6.60902e-07
1.3795e-07
7.9152e-07
8.90467e-07
6.20784e-07
1.66307e-06
1.62121e-06
1.13918e-06
2.6426e-06
2.67698e-06
2.1023e-06
2.98956e-06
3.14142e-06
2.67629e-06
2.99644e-06
3.50869e-06
2.81016e-06
2.56685e-06
3.65287e-06
3.32331e-06
1.63227e-06
3.93962e-06
3.909e-06
1.5122e-06
4.22797e-06
4.11895e-06
2.56234e-06
4.1215e-06
4.46203e-06
3.67486e-06
3.74136e-06
4.58944e-06
4.63596e-06
1.69137e-06
4.96144e-06
5.05833e-06
2.98854e-06
4.81072e-06
5.33158e-06
4.6793e-06
4.21606e-06
5.36052e-06
5.52235e-06
1.57305e-06
5.35557e-06
5.55931e-06
4.74381e-06
4.96406e-06
5.59222e-06
5.56391e-06
1.80333e-06
5.42184e-06
5.53033e-06
4.71931e-06
4.90944e-06
5.40575e-06
5.39237e-06
1.22649e-06
5.13574e-06
5.24371e-06
4.69738e-06
4.32038e-06
4.98171e-06
4.94315e-06
2.95036e-06
4.6386e-06
4.78876e-06
4.54423e-06
2.47621e-06
4.52877e-06
4.54634e-06
4.02341e-06
4.01425e-06
4.40439e-06
4.34223e-06
2.85302e-06
4.12735e-06
4.25374e-06
4.1203e-06
9.75037e-07
4.09653e-06
4.1293e-06
3.88156e-06
3.19402e-06
4.04289e-06
4.0327e-06
3.64839e-06
3.66062e-06
3.96498e-06
3.91243e-06
3.2367e-06
3.68605e-06
3.81335e-06
3.73285e-06
2.45209e-06
3.51588e-06
3.54322e-06
3.44569e-06
1.23755e-06
3.17299e-06
3.1148e-06
2.99528e-06
6.09708e-07
2.68325e-06
2.71159e-06
2.48087e-06
7.75051e-07
2.20096e-06
2.19855e-06
1.97208e-06
7.63909e-07
1.6988e-06
1.68724e-06
1.48187e-06
5.79704e-07
1.26738e-06
1.26404e-06
1.13766e-06
3.64793e-07
1.02245e-06
1.01444e-06
9.60565e-07
2.07361e-07
9.0034e-07
8.96267e-07
8.6386e-07
3.50886e-07
8.17807e-07
8.15793e-07
7.93121e-07
5.71526e-07
7.79384e-07
7.98684e-07
7.9004e-07
6.89681e-07
7.83126e-07
8.11801e-07
7.99773e-07
7.50006e-07
7.68687e-07
8.03503e-07
7.9398e-07
7.47703e-07
6.59167e-07
6.7721e-07
6.66867e-07
6.0476e-07
3.77709e-07
5.35312e-07
5.29727e-07
4.77099e-07
2.15555e-07
4.00797e-07
3.73988e-07
3.57587e-07
2.8939e-07
2.84502e-07
2.68849e-07
7.19572e-08
2.20783e-07
1.90793e-07
1.86269e-07
1.83161e-07
1.66047e-07
8.83555e-08
1.61166e-07
1.58285e-07
1.52127e-07
1.21531e-07
1.43981e-07
1.42095e-07
1.3921e-07
1.31563e-07
1.32276e-07
1.37071e-07
1.35866e-07
1.28867e-07
7.13227e-08
1.26212e-07
1.24052e-07
1.19112e-07
1.01786e-07
1.09037e-07
1.06366e-07
1.03721e-07
9.53216e-08
8.71925e-08
8.90392e-08
8.78907e-08
8.08559e-08
3.82439e-08
6.8955e-08
6.58221e-08
6.34059e-08
5.56705e-08
5.22888e-08
5.01025e-08
4.91836e-08
4.45189e-08
1.67424e-08
3.9461e-08
3.74683e-08
3.58521e-08
3.15011e-08
3.10917e-08
3.03871e-08
2.97604e-08
2.73432e-08
1.89357e-08
2.43152e-08
5.87353e-09
2.16229e-08
1.85999e-08
1.78485e-08
1.6778e-08
1.63094e-08
1.45927e-08
1.0468e-08
1.26152e-08
1.26229e-08
1.14625e-08
1.10765e-08
1.1326e-08
1.10432e-08
1.08272e-08
1.01267e-08
5.96569e-09
9.60197e-09
9.43992e-09
9.23571e-09
8.56028e-09
8.28242e-09
8.85724e-09
8.61213e-09
8.30294e-09
2.25391e-09
1.2289e-10
9.84627e-09
9.21486e-09
9.34673e-09
9.67392e-09
1.03503e-08
1.04355e-08
1.14117e-08
9.60525e-09
1.35056e-08
1.44037e-08
1.43109e-08
1.44409e-08
1.39104e-08
1.52316e-08
1.63832e-08
1.60598e-08
1.61103e-08
1.7568e-08
1.85052e-08
1.84106e-08
1.8431e-08
7.37369e-09
1.83785e-08
1.77826e-08
1.71879e-08
1.57795e-08
1.46537e-08
1.45946e-08
1.43041e-08
1.29356e-08
1.03815e-08
1.01759e-08
9.26326e-09
8.92726e-09
7.78405e-09
6.30343e-09
6.52244e-09
6.87879e-09
6.2069e-09
6.27017e-09
5.57196e-09
6.43714e-09
6.58726e-09
6.61909e-09
6.63506e-09
6.10408e-09
6.63738e-09
7.12705e-09
7.62267e-09
7.6213e-09
1.52137e-09
9.57691e-09
1.00395e-08
9.81016e-09
1.03224e-08
1.11866e-08
1.15389e-08
1.15242e-08
1.20594e-08
1.1681e-08
8.56496e-10
1.11272e-08
1.08638e-08
9.09425e-09
8.87311e-09
8.44737e-09
7.77523e-09
5.43744e-09
5.02154e-09
2.70885e-09
1.31183e-09
1.19408e-09
2.66595e-09
1.02582e-09
2.85855e-10
1.617e-09
2.81694e-10
2.63581e-10
2.87706e-10
1.95121e-10
1.63791e-10
1.71683e-10
2.0388e-10
1.77712e-10
2.22798e-10
2.23346e-10
3.36833e-10
4.59466e-10
5.50439e-10
1.10812e-09
8.12414e-10
9.37684e-10
8.59404e-10
3.57172e-10
6.2929e-11
1.87656e-11
1.10167e-10
7.36908e-10
7.65703e-10
1.07818e-09
7.46591e-11
8.20071e-10
1.00738e-10
7.53806e-11
3.40774e-10
3.4536e-10
2.64922e-10
1.61867e-10
4.41349e-11
9.11166e-11
1.41919e-10
2.21853e-10
2.22943e-10
2.42781e-10
2.11094e-10
8.15419e-11
7.562e-11
5.28648e-11
3.54376e-11
4.29893e-10
2.68371e-10
4.58886e-10
4.42872e-10
2.33434e-11
2.933e-10
2.16136e-11
2.13569e-10
9.27424e-11
1.06804e-10
1.23075e-11
2.66212e-11
1.25187e-10
7.2862e-11
4.85587e-05
1.38407e-05
1.06862e-05
2.31464e-06
1.42666e-06
1.71294e-06
1.10374e-06
9.3951e-07
8.70114e-07
1.20738e-06
8.53914e-07
1.05836e-06
5.46063e-07
8.70203e-07
8.83632e-07
8.76866e-07
6.17698e-07
7.76385e-07
7.62848e-07
7.44393e-07
7.23119e-07
6.94722e-07
6.74842e-07
6.54716e-07
6.57499e-07
6.17891e-07
6.01431e-07
5.79262e-07
5.82553e-07
5.43493e-07
5.31076e-07
4.97603e-07
5.07145e-07
4.52737e-07
4.54462e-07
4.15697e-07
4.06678e-07
3.58533e-07
3.68736e-07
2.79671e-07
3.24204e-07
1.82039e-07
2.53218e-07
1.92371e-07
1.44266e-07
1.15366e-07
1.06671e-07
1.00527e-07
7.64337e-08
6.56046e-08
3.47493e-08
3.62799e-08
3.03968e-08
2.58552e-08
2.31847e-09
2.02678e-09
1.4497e-09
3.6491e-08
8.17688e-09
2.36618e-08
5.01405e-08
1.51434e-07
2.38592e-07
1.38085e-07
1.86829e-07
3.40396e-07
2.19119e-07
1.67046e-07
3.31284e-07
6.24096e-07
6.27223e-07
9.10705e-07
5.59465e-07
1.48446e-06
1.3263e-06
1.51747e-06
4.13069e-07
2.12115e-06
1.8757e-06
1.95735e-06
1.31342e-06
2.29023e-06
2.39134e-06
2.30421e-06
2.95176e-06
2.64921e-06
2.97229e-06
2.74417e-06
3.73137e-06
3.58993e-06
3.66518e-06
2.27218e-06
4.53284e-06
4.27812e-06
4.29469e-06
1.5485e-06
5.19658e-06
4.85565e-06
4.88869e-06
5.74548e-06
5.53227e-06
5.67104e-06
3.77265e-06
6.89393e-06
6.49048e-06
6.40108e-06
3.77677e-06
7.48015e-06
7.13756e-06
6.52782e-06
8.56833e-06
8.21236e-06
8.0234e-06
9.33906e-07
9.89762e-06
8.74979e-06
8.20272e-06
1.0493e-05
1.01475e-05
9.65951e-06
1.00919e-06
1.21405e-05
1.06345e-05
8.87137e-06
1.30102e-05
1.22662e-05
1.14458e-05
8.3434e-06
1.33064e-05
1.23981e-05
3.32182e-06
1.58132e-05
1.30716e-05
1.16058e-05
1.60739e-05
1.45092e-05
1.34167e-05
1.21538e-05
1.67611e-05
1.50937e-05
2.03016e-06
1.95725e-05
1.60084e-05
4.80335e-06
2.1372e-05
1.62873e-05
1.05728e-05
2.2363e-05
1.67192e-05
1.37651e-05
2.35681e-05
1.67827e-05
1.51929e-05
2.43965e-05
2.00835e-05
1.44254e-05
2.57832e-05
2.29734e-05
1.36116e-05
2.72843e-05
2.27032e-05
1.5974e-05
2.66995e-05
2.03524e-05
9.11661e-06
3.38281e-05
2.20027e-05
1.40656e-05
3.86468e-05
2.90276e-05
2.85881e-05
4.79473e-05
2.17924e-05
6.76793e-06
3.44368e-05
1.57226e-05
2.23208e-05
1.98975e-05
1.52393e-05
2.09734e-05
1.11797e-05
2.33125e-05
2.83216e-05
5.40789e-06
1.2577e-05
2.78724e-05
6.54013e-06
3.3636e-05
2.04902e-05
8.54195e-07
3.08938e-05
6.9678e-06
2.84961e-05
2.24314e-05
9.08513e-07
4.3822e-05
7.35854e-06
4.89483e-05
3.17674e-05
8.73409e-06
2.9635e-05
1.12952e-06
2.32378e-05
9.47507e-06
2.61872e-05
1.16391e-05
2.93883e-05
1.10744e-05
2.33817e-05
2.10622e-05
2.68014e-05
4.88155e-05
1.20518e-06
5.14498e-05
2.07656e-05
3.46738e-05
1.33102e-05
2.57587e-05
8.06106e-06
1.94274e-05
9.05742e-06
1.58783e-05
5.11682e-06
1.16847e-05
5.54755e-06
8.23786e-06
4.77322e-06
6.9907e-06
4.10519e-06
3.93104e-06
2.82039e-06
6.25959e-07
1.20509e-06
2.93635e-08
1.49749e-06
4.64072e-07
7.36834e-07
3.63812e-07
7.86331e-08
3.4043e-09
1.99047e-07
7.14072e-08
4.21213e-08
5.46311e-08
1.0081e-07
1.03735e-07
1.2849e-07
1.3961e-07
1.5593e-07
8.3036e-08
1.46954e-07
1.43843e-07
7.23455e-08
1.3508e-07
3.92056e-08
1.04745e-07
9.77677e-08
8.03146e-08
1.29666e-07
3.22618e-08
5.755e-08
3.83973e-08
4.07284e-09
5.06316e-09
1.63265e-09
8.20648e-09
1.0032e-08
1.24387e-08
2.40003e-08
1.14906e-08
1.38608e-08
1.09828e-08
2.18431e-10
4.47843e-10
1.35415e-10
1.67373e-10
1.20492e-10
4.22408e-11
3.99776e-12
4.09446e-11
1.55997e-10
4.66502e-11
2.10508e-10
1.36445e-10
2.32247e-09
9.08769e-10
5.35862e-09
3.75689e-09
5.09391e-11
8.28582e-09
7.42938e-09
6.21366e-10
7.1886e-09
8.23421e-09
1.68145e-09
1.01526e-08
1.41517e-08
2.41026e-08
1.39546e-08
1.49571e-08
1.35437e-08
5.677e-09
5.49172e-10
8.50979e-10
1.65386e-09
2.18667e-09
2.70395e-09
9.17106e-09
1.23465e-08
6.77738e-08
9.63465e-08
1.77499e-07
5.11998e-07
5.76069e-07
1.88949e-07
4.94349e-07
6.78192e-07
3.75386e-07
7.43339e-07
8.56334e-07
6.22167e-07
9.05617e-07
1.16981e-06
9.53846e-07
1.22406e-06
1.61964e-06
1.38712e-06
1.19959e-06
1.82151e-06
1.71298e-06
7.76052e-07
2.00505e-06
1.86699e-06
1.87254e-06
2.19773e-06
2.28462e-06
1.45234e-06
2.38395e-06
2.65563e-06
2.32981e-06
2.31327e-06
3.15353e-06
2.9548e-06
1.0392e-06
3.40968e-06
3.37188e-06
1.99104e-06
3.57271e-06
3.80287e-06
3.44803e-06
3.16999e-06
4.27172e-06
4.01085e-06
2.9498e-06
4.35956e-06
4.40437e-06
3.74565e-06
4.05965e-06
4.74734e-06
4.41484e-06
3.26198e-06
4.66155e-06
4.64844e-06
3.93213e-06
4.20894e-06
4.75212e-06
4.47257e-06
2.85018e-06
4.53165e-06
4.55193e-06
4.04558e-06
3.76892e-06
4.42122e-06
4.26001e-06
2.45656e-06
4.06969e-06
4.23048e-06
3.9338e-06
2.06406e-06
3.97373e-06
3.93926e-06
3.44376e-06
3.48341e-06
3.84482e-06
3.71727e-06
2.34169e-06
3.56166e-06
3.6839e-06
3.4975e-06
1.34643e-06
3.50357e-06
3.55175e-06
3.31942e-06
2.73111e-06
3.52106e-06
3.48031e-06
3.12778e-06
3.20115e-06
3.50423e-06
3.41684e-06
2.79105e-06
3.28876e-06
3.44314e-06
3.31716e-06
2.11986e-06
3.20829e-06
3.27743e-06
3.12592e-06
1.14282e-06
2.95306e-06
2.93572e-06