/*--------------------------------*- C++ -*----------------------------------*\
| =========                 |                                                 |
| \\      /  F ield         | OpenFOAM: The Open Source CFD Toolbox           |
|  \\    /   O peration     | Version:  v2012                                 |
|   \\  /    A nd           | Website:  www.openfoam.com                      |
|    \\/     M anipulation  |                                                 |
\*---------------------------------------------------------------------------*/
FoamFile
{
    version     2.0;
    format      ascii;
    class       volScalarField;
    location    "1e-06";
    object      nut;
}
// * * * * * * * * * * * * * * * * * * * * * * * * * * * * * * * * * * * * * //

dimensions      [0 2 -1 0 0 0 0];


internalField   nonuniform List<scalar> 
102000
(
1.5329e-05
1.37174e-05
1.31542e-05
1.17881e-05
1.06386e-05
9.92273e-06
9.7175e-06
9.71732e-06
9.68771e-06
9.25997e-06
9.03045e-06
9.14571e-06
9.10601e-06
8.86814e-06
8.53101e-06
8.73653e-06
8.81778e-06
8.58785e-06
8.26726e-06
8.41717e-06
8.59972e-06
8.35765e-06
8.04525e-06
8.14546e-06
8.33659e-06
8.15183e-06
7.84603e-06
7.90257e-06
8.08888e-06
7.95513e-06
7.64304e-06
7.65938e-06
7.83489e-06
7.73418e-06
7.41348e-06
7.39769e-06
7.56282e-06
7.47308e-06
7.14167e-06
7.09774e-06
7.23121e-06
7.14548e-06
6.77644e-06
6.70648e-06
6.79855e-06
6.66659e-06
6.26245e-06
6.1743e-06
6.19343e-06
5.97766e-06
5.47213e-06
5.3523e-06
5.26425e-06
4.77466e-06
4.09677e-06
3.9318e-06
3.54741e-06
3.46465e-06
3.25934e-06
3.31161e-06
3.88014e-06
4.41274e-06
4.65312e-06
4.77923e-06
5.24358e-06
5.2963e-06
5.24385e-06
5.33596e-06
5.70206e-06
5.76549e-06
5.76148e-06
5.90911e-06
6.30623e-06
6.33144e-06
6.29389e-06
6.48937e-06
6.48106e-06
6.72371e-06
6.5973e-06
6.89191e-06
6.91177e-06
6.96378e-06
6.89153e-06
7.1701e-06
7.22147e-06
7.1023e-06
7.1066e-06
7.37889e-06
7.32689e-06
7.1764e-06
7.28398e-06
7.5624e-06
7.39937e-06
7.24205e-06
7.47531e-06
7.3572e-06
7.45212e-06
7.38668e-06
7.65353e-06
7.62374e-06
7.46751e-06
7.54e-06
7.79535e-06
7.62656e-06
7.44585e-06
7.68906e-06
7.62806e-06
7.61179e-06
7.5951e-06
7.88237e-06
7.75645e-06
7.59114e-06
7.77057e-06
7.06999e-06
7.7323e-06
7.68742e-06
7.96502e-06
7.86259e-06
7.68983e-06
7.86403e-06
7.09056e-06
7.79547e-06
7.78134e-06
8.06155e-06
7.91353e-06
7.73377e-06
7.98201e-06
7.90323e-06
7.84284e-06
7.91268e-06
7.99639e-06
7.93424e-06
7.85972e-06
8.15236e-06
8.00921e-06
7.83914e-06
8.10111e-06
8.01476e-06
7.93968e-06
8.07384e-06
7.39278e-06
8.00184e-06
8.05242e-06
8.17125e-06
8.07965e-06
8.03606e-06
8.30867e-06
8.12016e-06
8.01978e-06
8.30857e-06
8.15392e-06
8.02497e-06
8.32078e-06
8.17981e-06
8.02814e-06
8.3447e-06
8.21667e-06
8.08258e-06
8.39916e-06
8.27276e-06
8.13165e-06
8.45922e-06
8.30869e-06
8.23799e-06
8.77056e-06
8.38957e-06
8.24547e-06
8.50475e-06
8.39864e-06
8.49567e-06
7.81396e-06
8.29076e-06
8.67465e-06
8.26369e-06
8.41053e-06
8.71787e-06
8.50164e-06
8.29798e-06
8.72302e-06
8.49667e-06
8.48599e-06
7.73302e-06
8.2329e-06
8.43346e-06
8.2975e-06
8.26127e-06
8.50058e-06
8.35005e-06
8.44451e-06
8.19949e-06
8.28723e-06
8.58703e-06
8.4146e-06
8.49805e-06
7.79477e-06
8.33674e-06
8.62789e-06
8.48881e-06
8.62383e-06
8.41668e-06
8.4904e-06
7.87576e-06
8.27812e-06
8.50244e-06
8.36214e-06
8.5448e-06
8.44557e-06
8.61097e-06
8.33217e-06
8.4255e-06
7.86855e-06
7.83023e-06
6.96768e-06
6.76201e-06
5.85267e-06
5.70722e-06
5.30758e-06
5.17171e-06
4.87161e-06
4.8516e-06
4.4568e-06
4.71502e-06
4.58405e-06
4.73738e-06
4.75292e-06
4.66673e-06
4.65545e-06
4.88411e-06
4.89839e-06
5.02103e-06
4.911e-06
4.59309e-06
4.46267e-06
3.71443e-06
3.92033e-06
3.91963e-06
3.68182e-06
3.55746e-06
2.48394e-06
2.24504e-06
9.28198e-07
1.3917e-06
1.40224e-06
1.91862e-06
1.99787e-06
1.50061e-06
1.40438e-06
9.77179e-07
6.57987e-07
5.14946e-07
5.02637e-07
4.84418e-07
4.77536e-07
3.9672e-07
4.04071e-07
5.16231e-07
5.43652e-07
7.13831e-07
6.5786e-07
5.10084e-07
6.91061e-07
6.84135e-07
2.28105e-07
1.89758e-07
4.39278e-08
2.07594e-07
2.24598e-07
3.87524e-07
3.22839e-07
4.61117e-07
4.55751e-07
4.26026e-07
1.88187e-07
1.13154e-07
1.21747e-07
1.57343e-07
1.40691e-07
1.58841e-07
1.81419e-07
1.83957e-07
2.05441e-07
2.42499e-07
2.77492e-07
3.58957e-07
3.02615e-07
3.5209e-07
3.50753e-07
3.25545e-07
1.42575e-07
4.23337e-07
4.41232e-07
5.01393e-07
5.07769e-07
5.71982e-07
7.14821e-07
7.31427e-07
8.6748e-07
1.06608e-06
9.37491e-07
1.15744e-06
1.22662e-06
1.15935e-06
1.39958e-06
1.64947e-06
1.64296e-06
2.07534e-06
2.44401e-06
2.43189e-06
2.82185e-06
3.22574e-06
3.20601e-06
3.64606e-06
4.03684e-06
3.98319e-06
4.45686e-06
4.81019e-06
4.6976e-06
5.21e-06
5.46806e-06
5.26743e-06
5.81199e-06
6.04249e-06
5.73497e-06
6.32007e-06
6.57566e-06
6.29843e-06
6.71625e-06
7.02988e-06
6.74737e-06
7.01364e-06
7.2525e-06
7.13794e-06
7.19697e-06
5.99384e-06
7.42564e-06
7.2606e-06
7.65977e-06
7.67644e-06
7.2438e-06
7.75876e-06
7.9302e-06
7.47012e-06
7.7281e-06
7.63708e-06
7.71796e-06
7.63529e-06
7.99475e-06
7.96363e-06
7.4788e-06
8.00881e-06
8.18466e-06
7.6395e-06
7.79911e-06
6.11386e-06
7.8595e-06
7.54001e-06
8.04714e-06
8.07151e-06
7.44048e-06
7.7254e-06
5.85545e-06
7.6318e-06
7.34661e-06
7.84546e-06
7.83719e-06
7.17485e-06
7.43903e-06
5.52124e-06
7.42023e-06
7.0267e-06
7.55124e-06
7.65801e-06
7.00051e-06
7.09591e-06
7.40246e-06
7.28573e-06
6.64359e-06
7.18809e-06
7.35196e-06
6.99075e-06
6.76483e-06
7.32169e-06
7.409e-06
6.81473e-06
6.96456e-06
7.34725e-06
7.06275e-06
6.32671e-06
6.74475e-06
4.7741e-06
6.74988e-06
6.36128e-06
6.97069e-06
7.31617e-06
6.78414e-06
6.64939e-06
7.25521e-06
7.38114e-06
6.80671e-06
6.89728e-06
7.49364e-06
7.41905e-06
6.79633e-06
7.0576e-06
7.43747e-06
7.26304e-06
6.61738e-06
7.02108e-06
6.79077e-06
6.95419e-06
6.25625e-06
6.73935e-06
4.60823e-06
6.5261e-06
5.95391e-06
6.36663e-06
5.81041e-06
5.99162e-06
5.49209e-06
5.87446e-06
5.67632e-06
5.48999e-06
5.02985e-06
5.34278e-06
5.14972e-06
4.97438e-06
4.55163e-06
4.89945e-06
4.55208e-06
4.73296e-06
4.31022e-06
4.68049e-06
3.14769e-06
4.66933e-06
4.24949e-06
4.62512e-06
4.62675e-06
4.68605e-06
4.25482e-06
4.54883e-06
4.89422e-06
4.77055e-06
4.36554e-06
4.57906e-06
5.05806e-06
5.01574e-06
4.59417e-06
4.69217e-06
5.21206e-06
5.27847e-06
4.84509e-06
4.78676e-06
5.23698e-06
5.27696e-06
4.68472e-06
4.41932e-06
4.74113e-06
4.90176e-06
4.40012e-06
3.9518e-06
4.24778e-06
4.21506e-06
4.08881e-06
3.57467e-06
3.7641e-06
4.01346e-06
3.83288e-06
3.37537e-06
3.3667e-06
3.60564e-06
3.69481e-06
3.29092e-06
3.11964e-06
3.43256e-06
3.58173e-06
3.39684e-06
3.07665e-06
3.34592e-06
3.63495e-06
3.54069e-06
3.20181e-06
3.27212e-06
3.62225e-06
3.70779e-06
3.33508e-06
3.17453e-06
3.50826e-06
3.69972e-06
3.45196e-06
3.09861e-06
3.36971e-06
3.69241e-06
3.56628e-06
3.17981e-06
3.18605e-06
3.50835e-06
3.64103e-06
3.21276e-06
2.9469e-06
3.22926e-06
3.27122e-06
3.22472e-06
2.84474e-06
2.95913e-06
3.2261e-06
3.1942e-06
2.80564e-06
2.65686e-06
2.89572e-06
2.8194e-06
2.75329e-06
2.38844e-06
2.54696e-06
2.77452e-06
2.68161e-06
2.33894e-06
2.24855e-06
2.48603e-06
2.6832e-06
2.35295e-06
2.0504e-06
2.23285e-06
2.48165e-06
2.41466e-06
2.1616e-06
2.10714e-06
2.35081e-06
2.57587e-06
2.33876e-06
2.1154e-06
2.27908e-06
2.52177e-06
2.48037e-06
2.24009e-06
2.17379e-06
2.40072e-06
2.55644e-06
2.37656e-06
2.15164e-06
2.29348e-06
2.56534e-06
2.62844e-06
2.46067e-06
2.38791e-06
2.7729e-06
2.48574e-06
3.16792e-06
3.1156e-06
3.28194e-06
3.79855e-06
4.11983e-06
4.02799e-06
3.87708e-06
4.34387e-06
4.83603e-06
4.84363e-06
4.64354e-06
4.70347e-06
5.1697e-06
5.5317e-06
5.20634e-06
4.91383e-06
5.27312e-06
5.77511e-06
5.71849e-06
5.3263e-06
5.20737e-06
5.65729e-06
5.56068e-06
5.5656e-06
5.04307e-06
5.22218e-06
5.61263e-06
5.61714e-06
5.01059e-06
4.62827e-06
4.92281e-06
5.21643e-06
4.89053e-06
4.42368e-06
4.39389e-06
4.74285e-06
5.08565e-06
4.72734e-06
4.4558e-06
4.71462e-06
5.16254e-06
5.3997e-06
5.21884e-06
5.04545e-06
5.03457e-06
5.48876e-06
6.02828e-06
6.12239e-06
5.85452e-06
5.62118e-06
6.20655e-06
6.92214e-06
7.20934e-06
7.01525e-06
7.2091e-06
8.13196e-06
8.57057e-06
8.12349e-06
8.18229e-06
9.33242e-06
9.5805e-06
9.41935e-06
9.75034e-06
1.09896e-05
1.05883e-05
1.02124e-05
1.09968e-05
1.13778e-05
9.79317e-06
9.61933e-06
9.36483e-06
8.45307e-06
8.1273e-06
8.28052e-06
7.8112e-06
7.04802e-06
7.27863e-06
6.6807e-06
5.67257e-06
5.7064e-06
5.18282e-06
4.51168e-06
4.58712e-06
4.40803e-06
3.93998e-06
4.06298e-06
4.12191e-06
3.93814e-06
4.2379e-06
4.67927e-06
4.63476e-06
5.20903e-06
5.48278e-06
5.2355e-06
5.83743e-06
6.30068e-06
6.4334e-06
8.13546e-06
8.45294e-06
8.63101e-06
8.98804e-06
7.75764e-06
7.83379e-06
6.52114e-06
5.40519e-06
5.35044e-06
5.04231e-06
4.33706e-06
4.1658e-06
4.0243e-06
3.74877e-06
3.53822e-06
3.77212e-06
4.14194e-06
4.03288e-06
4.09243e-06
4.69369e-06
5.59916e-06
6.27692e-06
6.85866e-06
7.86748e-06
7.74843e-06
7.79364e-06
7.98111e-06
7.0316e-06
6.58768e-06
6.12365e-06
5.58264e-06
4.74798e-06
4.68306e-06
4.46968e-06
3.97562e-06
3.86796e-06
4.25156e-06
1.54951e-05
1.47033e-05
1.4481e-05
1.31839e-05
1.20483e-05
1.17573e-05
1.17719e-05
1.13958e-05
1.1105e-05
1.1094e-05
1.11737e-05
1.09009e-05
1.04854e-05
1.06526e-05
1.06897e-05
1.05345e-05
1.01738e-05
1.03136e-05
1.0359e-05
1.02425e-05
1.00034e-05
1.0025e-05
1.00755e-05
9.9916e-06
9.77694e-06
9.76451e-06
9.8207e-06
9.76395e-06
9.55422e-06
9.51799e-06
9.56496e-06
9.52869e-06
9.31634e-06
9.25108e-06
9.28743e-06
9.26681e-06
9.0499e-06
8.94842e-06
8.96928e-06
8.95745e-06
8.71519e-06
8.57865e-06
8.56058e-06
8.54895e-06
8.26001e-06
8.06819e-06
7.98308e-06
7.96422e-06
7.63562e-06
7.31485e-06
7.15029e-06
7.10543e-06
6.60677e-06
6.09414e-06
5.57415e-06
5.48368e-06
4.88276e-06
4.61706e-06
4.46536e-06
4.53438e-06
4.96652e-06
5.43062e-06
6.03715e-06
6.12321e-06
6.34816e-06
6.42508e-06
6.74702e-06
6.76986e-06
6.87305e-06
6.92339e-06
7.23883e-06
7.26889e-06
7.44813e-06
7.54248e-06
7.84998e-06
7.84924e-06
7.93091e-06
8.02768e-06
8.2428e-06
8.26008e-06
7.84155e-06
8.37972e-06
8.54083e-06
8.52764e-06
8.31014e-06
8.62506e-06
8.72647e-06
8.71153e-06
8.56059e-06
8.8025e-06
8.84433e-06
8.88096e-06
8.76347e-06
8.99414e-06
8.97495e-06
8.39117e-06
8.9466e-06
9.11759e-06
9.07748e-06
8.82223e-06
9.10255e-06
9.1784e-06
9.17005e-06
9.01637e-06
9.23363e-06
9.2211e-06
8.67252e-06
9.16668e-06
9.32452e-06
9.3164e-06
9.067e-06
9.33255e-06
9.37053e-06
1.0053e-05
9.28227e-06
9.46816e-06
9.43693e-06
9.15817e-06
9.43263e-06
9.48512e-06
8.94105e-06
9.36006e-06
9.55662e-06
9.53579e-06
9.27148e-06
9.53713e-06
9.57137e-06
9.01603e-06
9.48441e-06
9.63174e-06
9.53992e-06
9.43721e-06
9.70448e-06
9.68534e-06
9.34867e-06
9.65403e-06
9.71357e-06
9.17157e-06
9.63148e-06
9.77152e-06
1.04204e-05
9.6351e-06
9.82783e-06
9.72297e-06
9.59205e-06
9.88178e-06
9.8542e-06
9.5509e-06
9.92128e-06
9.88573e-06
9.51876e-06
9.96433e-06
9.92678e-06
9.49906e-06
9.86372e-06
9.95912e-06
9.50854e-06
9.90553e-06
1.00139e-05
9.57715e-06
9.97157e-06
1.00771e-05
9.65739e-06
1.01514e-05
1.01479e-05
9.77214e-06
1.01686e-05
1.01271e-05
9.88057e-06
1.02354e-05
1.08485e-05
9.99813e-06
1.02376e-05
1.09129e-05
1.00941e-05
1.02918e-05
9.76807e-06
1.0113e-05
1.02583e-05
9.88447e-06
1.02574e-05
1.06514e-05
9.93254e-06
1.01484e-05
9.57841e-06
1.01666e-05
1.01116e-05
9.84261e-06
1.01936e-05
9.57024e-06
1.00089e-05
1.02066e-05
9.85459e-06
1.02587e-05
9.59514e-06
1.00652e-05
1.02391e-05
9.97637e-06
1.03737e-05
9.6839e-06
1.0472e-05
1.08219e-05
9.92035e-06
1.01922e-05
9.76022e-06
1.01941e-05
9.83864e-06
1.0233e-05
9.66503e-06
9.97355e-06
9.02093e-06
9.17986e-06
7.96707e-06
7.87548e-06
6.63011e-06
6.58465e-06
5.95804e-06
5.98312e-06
5.58189e-06
5.64248e-06
5.74132e-06
5.47317e-06
5.6741e-06
5.41759e-06
5.28158e-06
5.28975e-06
5.19516e-06
5.47284e-06
5.46143e-06
5.59408e-06
5.59401e-06
5.31744e-06
5.32129e-06
4.99911e-06
4.82111e-06
4.67879e-06
4.82819e-06
4.75072e-06
3.84456e-06
3.81634e-06
3.36728e-06
2.83749e-06
2.46138e-06
3.26784e-06
3.18842e-06
2.34462e-06
2.30453e-06
1.88995e-06
1.40113e-06
1.1625e-06
1.4184e-06
1.37673e-06
1.27619e-06
1.37407e-06
1.10655e-06
1.52604e-06
1.4527e-06
1.80145e-06
1.96975e-06
3.29443e-06
1.76327e-06
1.54123e-06
6.1913e-07
6.17856e-07
3.15447e-07
6.53439e-07
6.57613e-07
9.87225e-07
1.09206e-06
1.099e-06
1.23372e-06
1.15048e-06
5.28363e-07
3.80994e-07
3.13578e-07
3.83825e-07
3.9626e-07
3.83279e-07
4.67119e-07
4.52989e-07
4.61067e-07
6.28613e-07
6.04161e-07
7.39434e-07
7.65919e-07
7.13264e-07
8.32481e-07
8.35977e-07
1.07832e-06
1.03487e-06
1.01601e-06
1.04464e-06
1.22741e-06
1.17303e-06
1.33256e-06
1.61943e-06
1.52897e-06
1.85255e-06
1.93539e-06
1.95485e-06
2.17826e-06
2.22676e-06
2.16571e-06
2.65959e-06
2.75775e-06
3.03752e-06
3.82011e-06
3.89245e-06
4.02946e-06
4.95568e-06
5.03271e-06
5.13836e-06
6.13675e-06
6.21412e-06
6.25098e-06
7.23907e-06
7.32254e-06
7.26534e-06
8.12067e-06
8.23007e-06
8.14817e-06
8.84495e-06
9.00514e-06
8.93722e-06
9.44732e-06
9.9103e-06
9.60254e-06
9.89838e-06
1.03667e-05
1.01578e-05
1.00961e-05
1.073e-05
1.06308e-05
1.17402e-05
1.09674e-05
1.0964e-05
1.05346e-05
1.11496e-05
1.12808e-05
1.10416e-05
1.12849e-05
1.16293e-05
1.14034e-05
1.10252e-05
1.17693e-05
1.17143e-05
1.1141e-05
1.18654e-05
1.19986e-05
1.17112e-05
1.18596e-05
1.21838e-05
1.20044e-05
1.3261e-05
1.21703e-05
1.22107e-05
1.18096e-05
1.2078e-05
1.23176e-05
1.2062e-05
1.3385e-05
1.21669e-05
1.21829e-05
1.17262e-05
1.19679e-05
1.21788e-05
1.19321e-05
1.32715e-05
1.20005e-05
1.20671e-05
1.16416e-05
1.17226e-05
1.19414e-05
1.17815e-05
1.09587e-05
1.17044e-05
1.19219e-05
1.15333e-05
1.11789e-05
1.17097e-05
1.17189e-05
1.13203e-05
1.15484e-05
1.18286e-05
1.16706e-05
1.09419e-05
1.14266e-05
1.14682e-05
1.11148e-05
1.2627e-05
1.13147e-05
1.14272e-05
1.1157e-05
1.12467e-05
1.16139e-05
1.16091e-05
1.12937e-05
1.15712e-05
1.18752e-05
1.17699e-05
1.13741e-05
1.18282e-05
1.20692e-05
1.18623e-05
1.11108e-05
1.18039e-05
1.20118e-05
1.17215e-05
1.04927e-05
1.1529e-05
1.16213e-05
1.12559e-05
1.26337e-05
1.10158e-05
1.11613e-05
1.06673e-05
9.83426e-06
1.03226e-05
1.04381e-05
9.93109e-06
9.18085e-06
9.55475e-06
9.64556e-06
9.09353e-06
8.37986e-06
8.71768e-06
8.82553e-06
8.39991e-06
7.78838e-06
8.25674e-06
8.39185e-06
8.05258e-06
9.36954e-06
8.06396e-06
8.26329e-06
8.00805e-06
7.29199e-06
8.01451e-06
8.21003e-06
7.99716e-06
7.53161e-06
8.11067e-06
8.37876e-06
8.23066e-06
7.98948e-06
8.41984e-06
8.68498e-06
8.60141e-06
8.43373e-06
8.69163e-06
8.984e-06
8.97172e-06
8.71002e-06
8.57978e-06
8.62211e-06
8.65429e-06
8.23239e-06
7.96084e-06
8.06186e-06
8.18202e-06
7.74371e-06
6.74695e-06
7.40058e-06
7.41446e-06
7.20261e-06
6.65152e-06
6.73244e-06
6.7297e-06
6.55515e-06
6.18059e-06
6.19921e-06
6.22721e-06
6.26686e-06
6.04398e-06
5.86359e-06
6.13849e-06
6.31082e-06
6.1095e-06
5.76854e-06
6.19887e-06
6.38657e-06
6.3094e-06
6.14534e-06
6.30402e-06
6.4753e-06
6.52352e-06
6.32143e-06
6.20213e-06
6.45295e-06
6.6285e-06
6.4233e-06
6.0788e-06
6.36098e-06
6.47363e-06
6.41786e-06
6.17374e-06
6.18749e-06
6.26616e-06
6.3592e-06
6.07437e-06
5.31308e-06
5.97506e-06
6.05241e-06
5.91874e-06
5.60275e-06
5.60991e-06
5.65645e-06
5.68553e-06
5.4072e-06
5.06399e-06
5.30777e-06
5.3581e-06
5.19152e-06
4.87979e-06
4.95617e-06
5.04004e-06
5.04556e-06
4.80103e-06
4.70814e-06
4.74271e-06
4.75261e-06
4.61939e-06
4.34944e-06
4.42833e-06
4.50914e-06
4.5096e-06
4.31826e-06
4.30088e-06
4.38686e-06
4.49472e-06
4.36376e-06
4.19407e-06
4.31088e-06
4.43446e-06
4.45514e-06
4.32898e-06
4.25186e-06
4.42427e-06
4.56523e-06
4.45445e-06
4.33257e-06
4.5049e-06
4.71389e-06
4.78522e-06
4.83829e-06
4.5751e-06
3.19521e-06
5.75924e-06
5.73544e-06
5.8897e-06
6.23814e-06
6.63984e-06
6.78264e-06
6.8856e-06
6.8788e-06
7.43586e-06
7.79802e-06
7.80807e-06
7.88036e-06
8.11637e-06
8.44385e-06
8.83946e-06
8.68491e-06
8.64823e-06
8.96248e-06
9.29562e-06
9.36407e-06
9.27188e-06
8.81575e-06
9.38307e-06
9.50097e-06
9.35011e-06
9.02391e-06
8.94483e-06
9.05269e-06
9.17155e-06
8.7232e-06
8.09203e-06
8.20005e-06
8.21839e-06
8.17543e-06
7.81007e-06
7.70956e-06
7.84942e-06
8.09631e-06
7.97237e-06
7.861e-06
8.08733e-06
8.37682e-06
8.68707e-06
8.73492e-06
8.81169e-06
8.87093e-06
9.32765e-06
9.74421e-06
9.91444e-06
9.99686e-06
9.99843e-06
1.11674e-05
1.18382e-05
1.18522e-05
1.20819e-05
1.26305e-05
1.31242e-05
1.31977e-05
1.3542e-05
1.3807e-05
1.45316e-05
1.45301e-05
1.48157e-05
1.46938e-05
1.52644e-05
1.50803e-05
1.49148e-05
1.36668e-05
1.3439e-05
1.17776e-05
1.10001e-05
1.10164e-05
1.02558e-05
9.70732e-06
9.34413e-06
9.06154e-06
8.26186e-06
7.58994e-06
7.31845e-06
6.49641e-06
6.18235e-06
6.01391e-06
5.61944e-06
5.60617e-06
5.47941e-06
5.49918e-06
6.03229e-06
5.94983e-06
6.59758e-06
7.47757e-06
7.39175e-06
7.82612e-06
7.89858e-06
7.38484e-06
7.92184e-06
8.13505e-06
9.56931e-06
1.06366e-05
1.0664e-05
1.06254e-05
9.91953e-06
9.62171e-06
8.0302e-06
7.1461e-06
6.89577e-06
6.11219e-06
5.70911e-06
5.68183e-06
5.17497e-06
5.11527e-06
5.53901e-06
5.4734e-06
5.72916e-06
6.04313e-06
6.06528e-06
5.9339e-06
7.21852e-06
8.49018e-06
8.53129e-06
9.39562e-06
9.81899e-06
9.80741e-06
9.43515e-06
8.74369e-06
8.69095e-06
7.59519e-06
6.85751e-06
6.25566e-06
6.10031e-06
5.42572e-06
5.34569e-06
5.42215e-06
5.38907e-06
1.81027e-05
1.7463e-05
1.73324e-05
1.66089e-05
1.59258e-05
1.57536e-05
1.57622e-05
1.55005e-05
1.52453e-05
1.52882e-05
1.53529e-05
1.51283e-05
1.4463e-05
1.49056e-05
1.49342e-05
1.47932e-05
1.42422e-05
1.45756e-05
1.46081e-05
1.45002e-05
1.42138e-05
1.42775e-05
1.43131e-05
1.42338e-05
1.39962e-05
1.39975e-05
1.40381e-05
1.39827e-05
1.37584e-05
1.37233e-05
1.37577e-05
1.37204e-05
1.34968e-05
1.34242e-05
1.3452e-05
1.3428e-05
1.31955e-05
1.3085e-05
1.3094e-05
1.30773e-05
1.28253e-05
1.2659e-05
1.26459e-05
1.26245e-05
1.23101e-05
1.21032e-05
1.19944e-05
1.19685e-05
1.16279e-05
1.12276e-05
1.10965e-05
1.10379e-05
1.04202e-05
9.96549e-06
9.23346e-06
9.13188e-06
8.7406e-06
4.69341e-06
8.22073e-06
8.28035e-06
8.5952e-06
8.82195e-06
9.37439e-06
9.4665e-06
9.63231e-06
9.72637e-06
1.02105e-05
6.82057e-06
1.03213e-05
1.02634e-05
1.05436e-05
1.05937e-05
1.06552e-05
1.07831e-05
1.11063e-05
1.11358e-05
1.0826e-05
1.12987e-05
1.15383e-05
1.15917e-05
1.09457e-05
1.17218e-05
1.19085e-05
1.19322e-05
1.1624e-05
1.20299e-05
1.21581e-05
1.21649e-05
1.19638e-05
1.22456e-05
1.23175e-05
1.22305e-05
1.22141e-05
1.24595e-05
1.2477e-05
1.1556e-05
1.24169e-05
1.26171e-05
1.25994e-05
1.22566e-05
1.26034e-05
1.27113e-05
1.26035e-05
1.25142e-05
1.27533e-05
1.27801e-05
1.19709e-05
1.26894e-05
1.28812e-05
1.28597e-05
1.25675e-05
1.28699e-05
1.29464e-05
1.19148e-05
1.27975e-05
1.304e-05
1.30067e-05
1.26594e-05
1.29881e-05
1.30806e-05
1.19759e-05
1.29031e-05
1.3149e-05
1.30879e-05
1.27974e-05
1.31046e-05
1.31795e-05
1.23973e-05
1.30492e-05
1.32433e-05
1.28816e-05
1.29947e-05
1.33154e-05
1.32675e-05
1.28814e-05
1.32329e-05
1.33278e-05
1.25886e-05
1.3202e-05
1.33915e-05
1.23901e-05
1.31695e-05
1.34498e-05
1.31058e-05
1.31541e-05
1.35077e-05
1.33859e-05
1.31238e-05
1.35681e-05
1.34812e-05
1.30743e-05
1.36103e-05
1.35446e-05
1.3043e-05
1.34754e-05
1.35767e-05
1.30196e-05
1.34968e-05
1.36045e-05
1.30829e-05
1.35584e-05
1.36587e-05
1.31788e-05
1.38103e-05
1.37159e-05
1.33261e-05
1.38465e-05
1.36268e-05
1.34556e-05
1.38941e-05
1.34473e-05
1.35589e-05
1.38859e-05
1.29142e-05
1.36e-05
1.38884e-05
1.31523e-05
1.3668e-05
1.37071e-05
1.33545e-05
1.37915e-05
1.42055e-05
1.32776e-05
1.34882e-05
1.26961e-05
1.35427e-05
1.3301e-05
1.30749e-05
1.35248e-05
1.25118e-05
1.327e-05
1.3399e-05
1.30322e-05
1.3566e-05
1.25447e-05
1.32991e-05
1.33757e-05
1.31385e-05
1.36575e-05
1.27885e-05
1.39688e-05
1.37848e-05
1.31957e-05
1.34772e-05
1.29528e-05
1.34764e-05
1.29633e-05
1.34374e-05
1.26077e-05
1.29808e-05
1.15699e-05
1.1752e-05
9.99207e-06
9.83161e-06
8.28775e-06
8.24076e-06
7.40524e-06
7.45318e-06
6.85594e-06
6.9867e-06
6.93849e-06
6.65767e-06
6.37654e-06
6.54424e-06
6.37008e-06
6.46124e-06
6.35605e-06
6.55731e-06
6.54137e-06
6.68962e-06
6.73713e-06
6.57063e-06
6.68535e-06
6.01463e-06
6.37763e-06
6.19689e-06
6.63188e-06
6.59681e-06
6.51209e-06
6.55529e-06
5.42636e-06
5.71646e-06
5.11549e-06
6.18968e-06
6.07665e-06
5.00803e-06
5.00123e-06
3.49442e-06
4.10096e-06
3.65657e-06
4.53963e-06
4.48874e-06
4.23938e-06
4.63114e-06
3.74136e-06
5.02879e-06
4.86575e-06
5.67158e-06
6.13456e-06
6.05763e-06
5.35489e-06
4.81009e-06
2.11954e-06
2.15949e-06
1.17553e-06
2.40523e-06
2.43051e-06
3.41086e-06
3.772e-06
3.68742e-06
3.9179e-06
3.70213e-06
1.77746e-06
1.31164e-06
1.08699e-06
1.23358e-06
1.2834e-06
1.14296e-06
1.37892e-06
1.35137e-06
1.31259e-06
1.66276e-06
1.59989e-06
1.73643e-06
1.79356e-06
1.67159e-06
1.90756e-06
1.92363e-06
1.80402e-06
2.28269e-06
2.26576e-06
2.28597e-06
2.65996e-06
2.60247e-06
2.86176e-06
3.34931e-06
3.233e-06
3.75825e-06
3.90416e-06
3.99261e-06
4.51792e-06
4.62472e-06
4.55753e-06
5.70692e-06
5.89589e-06
6.26625e-06
7.76074e-06
7.89479e-06
7.85355e-06
9.82176e-06
9.97237e-06
9.88425e-06
1.19887e-05
1.21228e-05
1.18899e-05
1.38985e-05
1.4045e-05
1.37196e-05
1.5383e-05
1.55755e-05
1.52873e-05
1.65435e-05
1.68275e-05
1.66021e-05
1.74188e-05
1.82127e-05
1.76702e-05
1.79696e-05
1.88969e-05
1.85318e-05
1.79183e-05
1.94552e-05
1.92567e-05
1.726e-05
1.99082e-05
1.99109e-05
1.90098e-05
2.02912e-05
2.05362e-05
2.01368e-05
2.05066e-05
2.12692e-05
2.08945e-05
1.95681e-05
2.16315e-05
2.15449e-05
2.03579e-05
2.19083e-05
2.21336e-05
2.17077e-05
2.18825e-05
2.26428e-05
2.23439e-05
1.98417e-05
2.27786e-05
2.28379e-05
2.22011e-05
2.27101e-05
2.32077e-05
2.28109e-05
2.05896e-05
2.31318e-05
2.31453e-05
2.24307e-05
2.28881e-05
2.3302e-05
2.29306e-05
2.01861e-05
2.31347e-05
2.32083e-05
2.25893e-05
2.26659e-05
2.31263e-05
2.2894e-05
2.13069e-05
2.28282e-05
2.31156e-05
2.2579e-05
2.15054e-05
2.28663e-05
2.28548e-05
2.22409e-05
2.25816e-05
2.30188e-05
2.27963e-05
2.14128e-05
2.25458e-05
2.26389e-05
2.21651e-05
2.00728e-05
2.24955e-05
2.26149e-05
2.22563e-05
2.21825e-05
2.29494e-05
2.29258e-05
2.24607e-05
2.28936e-05
2.33782e-05
2.32321e-05
2.25365e-05
2.33676e-05
2.37184e-05
2.34478e-05
2.20419e-05
2.3458e-05
2.37228e-05
2.33456e-05
2.06912e-05
2.31421e-05
2.32241e-05
2.27449e-05
1.97456e-05
2.24185e-05
2.25595e-05
2.19099e-05
1.95571e-05
2.13948e-05
2.14857e-05
2.07472e-05
1.87724e-05
2.00953e-05
2.0148e-05
1.93046e-05
1.74074e-05
1.8631e-05
1.87166e-05
1.80807e-05
1.61016e-05
1.77532e-05
1.78817e-05
1.73867e-05
1.5016e-05
1.73528e-05
1.75872e-05
1.72559e-05
1.54597e-05
1.7261e-05
1.7525e-05
1.72542e-05
1.63373e-05
1.75423e-05
1.79362e-05
1.77549e-05
1.73684e-05
1.81678e-05
1.85554e-05
1.84518e-05
1.82456e-05
1.87163e-05
1.91552e-05
1.91314e-05
1.8832e-05
1.86273e-05
1.8746e-05
1.87516e-05
1.82183e-05
1.74467e-05
1.80096e-05
1.81051e-05
1.75192e-05
1.54144e-05
1.69433e-05
1.68037e-05
1.65043e-05
1.55265e-05
1.5617e-05
1.54183e-05
6.67659e-06
1.44336e-05
1.4367e-05
1.43368e-05
1.43533e-05
1.40037e-05
1.32158e-05
1.41498e-05
1.43995e-05
1.41387e-05
1.35512e-05
1.44396e-05
1.476e-05
1.46628e-05
1.44978e-05
1.48422e-05
1.51282e-05
1.5176e-05
1.49749e-05
1.4313e-05
1.52359e-05
1.54476e-05
1.51863e-05
1.46148e-05
1.51546e-05
1.52841e-05
1.51989e-05
1.48774e-05
1.49224e-05
1.50763e-05
1.51672e-05
1.48043e-05
1.30695e-05
1.46195e-05
1.46699e-05
1.44775e-05
1.39463e-05
1.3952e-05
1.39486e-05
1.39564e-05
1.35397e-05
1.22344e-05
1.33533e-05
1.33608e-05
1.31254e-05
1.26287e-05
1.28005e-05
1.28737e-05
1.28551e-05
1.24825e-05
1.20312e-05
1.22665e-05
4.80761e-06
1.19184e-05
1.13715e-05
1.14346e-05
1.14298e-05
1.14021e-05
1.10459e-05
1.07621e-05
1.10594e-05
1.11886e-05
1.09935e-05
1.06985e-05
1.09628e-05
1.11633e-05
1.11847e-05
1.10205e-05
1.05466e-05
1.12157e-05
1.14023e-05
1.12383e-05
1.10061e-05
1.12515e-05
1.14769e-05
1.15554e-05
1.15777e-05
9.90899e-06
5.37415e-06
1.28791e-05
1.28487e-05
1.30397e-05
1.35803e-05
1.417e-05
1.4371e-05
1.45843e-05
1.44805e-05
1.55887e-05
1.62547e-05
1.62968e-05
1.65735e-05
1.7091e-05
1.78107e-05
1.85342e-05
1.83799e-05
1.85034e-05
1.92225e-05
1.98365e-05
1.99438e-05
2.00229e-05
1.85031e-05
2.04874e-05
2.06264e-05
2.04434e-05
2.00443e-05
2.003e-05
2.01544e-05
2.02349e-05
1.95363e-05
1.83545e-05
1.84163e-05
1.81484e-05
1.8038e-05
1.73198e-05
1.68674e-05
1.69693e-05
1.71811e-05
1.70149e-05
1.67904e-05
1.71462e-05
1.75707e-05
1.80684e-05
1.81433e-05
1.83486e-05
1.8532e-05
1.93289e-05
2.00392e-05
2.02603e-05
2.05265e-05
1.02007e-05
2.25321e-05
2.3412e-05
2.34544e-05
2.39004e-05
2.46227e-05
2.52669e-05
2.53614e-05
2.57822e-05
2.5934e-05
2.6563e-05
2.63926e-05
2.65433e-05
2.59477e-05
2.64171e-05
2.6172e-05
2.55097e-05
2.32785e-05
2.28571e-05
1.99001e-05
1.80008e-05
1.78562e-05
1.62679e-05
1.51361e-05
1.44264e-05
1.40782e-05
1.30677e-05
1.21815e-05
1.18651e-05
1.07997e-05
1.03644e-05
1.01658e-05
9.77006e-06
9.97047e-06
9.86182e-06
1.03195e-05
1.14778e-05
1.1473e-05
1.28974e-05
1.43909e-05
1.43856e-05
1.48985e-05
1.48002e-05
1.32511e-05
1.33246e-05
1.35303e-05
1.45716e-05
1.56476e-05
1.56632e-05
1.55469e-05
1.47561e-05
1.44565e-05
1.262e-05
1.13911e-05
1.10703e-05
9.96599e-06
9.55512e-06
9.54645e-06
9.20888e-06
9.73324e-06
1.08532e-05
1.08898e-05
1.16732e-05
1.18291e-05
1.17439e-05
1.06859e-05
1.19445e-05
1.31407e-05
1.3175e-05
1.41077e-05
1.45648e-05
1.4556e-05
1.4169e-05
1.33351e-05
1.3223e-05
1.18871e-05
1.08814e-05
1.01421e-05
9.95853e-06
9.10942e-06
9.49352e-06
9.58101e-06
9.49641e-06
1.80312e-05
1.74456e-05
1.73296e-05
1.66717e-05
1.6031e-05
1.58384e-05
1.58667e-05
1.56016e-05
1.54343e-05
1.53932e-05
1.54672e-05
1.52376e-05
1.53395e-05
1.50242e-05
1.50462e-05
1.49096e-05
1.48971e-05
1.46954e-05
1.47213e-05
1.46167e-05
1.44609e-05
1.43982e-05
1.44264e-05
1.43495e-05
1.41746e-05
1.4121e-05
1.41508e-05
1.40972e-05
1.39137e-05
1.38511e-05
1.38697e-05
1.38341e-05
1.36411e-05
1.3559e-05
1.35628e-05
1.35405e-05
1.33344e-05
1.32283e-05
1.32035e-05
1.31899e-05
1.2959e-05
1.28159e-05
1.27512e-05
1.27351e-05
1.24453e-05
1.22629e-05
1.20994e-05
1.20741e-05
1.17597e-05
1.13936e-05
1.11995e-05
1.11392e-05
1.05512e-05
1.01292e-05
9.32924e-06
9.23213e-06
8.89005e-06
9.07741e-06
8.3403e-06
8.38681e-06
8.75532e-06
8.95663e-06
9.45543e-06
9.55742e-06
9.80582e-06
9.84115e-06
1.03138e-05
1.03831e-05
1.05962e-05
1.03712e-05
1.06392e-05
1.06934e-05
1.11008e-05
1.08869e-05
1.11995e-05
1.12432e-05
1.193e-05
1.14094e-05
1.16396e-05
1.17151e-05
1.16412e-05
1.18383e-05
1.20191e-05
1.20844e-05
1.18672e-05
1.21497e-05
1.22804e-05
1.23864e-05
1.21308e-05
1.23672e-05
1.24538e-05
1.28429e-05
1.2363e-05
1.25849e-05
1.26332e-05
1.25943e-05
1.25655e-05
1.27585e-05
1.28099e-05
1.25005e-05
1.27456e-05
1.28672e-05
1.31873e-05
1.26896e-05
1.28957e-05
1.29655e-05
1.27555e-05
1.28545e-05
1.30446e-05
1.31866e-05
1.27892e-05
1.30244e-05
1.31354e-05
1.36792e-05
1.29934e-05
1.32142e-05
1.33267e-05
1.29183e-05
1.3153e-05
1.32865e-05
1.38097e-05
1.31149e-05
1.33369e-05
1.3528e-05
1.30468e-05
1.32773e-05
1.34227e-05
1.31063e-05
1.32449e-05
1.34541e-05
1.39754e-05
1.3228e-05
1.35187e-05
1.36838e-05
1.31838e-05
1.34224e-05
1.36094e-05
1.32366e-05
1.34099e-05
1.3635e-05
1.4129e-05
1.34266e-05
1.36835e-05
1.41636e-05
1.342e-05
1.37396e-05
1.40654e-05
1.34243e-05
1.38011e-05
1.39975e-05
1.34262e-05
1.3847e-05
1.40002e-05
1.34542e-05
1.36948e-05
1.40163e-05
1.34751e-05
1.37169e-05
1.40619e-05
1.3545e-05
1.37903e-05
1.4158e-05
1.36186e-05
1.40412e-05
1.43556e-05
1.37792e-05
1.41299e-05
1.45148e-05
1.38448e-05
1.42217e-05
1.469e-05
1.39079e-05
1.42461e-05
1.46946e-05
1.40727e-05
1.44052e-05
1.39615e-05
1.41002e-05
1.46113e-05
1.39555e-05
1.4388e-05
1.48172e-05
1.40444e-05
1.44812e-05
1.39912e-05
1.44183e-05
1.47125e-05
1.40339e-05
1.45062e-05
1.46564e-05
1.42252e-05
1.4748e-05
1.40985e-05
1.46001e-05
1.47278e-05
1.42706e-05
1.48158e-05
1.41911e-05
1.47382e-05
1.45249e-05
1.50961e-05
1.55275e-05
1.4354e-05
1.49004e-05
1.4205e-05
1.48249e-05
1.41718e-05
1.47137e-05
1.37326e-05
1.40943e-05
1.24588e-05
1.25515e-05
1.18833e-05
1.03135e-05
8.6899e-06
8.46084e-06
7.7827e-06
7.60346e-06
7.26846e-06
7.10214e-06
6.98102e-06
6.71574e-06
6.75397e-06
6.61442e-06
6.61635e-06
6.54913e-06
6.51994e-06
6.66975e-06
6.64813e-06
6.87981e-06
6.82268e-06
6.97955e-06
6.77451e-06
6.5636e-06
6.48116e-06
6.47341e-06
6.79851e-06
6.78079e-06
6.91343e-06
6.73301e-06
6.39987e-06
5.89724e-06
5.83836e-06
6.45098e-06
6.42158e-06
5.51112e-06
5.21524e-06
4.34882e-06
4.28589e-06
4.27719e-06
4.87941e-06
4.79663e-06
5.14233e-06
4.84203e-06
4.96911e-06
5.33638e-06
5.27361e-06
6.46065e-06
6.41421e-06
8.56452e-06
5.63265e-06
5.19587e-06
2.4199e-06
2.24143e-06
1.69882e-06
2.52799e-06
2.60719e-06
3.98789e-06
3.90765e-06
4.51437e-06
4.12906e-06
3.88108e-06
2.29395e-06
1.35142e-06
1.18997e-06
1.32877e-06
1.31696e-06
1.50403e-06
1.42683e-06
1.40186e-06
1.58833e-06
1.69629e-06
1.69506e-06
1.83751e-06
1.82221e-06
1.883e-06
1.96392e-06
1.96179e-06
2.25828e-06
2.32938e-06
2.32475e-06
2.61037e-06
2.70868e-06
2.69734e-06
3.07414e-06
3.40659e-06
3.40645e-06
3.93969e-06
3.97197e-06
4.30591e-06
4.70315e-06
4.72144e-06
5.12372e-06
5.94396e-06
6.05798e-06
7.27238e-06
8.0683e-06
8.1341e-06
9.26018e-06
1.02376e-05
1.03154e-05
1.16601e-05
1.25397e-05
1.25954e-05
1.37619e-05
1.45775e-05
1.46096e-05
1.54218e-05
1.61961e-05
1.62153e-05
1.67093e-05
1.75049e-05
1.75257e-05
1.77833e-05
1.85993e-05
1.89976e-05
1.86994e-05
1.95806e-05
1.97352e-05
1.9488e-05
2.07273e-05
2.03548e-05
2.01918e-05
2.17427e-05
2.08947e-05
2.08212e-05
2.09983e-05
2.14368e-05
2.14562e-05
2.13869e-05
2.21117e-05
2.22658e-05
2.19866e-05
2.34953e-05
2.27072e-05
2.25884e-05
2.28222e-05
2.31383e-05
2.31737e-05
2.30214e-05
2.37417e-05
2.3755e-05
2.3507e-05
2.51281e-05
2.39826e-05
2.39484e-05
2.37466e-05
2.42558e-05
2.43535e-05
2.40254e-05
2.56282e-05
2.43406e-05
2.42818e-05
2.39918e-05
2.44094e-05
2.44518e-05
2.41313e-05
2.56505e-05
2.4346e-05
2.43316e-05
2.39556e-05
2.43834e-05
2.4259e-05
2.40288e-05
2.4037e-05
2.40568e-05
2.42102e-05
2.376e-05
2.47731e-05
2.39862e-05
2.39288e-05
2.36097e-05
2.40264e-05
2.40992e-05
2.38802e-05
2.38286e-05
2.37154e-05
2.36787e-05
2.32551e-05
2.48623e-05
2.35801e-05
2.36406e-05
2.34111e-05
2.41506e-05
2.40216e-05
2.39704e-05
2.37686e-05
2.4279e-05
2.44531e-05
2.42997e-05
2.41827e-05
2.46016e-05
2.47983e-05
2.45352e-05
2.45076e-05
2.46233e-05
2.47916e-05
2.44346e-05
2.50209e-05
2.42456e-05
2.42508e-05