/*--------------------------------*- C++ -*----------------------------------*\
| =========                 |                                                 |
| \\      /  F ield         | OpenFOAM: The Open Source CFD Toolbox           |
|  \\    /   O peration     | Version:  v2012                                 |
|   \\  /    A nd           | Website:  www.openfoam.com                      |
|    \\/     M anipulation  |                                                 |
\*---------------------------------------------------------------------------*/
FoamFile
{
    version     2.0;
    format      ascii;
    class       volScalarField;
    location    "1e-06";
    object      omega;
}
// * * * * * * * * * * * * * * * * * * * * * * * * * * * * * * * * * * * * * //

dimensions      [0 0 -1 0 0 0 0];


internalField   nonuniform List<scalar> 
102000
(
221954
180124
158859
108296
100356
103805
105744
99826
95486.5
99173.1
102460
97108.8
94682.1
96290.7
100379
95902.7
92205.6
94405.2
98553.6
95220.2
90472.6
92899.4
97102.6
94773.8
89982.7
91621.8
95827.9
94350.1
89577.3
90401.3
94587.4
93825.2
89049.4
89172
93274.7
93083.4
88310.3
87720.5
91776.4
91982.1
87016.4
86129
89719.4
90198.4
85378.7
83383.8
87142.4
87500.8
81603.4
80668.2
82026.2
82336.4
77821.6
71960.3
75409.4
73919.5
62688.8
69548
88119.2
91251.1
91307.5
99034.7
105027
104054
98954.8
100200
106828
106130
105823
114261
124737
122183
117401
125493
134145
128848
136038
132721
139089
132772
135315
138598
142509
136206
137621
145355
146226
139676
144448
153362
150219
143698
151837
161214
153128
158752
159526
163206
155432
158388
167381
165289
157887
166120
176368
167085
170289
174775
176600
167532
173791
183871
177007
217217
182951
186136
176552
181987
192464
185453
226002
192245
194205
184009
191412
202731
192035
195413
201970
199492
197019
201566
206715
195292
202325
213888
202507
206410
213943
208455
253283
215185
214139
209588
215031
219022
207177
216801
224432
211959
219927
229780
216698
223844
236809
221439
228155
240103
224596
230476
242463
226013
232706
242320
235845
237181
240552
230122
240175
245751
285624
245676
247955
304518
254475
242400
247024
254275
239423
247931
248804
289915
247955
237856
245132
250690
238386
247600
244607
257675
256493
240739
251410
249622
297894
263223
247105
258661
254242
261959
259176
298643
263127
250829
269420
261948
274388
265977
269142
260372
251433
244589
238182
244922
266769
276978
295639
298654
305886
303074
340985
278243
310478
253682
245878
232656
228680
219501
219640
200591
200644
178918
177869
183700
153561
148106
134419
132467
111644
115290
129244
111919
108655
108929
109108
109334
114553
140942
109156
102682
99517.4
100452
97116.1
103387
102006
98897.6
97475.7
90695.1
94116.5
105014
89576.3
89004.5
93515.8
99265.4
120957
96776.6
95441.5
90174.2
96363.4
88763.1
85782.9
86811.6
88431
91964
87838.8
88414.4
92837.3
93118.8
91426.8
91828.1
92785.5
97225.9
92894.1
93494.8
98308.1
95085.5
94889.6
96738
113369
97606.2
96936.1
96952.1
103775
102243
104967
113363
109404
109173
111924
104320
108161
115858
120714
128994
134096
129474
127722
130891
126349
122872
125900
122795
119698
122493
117089
114970
118261
111814
110376
114451
107014
105650
110948
103550
101634
106764
101205
98388.8
102909
99638.7
97453.6
99354.5
98672.8
115929
96161
97941.2
93190.5
92856.7
97394.2
91555.4
89408.6
93305.1
90509
90461.8
88830.7
89310.8
85097
84332.3
88167.9
82628.3
80128
83206.1
81613.8
95396
78657.1
80666.8
75825.2
74384.5
77448.9
75143.3
88337.5
73199.6
74737.6
70412.2
69275.1
72226.3
70286.6
82693.1
68147.9
70213.5
66233.8
64749.8
67595.6
66841.6
64376.4
64325.6
67343
64114.7
62685.4
64132.1
65258.9
61889.3
61092.5
63837.7
62946.2
60651
61718.9
65410.2
62992
75445.6
62517.4
64601.1
61138
59215.7
61655.6
62295.6
59024.5
58188.1
60694.1
60155.1
57009.5
56945
59425.1
58041.2
55778
55944.3
58324.6
56231.4
56501.4
54984.5
57605.7
55085.7
66179.8
54442.6
57037.5
54063.5
55577.3
53676.2
56061.4
53313.1
53526.7
53766.1
56177.5
53544.9
53790.5
54158.1
56711.9
53957.6
55649.7
54022.8
56793.5
53892.8
65609.3
53203.9
55728.7
53062.7
52693.7
51565.9
53752.1
51619.9
48974.6
49074.9
50970.7
49506.1
46383.9
46223.2
48073.9
47421.7
44498
43816.4
45487.5
45641.9
43053.5
41860.7
43698.3
44795.4
42336.4
40671.2
42060.4
44130.4
41681.3
40894.6
40535.2
42524.9
41308.3
39418.5
40066.2
42522.7
42573.9
40771.4
40017.6
42483.3
43676.5
41353.1
40164.4
40956.5
42685.7
40649.9
38169.8
37997.9
39296.6
38604.8
35810.6
34633.7
36016.4
36778.1
34488.2
32891.8
33746.8
35332.6
33831.2
31969.8
32185.9
33833
33727
31770.7
30776.5
32267.9
33528.9
31568.1
30829.4
30553.6
31974
31215.1
29336.1
28990
30466.1
31169.7
29282.8
28960.7
28693.9
30004.4
28898.9
27103.8
26887.7
28176.1
28567.2
26903.5
25590.6
27081.2
28765.5
27705.7
26450.6
27121.8
29061.1
29589
28374.3
27320
28986.7
30642.2
29458.5
27672.5
27626.6
28832.9
29174.5
27169.2
25748.7
26457.6
27627.4
26620
24879.4
24654.5
26039.6
26668.4
25247.6
27858.3
24990.9
26240.3
25693
24420.9
24051.8
25219.8
26082.4
24672.3
23256.5
23446.8
24116.3
23842.7
22160
20824.5
21305.6
21664
20535.6
18919.8
18548.8
18877.4
18957.9
17580.9
17217.6
16705.9
17300.7
16888.3
15935.9
15547.1
15878.1
16393.9
15587.6
15169
15632
16643.5
16803.7
16358.4
15978.8
17032.8
17891.3
17361.2
16603.4
16142.8
16573
16877.7
16871.8
15943.3
14902
14709.6
14973.2
15296.1
14305.6
13251.8
13174.9
13602.2
13413.7
12556.4
12404.6
12910.6
12910.2
12241
12392
13432.9
13357.3
12840.2
14567.2
15711
14977.7
14852.9
17836.7
18480.2
20046.2
23781
25233.6
25641.4
27011
29078.6
27441.1
26669.1
27850.3
26372.9
25000.8
26385.6
25166.1
23595.2
24352.3
22940.7
20537.3
20379.7
18684
16533.1
16868
15292
15882.3
18420.2
21582.2
26601
26795.1
22295.1
24917.8
24803.5
24222.2
25661.8
24239.6
22688.8
23454.5
22560.2
21016
21881.7
22101.6
19531.5
17542.7
16826.4
15374.1
13241.6
14900.3
15721.7
17737.8
18144.3
20005.5
19148.9
19589.4
21075
20995.3
19850.6
20326.5
21115.8
19413.9
18758.8
19570.5
19067.8
17283.4
16804.6
17279
15577.8
162068
118508
113483
84065.4
81588.6
79021.4
78163.1
78282.5
78018.2
75790.5
74651.4
75217.1
77386.7
73989.4
72329.2
73498.9
75548.4
72962.2
71410.2
72287.1
73541
72202.6
70738.4
71354.1
72485.5
71589.2
70137.2
70514.6
71608.4
70971.2
69508.2
69678.2
70729.8
70288.8
68750.6
68745.9
69777.1
69355.8
67805.9
67653.7
68463.6
68242.7
66287.5
66037.8
67009.2
66087.6
64492.8
64105
63842.3
63954.6
60106.4
59741
61024.4
56540.1
55772.2
54864.2
47810.3
52269
61041.8
61795.7
67813.6
75683.7
73832.2
73643.1
76106.3
77465.2
76060.6
76353.4
81392.1
87304.8
88380.8
88892.5
91015.2
95553.4
94649.6
95330.3
98618.9
100343
97382.5
99910.3
111222
103847
101616
104107
110889
107445
106063
108168
113577
111386
110922
112260
116784
114711
115243
129480
119949
117173
119383
126502
122821
121601
123093
128222
125745
126042
139834
130777
127981
129513
136561
132932
132253
122225
137534
134075
135862
143776
139546
138480
153425
144356
140468
141937
149673
145441
144635
159496
149819
146680
150030
154024
148414
149806
159398
154015
152600
167629
157698
154505
143576
160466
156198
159748
164318
157810
158970
168046
159681
161336
172372
162082
163892
176693
169441
166850
180686
172229
169283
182441
173809
170845
183404
171250
172198
182739
172643
174988
183538
174613
162679
182414
177231
165031
183988
178369
198753
185847
181589
194534
183245
177016
194024
186449
205002
187473
189420
198975
188817
209794
197208
191098
203939
192151
216470
201931
196344
208886
197236
221481
195427
185428
205220
196316
217785
203319
220890
206725
217722
204574
204782
193959
189857
189420
210482
210523
228071
223523
232294
224329
200119
204873
188693
192973
200166
182077
185590
174978
175498
162576
158872
143170
138159
117733
121860
125130
114439
113481
92270.5
90136.4
73728.1
81617.2
86649.6
80506.1
81932.9
80038.7
78720.6
67111.9
70466.7
74647.3
67017.3
67704.4
67510.7
63946.6
70459
63805.5
66235.8
62703.4
59828
43676.4
57107.4
60164.4
65359.1
63368.4
70526.9
62759.8
64484
61966.5
58402.2
62485.6
55708.2
56347.9
60429
58021.5
62411.7
61635.7
60374.6
65449.9
62617.9
63848.9
67638.8
65111.8
69061.6
70633.2
69397.9
75535.2
72873.4
72895.5
65019.2
74265.1
75524.5
77679.2
77469.8
80015.1
82406.7
82148.7
85801.7
84694.8
83604.9
83550.9
83236.7
82999
93708.4
93280.3
92335
97639.5
90747.2
90387.6
95942.6
87798.1
87516.5
92856
85865.7
85549.8
90073.2
83297.9
82730.9
86320.9
80764.1
79828
82335.3
78332.7
76984.9
79001.8
76480.2
73807.4
76318.6
75212.4
72543.5
74115.9
74940.7
71424.4
72052.5
64434.5
70485.1
70336.4
72871
69467.6
68386.4
69859
68437.8
66105.6
67313.9
68441.9
64649.7
64743.1
66952.5
63137.2
62130.8
63063.7
61825
59590.6
60255.8
53471.9
58208.5
57741.7
58718.5
56963
55080
55960.6
49495.6
54014.6
53678.7
54654.9
53108.5
51458.9
52222.3
46228.9
50593.1
50085.5
50984.5
50171.7
48738.4
49147.4
51139.5
48492.3
47198.1
48457.3
49058.9
47183.2
46992.8
48050.9
47197.1
45958
46399.8
48281.3
46681.6
46058.7
47206.1
41683.3
46334.8
45809.2
46688.5
46375.9
45057
44971.8
45868.4
44999.1
43794.2
44047.8
44991.6
43545.1
42397.1
42932.4
44494.1
42327.3
41123.4
41869.8
44186.2
41195.2
40175.2
41130.8
36131.9
40406.2
39661.1
40397.4
41308.7
39553.2
38901
39783.4
40989.4
39407.6
38780.8
39820.7
41074.8
39549
38877.4
39925.8
41104.1
39449.1
38682.8
39675.5
34055
39007.1
37855
38840.5
40879
38068.2
36784.6
37531.4
38751.4
36549.5
35249.6
35727.8
36302.4
34867.7
33741.1
33960.3
34396.2
33520.2
32369.3
32316.7
32800.2
32391.1
31413.7
31088
31609.2
31615.9
30520.4
29871.9
30438.8
32270.8
29823.3
28958.4
29484
30606.6
30006.2
29496.8
29831.5
30829.9
30540.5
30049.4
29754
30431.1
30786.5
29522.9
28421.5
29138.5
29899.9
28027.5
26803.2
26967.3
27116.4
26263.5
25240.5
24962.5
25366.2
25262.7
24363.1
23578.2
24158.6
24895.9
23897.1
23256.9
23340.8
23777.9
23504
22736.1
22307.3
22744.3
24203.9
22155.1
21369.9
21655.6
22135.3
21722.7
21016.5
20777.6
21209.2
21466.6
20510.9
19713.1
20116.9
20610.7
19937.4
19219.6
19097.5
19580.1
19634.8
19256
18902.1
19367.3
20220.2
20080.5
19831.8
19806.2
20647.3
20900.7
20522.9
19973
20465.4
20975.6
20338.5
19519.3
19353
19578.9
19547.1
18744.6
18050.6
18409.5
18790.4
18403.3
18012.4
17852.7
18344.3
19441.3
24853
17872.4
18102.3
18596.3
18512.2
18094
17815.4
18107.2
18492.6
17580.7
16887.1
16879.9
16801.2
16325.1
15580.5
14770.7
14993.5
14854.3
14190.1
13485.5
13342
13217.2
13269.1
12452
12048.3
12162
12287.7
12086.5
11476.6
11267.7
11476.1
12085.7
11843.3
11788.4
11833.8
12377
12670.6
12620.8
12384
12588.2
12902.9
12676.9
12377
11995.4
11941.4
11929.1
11862.3
11440.8
10976.1
10800.3
10765.5
10739.3
10179
9907.05
9938.16
9949.35
9859.35
9622.23
9616.08
9771.88
9871.88
10092.8
10203.6
10507
11439.2
11453.2
11726
12063.5
13506.2
13795.1
16294.1
18177.2
18196.4
20215.7
20965
20658.2
21235.2
20897.2
19693.9
19980.4
19530.1
18483
18756.4
18279.5
16774.6
16986.9
15696.9
13778.7
13935.2
12534.8
11433.4
11685.3
11755.9
12058.5
16539.8
19668.1
19448.5
18284.1
18678.5
18886.6
19524.1
18570
18896.7
17715.6
16634.1
16774.4
16860.2
15870.1
15586.1
14992.2
13006.5
11173.7
11215.6
10358.4
10423.4
10630.8
13807
13565.9
14103.6
14669
15704.4
15612.4
15680.9
16126.3
15488.7
15109.3
14966.4
14661.1
13884
13937.3
13905.3
12119.4
11896.3
12198.7
77033.7
67664.7
66195
55882.4
53570.4
51875.4
51391.5
51045.9
50671.7
49288.1
48764.1
48729
50571.3
47761.2
46954.6
47362
48871.9
46838
46115.2
46422.7
47007.8
46154.4
45488.3
45702.6
46144.7
45600.3
44947.4
45073.1
45469.7
45076.9
44414.3
44461.1
44823
44528.1
43821.1
43799
44135.7
43853.7
43113.7
43031.7
43257.5
43042.1
42106.8
41969
42220.3
41705.2
40830.9
40638.8
40310.4
40111.2
38209.8
38014.7
38176.7
35828
35034.5
34542.4
30690.8
51501.1
31736.2
32135.3
37017.2
42161.1
42826.1
42924.2
44927.6
46561.1
45913.8
75491.2
48158.3
51517
52592.7
52843
55218.1
57463.2
57614.7
57840.8
63027.8
61368
60112.8
61531
68846.2
64315.2
63322.6
64615.4
68737.3
67008.5
66331.6
67509.4
70575.6
69711
69386.4
71454.7
72885.8
72195.7
72258.2
81858.7
75220.3
73862.1
75049.5
79209.6
77361.5
76660.6
78627.9
80496.6
79495.2
79426
88201.5
82379.6
80940
82109.7
85807.3
84135.2
83616.8
94969.5
87026.9
85057.2
86244.9
90561.5
88439.6
87726.2
100507
91290.5
89173.9
90604.9
94414.6
92332.3
91748
100912
94897
93170.8
98097.8
97469.4
94480
95770.9
100692
97922.6
97061.1
106156
100225
98414.4
110701
102402
99630.6
104483
104464
100864
102899
106424
101844
103476
109009
103328
104762
111596
107457
106391
114052
109460
108288
115622
110698
109770
116301
109723
111727
116907
110864
114171
117062
112021
117750
117373
114147
127242
119273
115685
126128
119837
119447
125635
119403
115823
127316
124211
136707
124533
129134
132915
126490
143142
131434
129956
136187
128563
146022
134640
134096
140275
133236
149339
131028
131111
136041
131444
141658
133272
143390
135278
144464
136715
141423
134629
136203
134744
145703
144149
156299
151379
161030
152698
144364
145146
153262
139701
144077
133779
135419
128741
128282
121703
118789
111452
106710
102990
99227.4
101564
92325.6
91174.1
76369.8
74443.4
65627.9
61602.4
63539.4
55548.9
55343.1
50665.5
49819.9
51834.5
42442.7
43568.5
37823.2
37710.7
36369
34500.8
37186.4
33143.2
33977.6
32823.3
31493.5
32165.1
28600.4
29524.9
33990.6
33123.2
38841.5
31469.9
31872.8
30207.9
28629.8
30839
28401
28733.6
32344.4
32186.2
33994
33163.6
32778.5
37354.2
36892.7
37640
40339.3
40308.6
41785.3
44842.3
44920.1
49846.5
49263.3
49610.5
54191.2
51125.9
51688.6
54158.8
51948.6
52850.7
53542
52349.2
54394.9
53760.8
53053.8
55999.7
54171.8
53690
56746.7
52541.6
51993.9
55089.1
51682.5
51608.9
56130.1
50876.1
50798.2
54905.8
50478
50345.6
53656.8
49436.8
49164.8
51635.5
48368.9
47909.4
49624.4
47471.2
46779
48056.2
46868.3
45493.1
46832.8
46635.4
44992.4
45829.5
47261.2
44506.1
44906.2
48657.1
43991.1
43929
45632.2
43446.1
42878.3
43670.7
43017.1
41598
42215.4
44036.1
40751.1
40807.8
42360.8
39900.3
39399
39842.5
39313.5
37924
38276
40993.3
37063.3
36848.1
37334.4
36347.7
35293.3
35721.4
37636
34561.1
34416.1
34871.9
33992.9
33094.5
33449.8
35767.3
32495.9
32285.7
32645.3
32249.1
31426.9
31607.9
32867.7
31165.8
30574.1
31110
31872.7
30421.9
30358.7
30830.9
30386.5
29775.9
29967.3
31106.1
29965.7
29667.5
30142
31843.9
29651.9
29460.4
29786.5
29777
28962.5
28937.5
29305.3
28834.6
28223.6
28325.9
28796.7
27936.9
27373.9
27581.3
28486.7
27092
26517.3
26800.5
28527
26261.6
25764.8
26121.8
27958.3
25547.2
25266
25406.3
26675
24820.7
24589.3
24827.5
25945.3
24477.6
24263.5
24565.9
25709.9
24276.2
24053.5
24362.1
25791.8
24041.4
23788.4
24079.1
25997.6
23692.2
23237.8
23575.5
25083.3
23124.3
22582.5
22828.7
23467.4
22239.6
21704.7
21859.2
22084.9
21349.5
20879.6
20949.1
21062.1
20587.4
20081.6
20058.2
20138.4
19834.6
19285
19164.2
19182.1
19289.7
18461.3
18244.3
18288.5
19315.4
17818.2
17494.3
17660.2
18070
17741.7
17589.5
29587.9
18053.1
17886.6
17663.8
17573.2
17728.5
18181.3
17187.3
16714.6
16926.6
17183.1
16236.4
15710.4
15745.8
15677.7
15241.4
14810.8
14718.9
14731.8
14949.4
14249.1
13944.6
14111.6
14348.5
13855.2
13588.3
13606.3
13656.5
13451.3
13077.8
12939.2
12962.2
13723.5
12561.5
12248.3
12324.3
12413.9
12175.6
11895.1
11822.7
11877.7
12350.4
11511.5
11208.8
11313.2
11404.4
11082.5
10832.4
10799
10902.8
11033
10772.7
18805.8
10839.4
11146.6
11083.7
11036.5
11035.8
11295.6
11476.7
11176.8
10950.7
11096.1
11212.9
10880.7
10552.9
10495.6
10504.4
10674.9
10137.3
9912.37
10024.6
10171.8
10069.3
10026.6
9998.74
10249.8
11610.3
18250.4
10292.9
10383.6
10635.3
10637.5
10509.2
10412.8
10511.8
10723
10241.2
9925.27
9912.93
9819.9
9574.87
9205
8841.32
8905
8790.16
8444.15
8119.86
8058.5
7932.47
8164.1
7501.25
7315.47
7342.9
7324.64
7159.37
6921.12
6858.29
6923.06
7174.33
7075.34
7107.81
7133.27
7362.57
7533.63
7527.27
7466.89
7539.03
7665.76
7566.12
7446.49
7285.89
7263.25
7233.05
7184.33
6980.63
6772.22
6706.35
6659.44
10612.7
6390.92
6310.28
6322.95
6325.61
6312.23
6237.7
6239.6
6333.63
6433.74
6617.34
6693.73
6909.03
7403.03
7495.47
7620.94
7921.71
8709.59
8868.41
10173.2
11259.6
11333.5
12453.7
12945.3
12876.7
13095.9
12791.1
12048.5
12091
11571.8
10932.2
10979.6
10486.1
9631.07
9647.7
8828.09
7907.9
7917.67
7243
6823.58
6903.33
7056.82
7239.48
9175.85
10561
10598.3
11312.6
11806
11934.5
12337.9
11790.3
11877.5
10892.3
10135.1
10117.9
9911.73
9194.43
9030.3
8399.4
7213.53
6317.28
6284.25
5869.46
6043.71
6163.58
7596.79
8047.71
8721.87
9021.97
9757.84
9849.4
9886.16
10052.8
9624.99
9440.76
9114.74
8770.66
8206.96
8177.56
7989.98
6900.23
6817.45
6933.8
74796.4
66426.2
65104.2
55208.3
52854.8
51264.1
50873.2
50460.9
49728.5
48733.4
48269.5
48179.4
46947.3
47247.1
46456.1
46853.8
46227
46328.1
45630.1
45930.3
45993.4
45645.7
45012.9
45222.5
45406.6
45087.1
44479.8
44604.5
44829.7
44552.5
43954.4
44004.9
44231.2
43987.3
43369.2
43356.3
43575.9
43288
42672.8
42610.5
42713
42465.1
41670.5
41566.9
41710.1
41085.2
40427.4
40252.3
39814.2
39507.5
37849.4
37662.3
37701.6
35299.7
34721
34267.9
30331.4
28494
31309.1
31705.6
36303.1
41443.6
42274.5
42362.7
43985.8
45790.3
45397.8
45695.7
46618.5
50646.5
51943
52063.1
52246.2
56549.5
56863.3
56956.9
55004.4
60390.7
59230
60516.6
63027.9
63312.1
62336.8
63387.1
66578.7
65978.8
65242.5
65746.3
69046.4
68608.3
68171
66750.8
71473
71028.6
70852.3
72625.1
73791.8
72530.5
73185
76848.1
75983.5
75177.4
73795.1
78725.2
78073.7
77657.8
80679
80692
79310.8
79147.6
83500.2
82516
81727.9
79049.4
84958.3
83257.5
83204.2
87780.9
86630.2
85600.5
82907.6
88970.8
87163.3
86379.4
91606.5
90376.5
89188
93245.2
92639.9
90855.1
87530.8
94739.4
92214.5
91531
97071
95676
94010
98724.8
97701.7
95664.9
92844.3
99311
96958
93677.9
101159
98203.9
95931.6
102652
99123
98002.4
104493
100514
99818
106208
104627
101519
108017
106454
103188
109428
107719
104040
110596
106235
104194
110754
107080
104010
111717
107760
103784
112549
109209
106394
114164
109370
115215
114408
108820
116985
112286
108662
117480
113260
119246
114218
112047
120378
115081
115157
119979
114274
122644
116797
117196
122714
116730
126480
120215
125286
117703
111281
121463
114628
124016
116322
125762
118589
127841
121520
126962
122434
103218
126004
134786
138381
143301
146657
145565
148848
142337
141975
140016
136441
135993
130566
131079
125030
125680
117062
117232
105794
105815
95322.6
97816.5
98410
91089.9
90266.2
75255.6
74112.9
61027.5
60980.6
60881.4
54655.4
54243
48763.2
49004.6
44382.3
41815.1
41217
36768.1
36745.9
33408.9
33863.9
32333.5
32166.5
32618.3
30685.8
30793.2
26201.2
27766.8
28190
31800.5
32523.8
32928.5
30677.1
30729.8
27674.2
28082.3
27478.2
27590.9
28038.5
28786.6
31786.1
32753.4
32097.9
32388.9
32752.8
36345.5
37022.4
37489.6
39963.8
40684.7
43541.7
44519.1
46748.5
48503.7
49093.4
50351.6
50563.9
50953.5
50261.1
51430.9
51621.3
50910.9
51775.2
52308.3
51843.1
52428.5
53046.8
52819
52912.7
52444.9
51115.3
51027.4
49268.6
50268.8
50503.4
49574.4
49418.6
49566
48492
48865.1
48998.9
48108.8
47776.7
47817.7
47348.2
46659.9
46610.9
46532.4
45629.8
45511.8
45766.5
44757.9
44213.9
45008.1
43857.2
43689.8
44264.2
42497
43170.5
43472.2
40396
42585.7
42639.1
42510.7
41863.5
41667.3
41911.5
40850.7
40375.1
40822.6
38691
39498
39591.5
39159.6
38518.8
38287.1
38359.9
37261.7
36817.2
37084.5
34389
35909
35807.9
35787
34888.4
34300.2
34625.4
32118.6
33538.2
33470.4
33475.9
32705.1
32195.4
32475.9
30237.8
31561.4
31440.5
31550.5
30883.3
30600.2
30765.6
30529.6
30258
29808.2
30234.8
29233.2
29629.5
29607
29798.6
29326.8
29039.7
29215.1
29174.9
29135.6
28955
29357.1
27916.4
28896.5
28763.7
28961.5
28325.9
28249.8
28247.4
28383.2
27888.5
27541.5
27642.1
27643.6
27145.8
26720.9
26908.3
26736.2
26376.8
25894.7
26143.5
25380.1
25601.7
25174.1
25486.2
23742.8
24930.6
24704.9
24799.4
23494.2
24250.1
24066
24259.4
23261
23942.8
23772.2
24033.1
23054.9
23773.6
23593.6
23861.4
22688.5
23561.7
23352.9
23609
21819.4
23229.2
22820
23131.9
22439.2
22676.7
22184.6
22415.9
22284
21802.5
21321.7
21470.6
21421.9
20913.7
20510.9
20581.9
20580.6
20128.3
19724.9
19710
19736.4
19281
18946.3
18842.8
18834.4
18077.7
18141.4
17950.7
17980.9
17613.3
17515
17225.5
17388.3
17632.3
17435.5
17336
17545.6
17752.3
17503.6
17418.9
17342.4
17476.4
16667.2
16948.4
16497.1
16702.2
16620.4
15998.5
15505.8
15544.2
15429.7
14966.6
14618.8
14536.9
14534.3
13782.6
14062.9
13773.3
13935.9
14013.2
13662
13422
13443.8
13468.7
13172.1
12917.4
12789.9
12804.6
12556.3
12405
12109.3
12185.9
12238.3
11999.1
11765.2
11699.8
11746.5
11004.6
11388.1
11098.1
11201.8
11243.1
10952.4
10729.6
10701.1
10796
10479.4
10672.8
10641.4
10746.4
10996.5
10971.3
10944.1
10947.7
11196.5
10946.6
11081.3
10863.1
11007.4
11073.6
10774.6
10469.6
10417.3
10419.3
9876.55
10057.7
9840.52
9953.29
10071.7
9977.26
9957.42
9933.53
10176.3
9724.12
10318.7
10223.5
10313.7
10546.9
10527.5
10434.1
10341.8
10436.1
10444.4
10160.8
9852.89
9842.1
9741.15
9423.69
9134.41
8775.63
8838.36
8692.92
8372.44
8059.24
8000.2
7872
7332.54
7444.99
7263.73
7291.57
7266.03
7093.25
6874.43
6814.43
6878.61
7071.58
7029.1
7066.33
7092.92
7318.66
7373.74
7485.06
7427.63
7499.28
7616.09
7494.36
7405.62
7248
7226.71
7194.9
7115.91
6936.18
6736.19
6672.42
6624.11
6561.52
6353.69
6275.99
6288.76
6286.39
6272.36
6203.38
6205.71
6295.13
6395.22
4812.97
6656.87
6853.23
7360.8
7454.22
7578.12
7868.53
8665.04
8823.82
10082.1
11208.7
11284.6
12402.7
12897.3
12831.3
13053
12746
12012.1
12053.9
11532.5
10901.2
10948.2
10450.9
9603.01
9619.45
8797.96
7883.01
7892.45
7217.34
6800.87
6878.54
7032.18
7214.72
9138.46
10519.9
10557.9
11081.2
11771.3
11898.8
12299.2
11755.2
11845.7
10862.2
10109.3
10093.3
9769.51
9173.66
9010.13
8376.18
7193.92
6300.09
6267.3
5843.67
6027.28
6146.89
7571.47
8025.83
8699.13
8998.15
9729.3
9824.15
9861.91
10014.9
9600.21
9420.25
9092.1
8750.08
8189.75
8161.15
7853.45
6884.13
6803.53
6917.32
43643.9
43379.4
43112.6
39862.8
38422.9
37349.8
37096.4
36650.8
36127.1
35360.6
35088.9
34868.1
34732.2
34092.5
33592.5
33756.4
33799.8
33282
32859.1
32984.4
33048.4
32686.1
32312.5
32399
32477.9
32207.2
31855
31903.3
31990
31771.1
31423.7
31437.2
31519.6
31330.7
30970.5
30953.4
31024.4
30824.9
30451.6
30407.1
30420.1
30227.9
29762.8
29696.6
29698
29339.1
28888.3
28790.6
28515.6
28238.1
27311.7
27197.7
27036.8
25750.1
25186.1
24946.9
22856.2
19227.7
19101.2
19268
22634.1
26131.4
27389.8
27539.7
29107.8
30885.5
30658.7
30518.2
30958.5
33373.5
34333.2
34417.6
35304.8
37843.8
38333.8
38374.6
39092.4
41100.6
40476.7
41415.2
44332.4
43634.8
43086.4
43808.9
46306.1
45808.1
45368.6
45785.7
48021.4
47815.1
47506.5
47536
49847.9
49712.8
49517.5
52257.1
51629.3
50858.3
51325
53978.6
53332.3
52797.7
52732.6
55257
54941.3
54588.9
57898.3
56741.4
55861.7
55989.2
58780.1
58165.7
57598
56461.6
59857.3
58783.3
58925.2
61977.6
61163
60441.3
59269
62770.5
61607.7
61535.1
64714
63894.3
63082.4
66954.7
65476.8
64277.1
64355.8
66984.5
65300.9
65206
68729.9
67670.7
66594.6
70785.7
69201.2
67832.2
66563.9
70385
68815.8
68861.3
71835.1
69790.2
69311.5
72819.3
70349.5
70084.8
74105.6
71220.7
71064.6
75357.1
73826.2
72078.7
76657.5
75170.1
73350.7
77857.8
76237.1
74349.8
78768.1
75530.2
74956.9
78671
75871.9
75591.2
79237.1
76330.8
74542.8
79726.8
78091.1
76437.3
81241.3
78510
83242.5
82836.8
79605.7
84284.6
81884.5
80374.5
85817.3
83031.6
88320.4
84099.9
83826
88606.6
84878.7
87459
88465.3
85274.3
90481.1
86295.7
85196
90540.8
87512.9
93806.7
89396
93475.2
87618
82547.3
88390.3
84012.8
89465.7
84383.4
90402.1
85604.6
92837.7
88669.5
95278.2
92128
94685.1
98405.8
105330
106899
112202
113089
115125
115616
113181
113517
111608
111136
111966
108523
109196
105548
105792
101150
100763
94737.2
93673
86761.7
86174.8
86468.8
83465.6
83136.1
71350.8
70034.3
59871.2
56432.1
55858.6
50020.5
49321.2
42626.9
42303.2
38610.3
35518.8
35014.1
30099.8
29667.6
26114.3
25786.6
24160.5
22840.3
22964.6
22008.5
21706.5
18999.8
18623.1
18768.6
20873.8
21011.6
21078.5
19259.2
19224
17900.9
17910.4
18516
19023.2
19365.2
21484.6
23630.7
24409.4
23756.3
23882.3
24943
27680.5
28199.9
29709.5
30499.5
31006
32209
32404.7
34420.1
35246
35607.2
35018
36388.8
36863.7
37106.8
36086.6
36546.2
35202.3
34174.3
34932.9
34266.7
34494.4
36598.9
36727
36620.6
36376.2
33918.4
33813.2
33441.9
33359.2
33476.4
34033.2
33031.9
33120.9
33543.7
32900.2
32978.7
33298.7
32331.9
32337.1
32669.4
31762.7
31712.1
32071.5
31316.7
31202.9
31564.9
30967
30572.8
31105.1
30675.5
30315.9
30680.8
30376.8
30035.8
30222.5
28707.5
29701.3
29738.9
30049.2
29305.2
29176.5
29382.7
28839.8
28398.8
28669.6
28223.9
27862.8
27924.8
28092.9
27284.9
27150.9
27216.3
26679.9
26235
26388.9
25034.5
25655.5
25606.3
25657
25075.3
24660.4
24842.3
23581.7
24152.5
24123.2
24178.8
23667.7
23314.6
23468.3
22358.8
22895.7
22840.7
22909.6
22552.4
22290.9
22384.3
22566.5
22054.2
21803
22033.9
21843.4
21646.2
21644.8
21778.7
21482.1
21276
21372.7
21600.6
21268.9
21150.3
21357.6
20480.9
21044.8
20987.8
21072.6
20817.1
20605.4
20609.5
20684.8
20356.4
20104.7
20155.9
20219.1
19793.2
19520.4
19611.3
19714.2
19205.5
18910.9
19029.3
19027.7
18609.7
18342.8
18488.6
17623.7
18052.7
17944.7
17921.6
17635.9
17519.1
17435.3
17477.2
17322.1
17204.4
17130.3
17211.6
17075.6
16975.9
16900.2
16985.9
16803.7
16750.4
16663.1
16744.7
15939.9
16481.2
16270.5
16409.7
16442.9
16111.2
15844.9
15944.4
16013.6
15542.5
15283.3
15347
15347.5
14980.4
14750.8
14779.8
14753.3
14444
14195.8
14185.1
14141.2
13833.1
13560.4
13506.4
13411.7
13108.6
12898.3
12810.8
12748.4
12791
12401.4
12244.9
12314.6
12437.4
12261.8
12203.6
12241.9
12381.2
12212.3
12121.7
12089.4
12098.3
11883.5
11722.4
11469
11546.6
11526.8
11083.9
10814.5
10823.9
10724.9
10444.9
10240.8
10203.5
10149.5
9933.01
9840.92
9671.56
9732.71
9760.52
9494
9339.55
9342.45
9295.3
9090.96
8910.66
8852.86
8798.57
8837.84
8512.27
8352.76
8379.63
8372.46
8211.55
8080.95
8053.36
8038.2
7880.23
7807.66
7654.96
7691.24
7683.9
7503.69
7392.73
7381.73
7400.73
7311.41
7312.64
7274.4
7336.38
7440.01
7382.96
7352.29
7352.97
7423.39
7327.85
7278.51
7147.76
7198.16
7191.64
7000.28
6846.45
6824.03
6797.97
6659.41
6614.94
6532.28
6579.39
6648.22
6620.19
6651.99
6653.76
6790.86
6796.38
6904.5
6884.6
6927.7
7052.56
7044.38
7001.65
6962.53
6989.94
7024.92
6815.98
6651.57
6642.17
6567.54
6395.68
6227.14
6040.16
6060.74
5972.24
5781.19
5610.07
5578.87
5486.67
5340.13
5224.62
5119.67
5126.81
5086.56
4967.1
4862.03
4838.19
4866.56
4969.27
4939.37
4971.02
4986.73
5099.6
5147.54
5192.14
5172.43
5204.48
5259.67
5194.67
5146.9
5066.65
5055.87
5029.24
4986.36
4878.15
4771.31
4741.34
4704.5
4667.24
4557.23
4529.39
4536.5
4539.12
4539.51
4519.13
4522.61
4577.05
4654.37
4784.08
4835.34
4975.27
5272.65
5359.26
5427.44
5642.52
6115.31
6209.01
6946.27
7645.1
7715.01
8452.32
8843.02
8870.28
8991.51
8778.8
8254.4
8241.2
7763.92
7282.26
7272.25
6833.49
6258.98
6235.58
5683.27
5173.39
5159.24
4798.04
4616.79
4649.26
4787.87
4895.27
5892.22
6678.89
6758.43
7606.48
8208.94
8309.37
8652.96
8312.79
8346.54
7553.29
6937.22
6884.14
6540.43
6017.2
5901.92
5362.6
4593.23
4096.59
4063.86
3845.63
4004.46
4076.86
4855.46
5374.92
5964.8
6163.43
6743.46
6887.75
6916.49
7005.67
6696.94
6580.22
6250.51
5918.65
5455.45
5410.31
5154.33
4470.27
4428.27
4472.24
26930.8
29464.6
29687.6
29537.2
29068.6
28437.9
28266.2
27964.8
27666.9
26996.3
26800.2
26584.1
27119.1
25916.1
25559.5
25625.8
26123.8
25209.7
24915.2
24969.3
25104.4
24695.1
24438
24475.3
24553.5
24289.9
24050.1
24068.5
24132.1
23937.7
23699.9
23699.8
23755.4
23600.4
23353
23335.1
23380.3
23242.1
22973.6
22939.9
22962
22827.9
22513.9
22462.2
22463.6
22273.2
21924.2
21866.9
21734.3
21538.7
20977.8
20906.4
20755.3
20083.9
19631.2
19500.4
18478.1
18933.2
13623.9
13618.7
15605.4
17793.9
18881.7
19023.4
20401.1
21938.7
21830.8
21724
21928.9
23253.9
23840.1
23892.6
25149.4
26456.7
26890.6
26924.9
28945.9
29114.5
28720.2
29476.6
32669.9
31301.9
30946.7
31543.4
33657.8
33124.3
32828.8
33320
34885.1
34708.2
34482.1
35494.7
36285.4
36219.5
36066.8
39637.7
37673
37123
37581
39630.4
39004.4
38617.3
39527.4
40491.6
40259.9
40014.4
43583.3
41604.2
40965
41440.7
43220.7
42690.2
42288.3
45666.8
44019.2
43186.5
43626.8
45689.5
44946.6
44444.8
48163.4
46225.7
45303.7
45898
47700.9
46995.3
46496.5
50286.3
48170.5
47305.5
49142.8
49358.3
48074.1
48574.3
50798
49803.3
49175.9
53028.8
50966.1
50012.2
53592.4
52024.7
50760.5
52575
53112.3
51522.1
52373.5
53898
51936.5
52469.9
54866.7
52505.3
52921.6
55848.5
54269.4
53534.2
56814
55238.1
54490.8
57763.6
56037.4
55427.9
58347.1
55575.3
56340.2
58668.1
56152.4
57392.9
58898.7
56730.6
58550.8
59316.5
57926.5
61676.3
59778.4
58478.4
62468.6
60257.6
60021.8
62324
59809.3
62748
63126.1
61403.1
66116.4
61821.8
63257.1
65193.2
62540
67146.8
64843.5
63944.6
66580.5
63477.2
67396.5
66350.1
65726.7
68929.4
65877.4
70468.6
64274.7
62998.3
63863.2
61634.7
64393.3
61360
64623.8
61674.1
66562.7
63920.1
70608.3
68564.7
76041.3
76323.1
84098.5
84125.4
90285
89220.6
93981.1
91930.3
95421.8
92610.8
95513
92226.5
94285.5
91646.1
92651.2
90783.6
90738.2
89162.2
88111.1
86407
84378.2
81863.9
78070.6
78274.7
74751.5
74368.9
68703.1
67445.3
60710
55935.5
54938.5
49877
49100.2
42945.5
42470.6
38764.8
35556.3
34872.3
30196
29507.8
24849.7
24432.7
21767.5
19843.5
19732.6
18520.9
18177.2
17057.7
15221.8
15213.9
15968
15802.6
16896.9
14127.3
14111.5
13643.5
13530.3
14519.8
15283.8
15584.5
18186.1
19710.6
20371.4
20076.6
20173.2
21582.3
23093.8
23438.1
24667.6
23754.9
24241.6
23963.2
23692.8
25155.6
24890
24987
26584.3
25254
25656.2
26738.6
25024.5
25628.2
24830.2
23575.7
24321
23986.2
23959.2
26239.3
26473.4
26259.9
26762.1
24506.2
24387
24935.8
24289
24323
25463.9
24188.5
24223.5
25299.7
24206.9
24220.9
25045.4
23859.8
23824.8
24493.6
23551.7
23469.9
24010.6
23359.5
23210.5
23624.3
23245.2
22878.8
23301.4
23223.3
22744.6
23018
23355.1
22585.2
22728.6
23392.6
22389.5
22405.4
22915.4
22174
22046.6
22261.9
21995
21543.1
21741.7
22085.6
21197.6
21238.9
21684.8
20843.1
20729.2
20822.3
20584
20115
20230
20674.8
19729.3
19690.8
19806.1
19402.5
19047.8
19180
19470
18699.7
18678.5
18788.9
18424.7
18123.9
18233.6
18616
17840.7
17802.9
17882.4
17698.2
17419.4
17483.5
17872.9
17262.3
17084.8
17244.3
17440.2
16961.7
16962.7
17093.8
16892.9
16695.1
16759.9
17126.7
16666.5
16561.3
16697
17042.7
16454.9
16419.9
16474.1