/*--------------------------------*- C++ -*----------------------------------*\
| =========                 |                                                 |
| \\      /  F ield         | OpenFOAM: The Open Source CFD Toolbox           |
|  \\    /   O peration     | Version:  v2012                                 |
|   \\  /    A nd           | Website:  www.openfoam.com                      |
|    \\/     M anipulation  |                                                 |
\*---------------------------------------------------------------------------*/
FoamFile
{
    version     2.0;
    format      ascii;
    class       volScalarField;
    location    "1e-06";
    object      p;
}
// * * * * * * * * * * * * * * * * * * * * * * * * * * * * * * * * * * * * * //

dimensions      [1 -1 -2 0 0 0 0];


internalField   nonuniform List<scalar> 
102000
(
141235
95719
107111
108411
108543
105157
104221
108890
108568
104819
104937
108666
107258
107666
105134
106043
108292
107619
105549
105987
108297
107908
105595
106180
108392
108129
105795
106255
108644
108513
105843
106517
108981
109009
106145
106471
109691
109877
105749
107319
110172
110681
106980
105949
112091
112708
103513
109350
110842
111966
107282
96989
88957.5
144925
124367
142797
159707
88365
91494
123953
100331
88971.5
130249
112677
114382
117403
109707
109603
100430
102930
105236
106282
101489
100922
103319
103280
99646.6
102233
101040
100501
99038.1
98977.3
99216.7
98203.7
97127.5
96762.1
96751.9
95611.8
94413.9
94361.8
94365.3
93250
92578.1
91875.2
92975.2
90804.8
90595.9
90358.2
90171.5
89304.9
88288
88127.5
87697.5
87115.3
85595
86891.6
85255.9
84304.1
84164.8
83927.7
83375.2
81709.3
82595
81331
80680.2
80046.9
79878.6
79348.5
77433.8
78529.4
77191.9
76102
75753.3
75628.5
74944.7
73282.1
74013.3
72695.3
71303.1
71861.6
71259.2
70448.1
68640.9
68864.5
68196.4
66326.4
66429.7
65774.5
63599.4
64170.1
63406.3
61941.2
61237.2
61068.2
60118.7
58491.7
58244
57347.6
55547.8
55468.6
54592.8
52479.4
52460
51393.9
49131.9
49171.4
48234.3
45821.5
45796.4
44766.1
42075.8
41025.9
39789.3
35333.2
40190.1
40296.1
19989.2
23377.7
20185.6
13490.1
20796.9
1164.55
1801.93
19166.1
15890.7
19477.4
19415.7
18911.8
19084.2
15502.7
2180.36
-11832.2
-18579.3
-20892.1
-20757.5
-22496.4
-23897.4
-24289.1
-24870.1
-24813.3
-26108.1
-26480.6
-26356.6
-26609.1
-25845.4
-27313.9
-27903.2
-27498.4
-28189.6
-30521
-32838.6
-37206.1
-35145.7
-34347.4
-32356.6
-32663.8
-31347.7
-31596
-30449.6
-30806
-28732
-28283.4
-20207.9
-17478.5
-8784.22
-7479.21
-5276.41
-5312.26
-4337.11
-4305.21
-3025.12
-3405.53
-3311.24
-3061.31
-2733.25
-2646.19
-2472.44
-2376.65
-2328.08
-2225.74
-2186.52
-2034.76
-1903.17
-1299.17
-2237.13
-2460.38
-1072.77
-1029.03
-2166.12
-1834.17
-1736.97
-1994.5
-2147.44
-1020.03
-723.939
-1824.84
-1584.53
-1651.47
-2021.82
-2120.73
-2159.13
-2087.34
-1904.91
-1721.66
-1350.18
-1350.48
-1182.87
-728.302
-96.784
2004.77
2003.98
2003.49
1932.65
2000.86
1948.03
2031.97
1944.27
2391.88
1999.81
2063.49
2024.06
2022.49
1954.65
2000.02
1954.12
2000.9
2000.54
2001.53
2001.04
2001.47
2001.22
2001.88
2001.36
2001.12
2002.3
2001.46
2001.16
2001.14
3320.19
2001.43
2000.74
2000.59
2000.89
2000.35
2000.48
2001.53
2000.57
2001.04
2001.17
1989.06
1899.88
1970.89
1994.04
1996.66
1952.77
2006.41
2000.4
2000.62
1998.09
1961.49
1987.94
2595.26
79988.4
126764
169209
205949
237454
261413
275188
283083
286420
286690
285133
282766
279591
276660
273035
268942
266051
262748
258955
256784
254100
250832
249302
247241
244408
243448
241890
239646
238145
237812
236594
234368
234633
233764
231687
232211
231684
230048
229474
230328
229993
228077
229426
229357
227858
227726
229161
229153
227360
229270
229508
228143
228333
230043
230293
228642
230734
231164
230046
230412
232044
232501
231453
232062
233473
233823
232926
234459
235047
234511
235052
236122
236673
236393
236978
237887
238396
238331
239073
239883
239994
240455
241278
241859
242072
242514
243594
244159
244192
244669
246238
246831
246553
247141
249300
249929
249264
250052
252616
253355
251587
254861
255923
254839
255343
258409
259479
258240
258957
261926
263145
262105
263172
265442
266904
265955
267040
269018
269892
270041
270947
271829
273066
273553
274407
276283
275821
276816
278027
278979
277738
278836
281466
281933
280460
281473
284479
284712
283905
284123
287538
288241
288016
288303
291307
291028
292570
293638
294444
295001
294956
300019
300459
298482
299973
305652
306894
304299
306844
310379
312749
310848
313413
315729
315547
318150
320278
322131
319754
321633
326698
327845
323435
324901
331735
331305
333212
328884
330412
337261
337002
335743
336084
341966
341520
343117
344412
346707
347779
348433
354744
356339
353964
356628
363687
366207
363092
366725
369943
371591
376014
376372
380069
378725
380845
387850
388980
392278
386084
388550
399072
399420
394409
395740
406736
406550
408467
408816
409848
416246
417425
421610
423785
426504
429881
433646
437610
441085
442625
447221
447198
453424
463780
464251
468574
473843
476020
485430
490010
492951
499433
514590
520577
530372
545900
557012
570511
586922
606912
642146
665584
681771
715660
770100
810114
839844
896922
950097
1.03753e+06
1.10794e+06
1.16491e+06
1.25687e+06
1.37845e+06
1.48172e+06
1.56551e+06
1.6888e+06
1.80682e+06
1.95934e+06
2.08301e+06
2.1809e+06
2.31237e+06
2.44107e+06
2.57792e+06
2.70229e+06
2.80811e+06
2.94783e+06
3.05389e+06
3.15842e+06
3.2598e+06
3.35672e+06
3.44474e+06
3.52534e+06
3.60307e+06
3.65701e+06
3.71584e+06
3.7446e+06
3.74618e+06
3.73618e+06
3.71427e+06
3.64914e+06
3.56314e+06
3.47391e+06
3.3165e+06
3.1618e+06
2.98122e+06
2.83969e+06
2.64575e+06
2.42628e+06
2.2523e+06
2.19108e+06
2.03008e+06
1.8121e+06
1.8641e+06
1.76311e+06
1.54004e+06
1.63613e+06
1.57782e+06
1.42308e+06
1.43097e+06
1.4053e+06
1.41904e+06
1.39491e+06
1.30412e+06
1.32472e+06
1.39376e+06
1.25958e+06
1.25095e+06
1.35638e+06
1.22141e+06
1.21089e+06
1.29472e+06
1.18822e+06
1.17174e+06
1.2143e+06
1.16562e+06
1.11757e+06
1.16124e+06
1.10164e+06
972961
1.11688e+06
1.05183e+06
815641
999705
989829
847494
870903
909352
943403
800791
768372
903391
713433
679158
781704
723395
625277
606344
611277
588584
541697
458164
381577
514909
449383
285330
387507
374043
295566
265761
282468
301344
300746
165359
133925
223973
127751
60532.9
99584.6
141289
95730.4
107121
108418
108547
105159
104223
108893
108570
104820
104938
108667
107259
107666
105135
106043
108293
107619
105549
105988
108297
107908
105595
106181
108392
108128
105796
106256
108644
108513
105843
106517
108981
109009
106145
106472
109692
109877
105749
107320
110173
110681
106981
105951
112094
112709
103514
109353
110846
111969
107286
96995.6
88972.4
144250
123530
142090
159427
88284.1
91488.7
123944
100332
88979
129874
112333
113897
116955
109496
109494
100432
102924
105252
106297
101498
100938
103331
103288
99651.1
102232
101040
100481
99024.3
98966.9
99205.2
98180.7
97104.4
96753.1
96744
95613.1
94418.1
94367.7
94370.6
93251.8
92579.1
91879.4
92981.3
90806
90592.7
90355.5
90172.1
89291.6
88281.6
88123.6
87693.1
87099
85594.9
86891.5
85238.3
84298.7
84160.6
83927.8
83356.4
81709.6
82569.3
81331.1
80686.3
80039.4
79878.8
79328.6
77434.5
78516.7
77192.1
76108.4
75755.4
75632.5
74948.8
73285.8
74019.9
72695.5
71296.6
71818.6
71222.1
70407.6
68615.4
68836.2
68143.3
66291.4
66422
65735
63592.5
64115.8
63367.5
61942
61204
61044.6
60083.8
58471.8
58252.5
57361.8
55558.9
55482.9
54606.4
52489.9
52474.3
51403.3
49141.9
49183.6
48181.2
45802.1
45766.3
44684.8
41996.5
40976.7
39696.5
35338.2
39501.7
39341.7
20419.9
23425
20339.1
14230.7
22023.1
5946.13
5845.48
22316.1
21959.6
25539.2
29704
27529.5
27302.2
28037.5
15681.5
850.811
-2196.79
-4429.2
-5346.03
-7433.54
-8623.89
-9401.32
-10060.6
-10400.6
-11448.5
-11487.3
-11623.8
-11922.6
-12155.8
-12702.3
-12667.8
-12636.1
-13021.1
-13938.9
-15377.2
-17482.6
-16023.3
-15084.1
-14280.8
-14498.9
-14012.2
-14221.2
-14487.3
-15021.9
-15745.9
-16156.8
-14470.5
-12841.3
-7960.68
-6843.94
-5098.58
-5172.8
-4279.18
-4270.2
-3039.52
-3401.82
-3323.39
-3066.96
-2742.54
-2661.42
-2487.03
-2391.46
-2342.86
-2239.37
-2204.68
-2051.04
-1921.72
-1307.74
-2072.72
-2296.26
-1560
-1514.42
-2045.46
-2048.75
-1748.07
-2037.81
-2035.75
-1468.95
-1279.12
-1763.15
-1812.65
-1650.5
-2021.82
-2119.93
-2158.9
-2087.15
-1904.85
-1721.5
-1349.32
-1353.43
-1187.79
-745.998
-114.498
1934.64
2000.31
1974.42
1917.83
1974.71
1955.43
2031.19
1948.68
2389.54
2001.56
2059.59
2018.43
2011.43
1944.34
1858.25
1812.82
1768.4
1659.52
1744.81
1737.63
1773.76
1764.27
1562.15
1639.75
1549.23
1457.31
1653.45
1592.16
1553.68
1790.91
1595.09
1605.8
1686.88
1582.34
1672.14
1736.59
1614.11
1711.75
1745.92
1621.06
1737.59
1731.14
1791.5
1897.98
1880.32
1833.39
1916.74
1916.58
1915.04
1956.6
1933.15
1954.13
2477.06
80023.2
126786
169216
205954
237469
261428
275208
283088
286422
286696
285145
282763
279604
276657
273034
268941
266051
262747
258952
256782
254115
250827
249296
247239
244405
243447
241887
239641
238141
237808
236589
234359
234627
233761
231678
232206
231680
230044
229466
230321
229991
228068
229419
229353
227851
227721
229156
229151
227354
229262
229504
228136
228327
230037
230291
228637
230723
231159
230039
230403
232035
232495
231446
232054
233466
233817
232920
234452
235042
234506
235045
236116
236669
236389
236973
237882
238395
238329
239067
239873
239986
240445
241267
241850
242062
242503
243583
244152
244184
244658
246226
246823
246545
247128
249288
249921
249257
250038
252604
253349
251580
254847
255913
254830
255333
258397
259476
258240
258959
261926
263150
262111
263172
265443
266912
265963
267045
269022
269901
270049
270952
271840
273073
273562
274414
276284
275820
276816
278040
278991
277747
278842
281473
281940
280467
281474
284482
284716
283909
284125
287540
288242
288017
288304
291307
291028
292567
293635
294441
295001
294954
300015
300458
298483
299975
305654
306896
304299
306833
310368
312749
310848
313405
315728
315546
318151
320278
322130
319753
321623
326698
327845
323435
324901
331737
331306
333213
328885
330412
337262
337004
335743
336083
341967
341520
343117
344408
346705
347778
348433
354744
356339
353964
356618
363678
366207
363091
366718
369938
371585
376014
376371
380069
378725
380839
387851
388980
392279
386085
388540
399073
399420
394410
395737
406736
406551
408467
408816
409845
416245
417426
421610
423782
426499
429876
433646
437607
441081
442623
447220
447198
453425
463752
464413
468676
473833
476008
485430
490010
492943
499434
514588
520577
530372
545900
557007
570502
586922
606912
642142
665574
681760
715643
770094
810101
839830
896879
950072
1.0375e+06
1.10791e+06
1.16488e+06
1.25682e+06
1.37839e+06
1.48172e+06
1.56546e+06
1.68875e+06
1.80675e+06
1.9593e+06
2.08298e+06
2.18086e+06
2.31232e+06
2.44102e+06
2.57788e+06
2.70228e+06
2.80802e+06
2.94769e+06
3.05376e+06
3.15829e+06
3.25967e+06
3.35659e+06
3.44461e+06
3.52522e+06
3.60293e+06
3.65687e+06
3.71571e+06
3.74448e+06
3.74614e+06
3.73615e+06
3.71425e+06
3.64913e+06
3.56312e+06
3.47389e+06
3.31648e+06
3.16178e+06
2.9812e+06
2.83969e+06
2.64575e+06
2.42628e+06
2.2523e+06
2.19108e+06
2.03008e+06
1.8121e+06
1.8641e+06
1.76311e+06
1.54004e+06
1.63613e+06
1.57782e+06
1.42308e+06
1.43096e+06
1.4053e+06
1.41904e+06
1.39492e+06
1.30412e+06
1.32472e+06
1.39376e+06
1.25958e+06
1.25095e+06
1.35638e+06
1.22141e+06
1.21089e+06
1.29472e+06
1.18822e+06
1.17174e+06
1.2143e+06
1.16563e+06
1.11757e+06
1.16124e+06
1.10165e+06
972960
1.11688e+06
1.05183e+06
815639
999704
989836
847494
870903
909352
943404
800791
768373
903392
713433
679158
781705
723394
625276
606344
611277
588583
541731
458163
381574
514908
449382
285329
387506
374059
295597
265761
282468
301345
300746
165388
133926
223974
127750
60533.5
99586.2
141273
95732.7
107124
108419
108549
105161
104225
108893
108570
104821
104939
108667
107259
107666
105136
106043
108293
107619
105550
105987
108297
107908
105595
106180
108392
108129
105796
106255
108644
108514
105844
106516
108981
109010
106146
106472
109692
109877
105750
107320
110173
110682
106983
105952
112094
112710
103517
109353
110846
111972
107290
97000.4
88991.7
145176
124513
143153
159773
88400.2
91482.1
123926
100241
88993.4
130305
112805
114583
117452
109784
109601
100418
102920
105250
106284
101470
100920
103316
103279
99643.4
102226
101041
100470
99035
98984.3
99212.8
98182.4
97112.3
96763.6
96744.4
95599.4
94413.5
94363.9
94367.5
93234.6
92565.7
91874.6
92974.5
90796.3
90592.6
90352.7
90165.1
89278.9
88283.8
88124.4
87685.7
87080.5
85598.3
86889.1
85221.1
84299.7
84157.2
83920.6
83337.1
81719.1
82594.3
81332.5
80650.5
80032.9
79871.6
79307.4
77451.2
78516
77193.6
76084.5
75747.5
75617.1
74921.6
73281
74004.2
72669
71305.7
71828.7
71231.1
70411.3
68635.4
68845.4
68160.9
66308
66434
65739.1
63616.2
64190.6
63369.9
61897.7
61206.7
61044.7
60049.6
58472.5
58222.7
57301.3
55544.2
55454.9
54544.9
52480.7
52453.2
51341.1
49135.2
49168.8
48127.5
45798.4
45756.3
44623.8
42001.7
40978.3
39697.1
35271.4
39490.7
39554.8
20978.2
23562.7
20431.8
14628.4
22081.3
2401.44
2468.98
18686.3
16117.8
18379.2
17967.8
17338
17566.4
16744.1
5060.95
2534.25
1494.37
705.934
283.428
-227.196
92.2471
-528.01
-1259.93
-2448.38
-3269.87
-3598.06
-4045.36
-4394.58
-5096.83
-5529.96
-5475.68
-5759.55
-5913.9
-6639.42
-7417.06
-7886.24
-6827.96
-5815.34
-5555.42
-5743.19
-5781.03
-5937.97
-6715.63
-7263.33
-9099.16
-9708.94
-11346.8
-9826.49
-7309.83
-6316.77
-4936.29
-4966.34
-4202.12
-4167.19
-2972.78
-3354.55
-3293.58
-3049.71
-2734.42
-2651.12
-2481
-2385.54
-2335.25
-2235.35
-2197.92
-2049.31
-1916.37
-1299.04
-2091.36
-2302.65
-1610.34
-1579.38
-2058.17
-2062.73
-1743.08
-2056.74
-2045.29
-1507.82
-1326.99
-1766.36
-1818.02
-1650.21
-2019.5
-2118.27
-2159.14
-2086.85
-1904.6
-1721.22
-1347.41
-1354.43
-1187.83
-745.352
-129.941
1794.7
2000.94
2000.84
1943.08
2000
1976.16
2034.8
1957.09
2379.23
1998.25
2052.12
2011.12
2003.13
1961.99
1899.07
1849.26
1809.78
1684.19
1775.99
1764.05
1804.15
1800.12
1599.59
1655.2
1756.07
1489.76
1667.08
1606.07
1562.37
1788.52
1598.14
1613.37
1704.39
1623.23
1689.27
1765.47
1630.05
1718.85
1752.51
1641.64
1731.9
1760.4
1820.76
1914.1
1893.81
1838.06
1894.84
1891.04
1892.82
1948.05
1935.97
1961.44
2165.15
80032.1
126723
169217
205972
237499
261447
275228
283095
286432
286705
285163
282780
279603
276657
273049
268940
266051
262747
258952
256782
254112
250827
249316
247252
244403
243445
241887
239640
238139
237807
236596
234356
234625
233769
231674
232204
231685
230044
229462
230319
229989
228064
229425
229354
227849
227716
229154
229147
227350
229263
229504
228133
228322
230032
230287
228633
230724
231159
230036
230398
232031
232495
231445
232047
233463
233818
232918
234447
235042
234505
235041
236112
236669
236388
236969
237879
238393
238327
239070
239877
239995
240449
241270
241856
242070
242505
243586
244159
244190
244659
246228
246828
246549
247129
249288
249924
249258
250031
252604
253349
251576
254848
255915
254831
255329
258388
259474
258237
258950
261912
263146
262104
263158
265429
266904
265954
267028
269005
269889
270037
270938
271817
273056
273545
274393
276283
275820
276811
278017
278978
277737
278822
281458
281934
280463
281462
284477
284715
283908
284125
287538
288242
288018
288303
291308
291028
292563
293632
294438
295000
294953
300012
300457
298481
299961
305652
306896
304294
306822
310358
312748
310846
313398
315729
315546
318145
320278
322132
319754
321623
326700
327848
323436
324901
331739
331307
333215
328886
330412
337264
337006
335745
336083
341968
341520
343115
344405
346705
347775
348429
354737
356338
353962
356607
363667
366206
363090
366711
369933
371579
376014
376371
380070
378725
380840
387851
388981
392280
386085
388541
399073
399421
394411
395737
406738
406551
408467
408816
409845
416245
417422
421604
423779
426498
429870
433640
437602
441081
442623
447220
447198
453428
463741
464188
468571
473808
476005
485430
490010
492942
499434
514588
520577
530360
545888
557000
570490
586908
606887
642119
665563
681746
715607
770058
810077
839814
896880
950024
1.03745e+06
1.10787e+06
1.16484e+06
1.25675e+06
1.37832e+06
1.48167e+06
1.5654e+06
1.68868e+06
1.80668e+06
1.95922e+06
2.08293e+06
2.18081e+06
2.31227e+06
2.44097e+06
2.57783e+06
2.70226e+06
2.80805e+06
2.94775e+06
3.05383e+06
3.15836e+06
3.25974e+06
3.35667e+06
3.4447e+06
3.5253e+06
3.60307e+06
3.65702e+06
3.71586e+06
3.74464e+06
3.7462e+06
3.73621e+06
3.71432e+06
3.64921e+06
3.56321e+06
3.47399e+06
3.31658e+06
3.16189e+06
2.9813e+06
2.83975e+06
2.64575e+06
2.42628e+06
2.2523e+06
2.19108e+06
2.03008e+06
1.81209e+06
1.8641e+06
1.76311e+06
1.54004e+06
1.63613e+06
1.57782e+06
1.42308e+06
1.43096e+06
1.4053e+06
1.41904e+06
1.39493e+06
1.30412e+06
1.32472e+06
1.39376e+06
1.25958e+06
1.25095e+06
1.35638e+06
1.22141e+06
1.21089e+06
1.29472e+06
1.18823e+06
1.17174e+06
1.2143e+06
1.16566e+06
1.11757e+06
1.16124e+06
1.10165e+06
972958
1.11688e+06
1.05183e+06
815637
999705
989836
847493
870903
909352
943405
800823
768374
903392
713471
679158
781707
723440
625298
606345
611279
588583
541730
458163
381572
514906
449380
285328
387507
374065
295596
265763
282468
301343
300749
165428
133925
223977
127751
60534.4
99587.9
141270
95738
107127
108419
108548
105161
104226
108893
108569
104821
104940
108665
107259
107667
105136
106043
108292
107620
105550
105987
108297
107908
105596
106181
108392
108129
105796
106256
108644
108514
105844
106516
108981
109010
106147
106472
109692
109877
105750
107320
110173
110683
106983
105953
112094
112710
103519
109352
110847
111973
107289
97000.2
89017.2
144355
123714
142401
159474
88438.6
91527.9
123908
100193
89020.3
129949
112462
114106
117027
109530
109574
100453
102920
105265
106286
101473
100927
103319
103279
99644.7
102229
101041
100450
99027.7
98985.6
99210.1
98169.9
97095.2
96761.7
96741.6
95599.4
94413.7
94364.9
94365.5
93235.5
92566.1
91876.3
92971.9
90796.8
90594.2
90349.9
90162.2
89263.7
88283.9
88119
87686.5
87060.3
85601.7
86883.9
85216.7
84300.7
84152.2
83920.6
83314.6
81727
82556.6
81333.6
80657.8
80025.8
79872.3
79282.3
77462.9
78490.5
77195.2
76088.5
75742.4
75617.2
74922.5
73281.2
73999.7
72671.1
71311.9
71800.6
71214.2
70382.5
68630.2
68844.5
68131.3
66292.8
66436.7
65702.4
63630.4
64101.9
63369.9
61906.5
61189.1
61044.6
60050.9
58455.1
58222.7
57304.6
55537.8
55454.7
54546.2
52475.9
52449.3
51343
49131.1
49164.9
48129.2
45787.6
45742.7
44554.8
41935.3
40985.6
39691.7
35299.7
39281.8
39183.6
21512
23685.5
20584.6
15232.3
22543.6
5208.2
4370.12
20312.7
20537.6
22270.4
23911
23048.5
22755.1
18406.5
7551.55
4094.98
2523.21
2022.05
1950.29
1865.19
1962.2
1844.31
1753.88
1560.11
1402.4
1317.24
1232.85
1165.14
1032.97
486.31
490.19
-75.4861
-220.344
-630.099
-1328.1
-752.724
-280.497
-200.332
-230.301
-293.942
-394.213
-386.579
-755.847
-1257.48
-3840.91
-4772.76
-7332.31
-6862.31
-6510.84
-5714.85
-4714.41
-4726.22
-4096.04
-4046.32
-2925.67
-3326.86
-3267.13
-3032.86
-2731.53
-2649.72
-2483.74
-2387.73
-2336.46
-2237.26
-2200.08
-2052.32
-1915.96
-1293.1
-2083.4
-2294.7
-1629.53
-1590.95
-2060.28
-2065.14
-1737.53
-2056.48
-2043.06
-1510.51
-1329.99
-1764.06
-1818.58
-1647.19
-2017.07
-2116.56
-2158.71
-2086.1
-1904.09
-1720.68
-1344.02
-1356.3
-1187.61
-757.29
-153.496
1723.44
2000.7
2000.59
1939.93
1994.96
1978.81
2031.86
1965.16
2368.69
1999.53
2046.74
2005.53
2002.67
1962.69
1906.02
1860.88
1822.45
1700.58
1802.43
1783.05
1835.64
1848.17
1639.31
1676.41
1758.9
1534.9
1686.7
1631.55
1615.44
1781.94
1632.06
1641.2
1726.4
1660.79
1709.62
1786.24
1683.99
1728.08
1748.13
1661.64
1726.68
1774.7
1837.12
1918.71
1884.42
1831.33
1855.7
1844.51
1858.2
1926.1
1914.44
1953.49
2010.89
80050.8
126748
169221
205998
237548
261503
275257
283108
286453
286721
285186
282797
279617
276655
273049
268939
266050
262746
258951
256780
254128
250826
249310
247260
244400
243443
241885
239639
238136
237806
236604
234351
234621
233776
231668
232202
231684
230042
229459
230318
229995
228058
229419
229355
227846
227713
229153
229149
227345
229257
229504
228129
228317
230030
230289
228630
230716
231161
230033
230392
232028
232494
231442
232040
233463
233817
232914
234443
235042
234503
235037
236109
236669
236386
236965
237876
238393
238325
239069
239872
239992
240444
241266
241853
242065
242499
243581
244157
244187
244653
246223
246827
246547
247121
249288
249923
249256
250022
252604
253349
251571
254849
255913
254829
255323
258388
259473
258235
258945
261913
263147
262101
263150
265429
266905
265954
267029
269007
269891
270037
270939
271821
273059
273548
274397
276284
275821
276809
278027
278986
277740
278824
281460
281936
280464
281463
284477
284716
283909
284126
287539
288242
288018
288302
291309
291028
292562
293629
294436
295000
294952
300012
300457
298480
299952
305640
306898
304296
306811
310358
312749
310845
313390
315729
315546
318143
320274
322134
319753
321614
326700
327849
323436
324894
331740
331307
333216
328886
330412
337265
337006
335745
336081
341969
341520
343116
344401
346705
347774
348425
354738
356338
353961
356596
363657
366206
363089
366704
369930
371574
376014
376370
380070
378725
380835
387852
388977
392281
386083
388530
399074
399422
394411
395734
406738
406551
408467
408816
409845
416245
417422
421602
423775
426495
429864
433633
437597
441080
442619
447220
447198
453431
463782
464359
468614
473799
476006
485422
490010
492941
499428
514588
520577
530353
545888
556992
570476
586905
606865
642113
665553
681734
715576
770045
810056
839806
896892
949987
1.0374e+06
1.10783e+06
1.16481e+06
1.25671e+06
1.37825e+06
1.48164e+06
1.56534e+06
1.68863e+06
1.80661e+06
1.95916e+06
2.08288e+06
2.18077e+06
2.31222e+06
2.44092e+06
2.5778e+06
2.70225e+06
2.80794e+06
2.94759e+06
3.05368e+06
3.15821e+06
3.2596e+06
3.35653e+06
3.44456e+06
3.52518e+06
3.60291e+06
3.65686e+06
3.71572e+06
3.74453e+06
3.74617e+06
3.73618e+06
3.7143e+06
3.64919e+06
3.56319e+06
3.47397e+06
3.31657e+06
3.16187e+06
2.98129e+06
2.83975e+06
2.64575e+06
2.42628e+06
2.2523e+06
2.19108e+06
2.03008e+06
1.81209e+06
1.8641e+06
1.7631e+06
1.54004e+06
1.63613e+06
1.57782e+06
1.42307e+06
1.43096e+06
1.4053e+06
1.41904e+06
1.39493e+06
1.30412e+06
1.32472e+06
1.39376e+06
1.25958e+06
1.25095e+06
1.35639e+06
1.22141e+06
1.21089e+06
1.29472e+06
1.18823e+06
1.17174e+06
1.2143e+06
1.16567e+06
1.11757e+06
1.16124e+06
1.10166e+06
972958
1.11687e+06
1.05184e+06
815636
999707
989836
847491
870904
909353
943404
800823
768376
903393
713485
679157
781709
723470
625297
606344
611280
588582
541768
458212
381572
514907
449380
285326
387508
374082
295595
265763
282468
301346
300750
165464
133922
223981
127748
60535.4
99590.8
141241
95726.4
107116
108410
108542
105158
104223
108889
108566
104819
104938
108663
107258
107664
105135
106042
108291
107618
105549
105986
108296
107907
105595
106180
108391
108128
105796
106255
108642
108512
105843
106515
108979
109008
106146
106471
109690
109876
105749
107318
110171
110680
106981
105951
112090
112705
103517
109346
110842
111967
107282
96995.2
89046.5
144864
124104
142939
159612
88427.6
91604.1
123919
100204
89068.4
130018
112609
114340
117171
109712
109552
100472
102920
105288
106296
101475
100926
103323
103289
99644.9
102224
101048
100439
99027.8
98992.4
99214
98172.1
97086.9
96768.9
96743.8
95601.1
94414
94369.4
94370.9
93236.9
92555
91882.1
92975
90796.9
90590
90351.6
90163.4
89264.5
88286.2
88122.4
87687.1
87039.9
85611
86888.7
85217.8
84301.7
84153.4
83923.2
83293.2
81740.6
82557.8
81335.6
80646
80026.9
79875.1
79257
77481.9
78471.7
77197.3
76088.4
75743
75617.4
74899.9
73284.4
73995.5
72673.1
71325.4
71795.7
71215.6
70348.3
68637.7
68848
68132
66287.8
66451.9
65668.4
63649.9
64112.4
63371.2
61909.1
61191.7
61044.5
60007.7
58457.2
58222.7
57263.1
55541.8
55445.7
54501.3
52477.9
52442.7
51303.1
49136.2
49160.2
48070.7
45781.6
45727.4
44478.7
41880.8
40991.1
39590.3
35349.1
39163.3
38772.3
22183.5
23815.9
20748
15880.7
22919.3
5077.68
4409.73
19894
19890.2
21029.7
23399.7
22310.9
20952.3
17633.9
7689.58
5076.47
3426.57
2777.36
2713.08
2441.41
2785.69
2539.53
2586.81
2547.52
2248.64
2202.66
2074.03
2027.52
2009.35
1908.03
1906.77
1762.6
1692.49
1636.6
1347.12
1587.76
1653.66
1663.8
1588.65
1587.76
1533.53
1552.32
1563.28
1440.68
-300.776
-1692.81
-4397.9
-5172.24
-5983.01
-5370.93
-4598.27
-4607.64
-4038.52
-4018.69
-2947.01
-3344.38
-3255.64
-3054.83
-2756.38
-2682.51
-2514.44
-2415.05
-2360.63
-2255.66
-2220.93
-2065.49
-1935.09
-1291.12
-2085.94
-2294.6
-1729.39
-1674.99
-2065.53
-2070.11
-1730.22
-2058.87
-2042.55
-1571.16
-1387.59
-1762.11
-1819.78
-1645.2
-2015.5
-2114.29
-2159.03
-2085.54
-1903.77
-1720.28
-1339.22
-1358.32
-1187.47
-762.524
-191.651
1428.08
2000.13
2000.9
1922.34
1973.51
1968.07
2017.01
1963.91
2361.41
2010.78
2050.18
2007.32
2003.84
1951.16
1880
1841.09
1818.88
1695.79
1820.77
1775.35
1824.07
1870.81
1661.77
1683.94
1746.2
1554.76
1691.8
1643.04
1634.51
1757.19
1640.6
1648.32
1731.72
1674.04
1710.22
1785.12
1690.45
1708.89
1704.99
1644.18
1719.53
1758.9
1815.3
1890.82
1848.56
1798.57
1813.34
1794.73
1806.22
1896.74
1883.11
1931.67
2006.19
80015.5
126749
169222
206052
237615
261562
275278
283136
286481
286744
285213
282815
279631
276655
273048
268936
266049
262744
258948
256779
254126
250823
249308
247274
244396
243442
241885
239637
238133
237806
236603
234345
234621
233785
231661
232203
231690
230040
229455
230319
229999
228051
229419
229359
227843
227710
229154
229150
227338
229258
229507
228126
228314
230031
230290
228625
230713
231164
230030
230387
232030
232495
231439
232035
233464
233818
232910
234444
235043
234501
235033
236109
236669
236385
236962
237877
238393
238323
239071
239868
239992
240440
241263
241853
242063
242494
243581
244157
244186
244647
246223
246828
246545
247114
249289
249924
249253
250013
252606
253351
251565
254850
255912
254828
255317
258389
259471
258234
258939
261910
263149
262098
263141
265424
266905
265953
267022
268999
269890
270035
270935
271815
273054
273544
274390
276282
275818
276801
278019
278983
277736
278813
281454
281934
280461
281452
284474
284714
283907
284123
287531
288240
288017
288299
291308
291026
292558
293625
294436
295000
294951
300013
300457
298480
299952
305640
306898
304295
306811
310358
312750
310845
313390
315730
315544
318134
320266
322134
319751
321601
326692
327848
323433
324882
331739
331305
333215
328883
330402
337264
337006
335744
336077
341969
341518
343116
344396
346705
347774
348426
354738
356340
353961
356597
363659
366208
363090
366704
369931
371573
376014
376368
380070
378723
380825
387847
388971
392280
386083
388517
399071
399420
394408
395726
406738
406549
408465
408813
409841
416243
417419
421602
423775
426496
429860
433634
437597
441081
442619
447219
447198
453431
463703
464269
468604
473777
476006
485412
490005
492936
499416
514579
520570
530341
545888
556992
570475
586905
606865
642114
665553
681734
715576
770045
810056
839807
896802
949987
1.0374e+06
1.10783e+06
1.16481e+06
1.25671e+06
1.37825e+06
1.48164e+06
1.56533e+06
1.68863e+06
1.80661e+06
1.95916e+06
2.08289e+06
2.18077e+06
2.31222e+06
2.44092e+06
2.5778e+06
2.70225e+06
2.80794e+06
2.94762e+06
3.05371e+06
3.15825e+06
3.25963e+06
3.35656e+06
3.44459e+06
3.5252e+06
3.60297e+06
3.65692e+06
3.71578e+06
3.74457e+06
3.74619e+06
3.73621e+06
3.71433e+06
3.64924e+06
3.56325e+06
3.47404e+06
3.31664e+06
3.16196e+06
2.98136e+06
2.83976e+06
2.64578e+06
2.42631e+06
2.25231e+06
2.19109e+06
2.03013e+06
1.81209e+06
1.8641e+06
1.76315e+06
1.54004e+06
1.63613e+06
1.57785e+06
1.42308e+06
1.43096e+06
1.4053e+06
1.41904e+06
1.39493e+06
1.30412e+06
1.3247e+06
1.39376e+06
1.25958e+06
1.25094e+06
1.35638e+06
1.22141e+06
1.21088e+06
1.29472e+06
1.18823e+06
1.17174e+06
1.2143e+06
1.16567e+06
1.11757e+06
1.16124e+06
1.10171e+06
972963
1.11688e+06
1.05191e+06
815642
999713
989849
847487
870884
909328
943397
800818
768375
903394
713482
679153
781705
723467
625297
606340
611281
588604
541810
458267
381578
514913
449458
285332
387510
374102
295591
265760
282454
301338
300750
165463
133916
223981
127743
60534.8
99595.1
141246
95741.6
107131
108417
108549
105164
104229
108892
108569
104823
104942
108666
107259
107665
105138
106045
108292
107619
105551
105988
108296
107908
105597
106181
108391
108129
105797
106256
108643
108514
105845
106517
108981
109010
106147
106473
109691
109877
105752
107320
110173
110683
106985
105956
112094
112708
103525
109349
110848
111976
107288
97005.2
89109.4
144557
123902
142789
159418
88478.5
91585.1
123849
100080
89110.7
129884
112546
114274
117071
109654
109507
100477
102906
105286
106293
101461
100915
103318
103288
99639.4
102214
101051
100414
99018.3
98992.1
99209.8
98154.7
97068.4
96768
96739.3
95584.5
94407.7
94366.4
94371.8
93224
92536.3
91882.3
92973.5
90788.2
90581.5
90347.8
90155.4
89241.3
88279.1
88124.3
87677.7
87005.5
85616.2
86882.7
85194.1
84294.2
84148.4
83915.7
83257.5
81751.3
82551.4
81335.8
80624.8
80018.7
79870.6
79219.2
77499.1
78472.1
77200.8
76069
75736.9
75610.1
74867.8
73284
73987.8
72674.4
71334.1
71776.2
71193.4
70304.5
68639.6
68842.4
68091.9
66273.1
66455.3
65626.6
63666.9
64091.7
63341.6
61874.9
61181.7
61031.4
59959.5
58442
58206.1
57214.6
55534.7
55433.1
54449.4
52470.6
52432.2
51243
49128.5
49153
48005.9
45764.6
45704.2
44387.6
41805.1
41000.2
39471.3
35331
38997.7
38231.9
22839.1
23952.1
20969.1
16627.2
23328.6
5866.52
5336.08
20056.3
19777.2
21438.7
23657.3
21447.3
20881.8
18225.6
7847.09
6427.92
4498.18
3864.2
3679.98
3337.62
3655.62
3437.16
3663.67
3688.02
3270.18
3281.42
2995.35
2951.64
2837.21
2544.68
2502.73
2337.41
2211.16
2287.39
2011.45
2154.17
2118.37
2219.2
2023.11
2054.02
2014.6
2048.76
2062.95
2102.19
2005.91
1467.9
-2601.65
-3275.14
-4812.33
-4345.19
-4132.05
-4081.22
-3789.26
-3728.92
-2806.67
-3220.77
-3158.98
-2978.51
-2714.04
-2642.53
-2484.33
-2389.44
-2330.75
-2236.76
-2196.92
-2055.3
-1915.88
-1262.74
-2063.44
-2272.92
-1770.09
-1698.31
-2061.74
-2060.16
-1710.03
-2053.51
-2036.23
-1594.42
-1408.44
-1756.93
-1816.22
-1636.68
-2009.9
-2112.05
-2157.02
-2082.43
-1902.93
-1719.11
-1332.39
-1360.62
-1187.47
-770.632
-207.545
1301.85
1892.79
2000.4
1947.08
1987.22
1989.73
2018.49
1973.22
2335.94
2003.94
2032.53
2001.1
2000.7
1970.19
1911.76
1865.07
1851.18
1726.18
1848.11
1783.66
1823.99
1890.65
1690.07