/*--------------------------------*- C++ -*----------------------------------*\
| =========                 |                                                 |
| \\      /  F ield         | OpenFOAM: The Open Source CFD Toolbox           |
|  \\    /   O peration     | Version:  v2012                                 |
|   \\  /    A nd           | Website:  www.openfoam.com                      |
|    \\/     M anipulation  |                                                 |
\*---------------------------------------------------------------------------*/
FoamFile
{
    version     2.0;
    format      ascii;
    class       volScalarField;
    location    "1e-06";
    object      p_rgh;
}
// * * * * * * * * * * * * * * * * * * * * * * * * * * * * * * * * * * * * * //

dimensions      [1 -1 -2 0 0 0 0];


internalField   nonuniform List<scalar> 
102000
(
142709
97165
108530
109802
109908
106496
105534
110178
109831
106058
106152
109858
108426
108812
106258
107145
109373
108679
106588
107005
109295
108887
106554
107121
109314
109033
106681
107124
109495
109347
106660
107318
109766
109778
106899
107209
110414
110585
106442
107998
110837
111332
107618
106574
112703
113307
104100
109925
111404
112516
107820
97516
89473.2
145429
124861
143281
160181
88828.5
91947.7
124397
100765
89396.6
130665
113084
114781
117793
110088
109976
100795
103287
105586
106624
101824
101249
103639
103592
99952.3
102531
101332
100787
99316.9
99249.7
99482.9
98463.6
97381.3
97010
96994
95848.1
94644.5
94586.9
94584.9
93464.2
92787.1
92079
93173.9
90998.6
90784.7
90542.2
90350.7
89479.6
88458
88293.1
87858.6
87272.1
85747.6
87040
85400.2
84444.4
84301.1
84060.1
83503.8
81834.1
82716.1
81448.6
80794.2
80157.4
79985.6
79452.2
77534.1
78626.5
77285.8
76192.8
75840.9
75713.1
75026.4
73360.8
74089.1
72768.3
71373.3
71929.1
71324.1
70510.3
68700.5
68921.6
68251
66378.6
66479.5
65821.9
63644.4
64212.9
63446.9
61979.6
61273.3
61102.3
60150.7
58521.6
58271.9
57373.5
55571.7
55490.6
54613
52497.8
52476.5
51408.7
49144.9
49182.7
48244
45829.5
45802.8
44770.8
42079
41027.5
39789.5
35331.8
40187.3
40291.9
19983.6
23370.8
20177.3
13480.5
20785.9
1152.23
1788.24
19151.2
15874.5
19459.9
19396.9
18891.6
19063
15480.1
2156.71
-11856.4
-18604.5
-20918.6
-20785.4
-22525.4
-23927.8
-24320.8
-24903.2
-24847.7
-26143.7
-26517.5
-26395
-26648.8
-25886.7
-27356.3
-27946.9
-27543.6
-28236.1
-30568.4
-32887.1
-37255.1
-35195.2
-34398.2
-32409.2
-32718
-31403.7
-31653.4
-30506.6
-30863.9
-28786
-28337.3
-20252.5
-17522.5
-8818.74
-7513.24
-5304.5
-5340.06
-4361.09
-4329.04
-3045.93
-3424.8
-3329.93
-3078.72
-2750.63
-2662.03
-2488.31
-2391.14
-2342.58
-2239.01
-2199.68
-2046.63
-1915.01
-1309.78
-2257.47
-2480.09
-1123.1
-1081.39
-2184.38
-1853.4
-1743.25
-2012.11
-2160.83
-1070.05
-779.862
-1842.11
-1602.13
-1655.8
-2026.67
-2125.76
-2164.65
-2093
-1910.9
-1727.78
-1356.65
-1357.79
-1190.46
-739.042
-111.995
1972.03
1901.2
1885.67
1759.59
1825.58
1768.79
1850.42
1760.47
2205.74
1811.37
1872.72
1830.97
1827.05
1758.55
1813.87
1768.83
1830.58
1821.83
1818.35
1807.74
1805.79
1824.62
1832.05
1840.76
1844.61
1828.4
1835.75
1828.88
1820.78
3082.97
1814.4
1814.01
1809.21
1798.07
1803.62
1807.88
1789.1
1799.29
1795.81
1779.83
1767.14
1648.64
1713.5
1727.47
1725.17
1678.95
1729.32
1731.41
1726.73
1707.88
1667.26
1690.83
2295.21
79685.5
126459
168900
205637
237139
261095
274867
282759
286093
286360
284800
282430
279252
276318
272689
268593
265700
262394
258597
256422
253736
250464
248931
246867
244031
243067
241506
239258
237755
237418
236196
233967
234229
233356
231276
231796
231265
229626
229048
229899
229560
227641
228986
228914
227411
227275
228706
228695
226898
228805
229039
227669
227856
229562
229808
228153
230242
230668
229546
229908
231535
231989
230937
231542
232948
233294
232393
233923
234506
233966
234503
235568
236115
235831
236412
237317
237821
237752
238489
239295
239402
239859
240676
241253
241461
241899
242974
243535
243564
244036
245600
246188
245906
246489
248644
249268
248598
249381
251940
252674
250901
254171
255227
254138
254638
257699
258763
257519
258232
261195
262409
261364
262426
264691
266147
265193
266273
268245
269114
269257
270158
271035
272266
272747
273596
275466
274998
275987
277192
278138
276891
277983
280607
281067
279588
280594
283593
283819
283005
283216
286624
287319
287087
287367
290363
290076
291611
292670
293468
294017
293964
299018
299449
297464
298946
304616
305848
303244
305780
309305
311666
309755
312309
314615
314423
317016
319133
320975
318587
320455
325509
326644
322223
323677
330500
330057
331952
327612
329126
335963
335690
334418
334745
340614
340153
341737
343017
345298
346355
346993
353289
354869
352478
355126
362169
364673
361541
365157
368358
369988
374394
374733
378412
377050
379151
386137
387248
390526
384312
386757
397259
397586
392554
393863
404837
404629
406524
406849
407859
414233
415389
419549
421700
424393
427745
431484
435422
438870
440384
444952
444902
451098
461426
461868
466161
471400
473546
482925
487473
490382
496832
511956
517909
527670
543163
554240
567703
584079
604031
639228
662628
678776
712627
767028
807001
836690
893727
946859
1.03425e+06
1.10461e+06
1.16154e+06
1.25346e+06
1.37499e+06
1.47821e+06
1.56196e+06
1.6852e+06
1.80317e+06
1.95565e+06
2.07927e+06
2.1771e+06
2.30853e+06
2.43717e+06
2.57397e+06
2.69829e+06
2.80405e+06
2.94372e+06
3.04972e+06
3.15419e+06
3.25551e+06
3.35238e+06
3.44033e+06
3.52087e+06
3.59854e+06
3.65242e+06
3.71119e+06
3.73988e+06
3.7414e+06
3.73133e+06
3.70935e+06
3.64416e+06
3.55809e+06
3.46878e+06
3.3113e+06
3.15653e+06
2.97587e+06
2.83427e+06
2.64025e+06
2.4207e+06
2.24665e+06
2.18535e+06
2.02427e+06
1.8062e+06
1.85812e+06
1.75704e+06
1.53389e+06
1.62989e+06
1.5715e+06
1.41668e+06
1.4245e+06
1.39876e+06
1.41242e+06
1.38822e+06
1.29736e+06
1.31788e+06
1.38684e+06
1.25259e+06
1.24389e+06
1.34925e+06
1.2142e+06
1.2036e+06
1.28736e+06
1.18078e+06
1.16423e+06
1.20672e+06
1.15796e+06
1.10984e+06
1.15344e+06
1.09376e+06
965009
1.10885e+06
1.04373e+06
807467
991456
981507
839097
862431
900807
934783
792097
759604
894549
704517
670168
772640
714256
616063
597057
601915
579148
532187
448579
371918
505176
439576
275449
377551
364013
285462
255583
272215
291017
290345
154884
123376
213350
117053
49761.2
88738.7
142763
97176.4
108540
109810
109912
106498
105536
110181
109833
106059
106153
109858
108428
108812
106259
107145
109373
108678
106588
107006
109296
108886
106555
107122
109314
109032
106681
107124
109495
109347
106660
107318
109766
109778
106899
107210
110415
110585
106442
108000
110839
111333
107619
106577
112706
113308
104101
109927
111408
112519
107824
97522.7
89488.2
144755
124024
142574
159900
88747.6
91942.4
124388
100766
89404.1
130290
112740
114295
117345
109877
109867
100797
103282
105601
106639
101832
101265
103650
103600
99956.8
102531
101332
100766
99303.1
99239.3
99471.3
98440.6
97358.2
97001
96986.1
95849.4
94648.7
94592.8
94590.2
93466.1
92788.1
92083.2
93180.1
90999.7
90781.5
90539.5
90351.3
89466.2
88451.6
88289.1
87854.3
87255.9
85747.4
87039.9
85382.6
84439
84296.9
84060.2
83485
81834.4
82690.4
81448.6
80800.2
80149.9
79985.8
79432.3
77534.8
78613.7
77286
76199.1
75843.1
75717.1
75030.5
73364.5
74095.7
72768.5
71366.8
71886.1
71287
70469.8
68675
68893.3
68197.9
66343.5
66471.7
65782.4
63637.6
64158.5
63408
61980.4
61240.1
61078.7
60115.7
58501.7
58280.4
57387.7
55582.9
55504.9
54626.6
52508.3
52490.8
51418
49154.9
49194.9
48190.9
45810
45772.6
44689.5
41999.7
40978.3
39696.7
35336.8
39498.9
39337.5
20414.3
23418
20330.8
14221.1
22012.2
5933.81
5831.76
22301
21943.1
25521.3
29684.8
27508.9
27280.3
28014.1
15656.7
824.847
-2224.04
-4457.74
-5375.93
-7464.65
-8656.39
-9435.22
-10095.9
-10437.4
-11486.6
-11526.9
-11664.9
-11965.1
-12199.7
-12747.7
-12714.7
-12684.6
-13071
-13990.2
-15429.6
-17536.2
-16077.5
-15139.9
-14338.5
-14558.3
-14073.4
-14284
-14549.4
-15085.2
-15804.6
-16215.9
-14518.3
-12888.7
-7996.98
-6879.9
-5127.87
-5202.02
-4304.16
-4295.24
-3061.6
-3421.89
-3343.24
-3085.13
-2760.62
-2677.95
-2503.57
-2406.57
-2358.02
-2253.21
-2218.57
-2063.56
-1934.25
-1318.94
-2083.36
-2306.97
-1598.05
-1554.71
-2054.1
-2057.24
-1754.94
-2044.15
-2042.03
-1506.36
-1320.73
-1768.58
-1818
-1654.83
-2026.71
-2124.97
-2164.46
-2092.83
-1910.84
-1727.63
-1355.78
-1360.6
-1195.16
-755.878
-126.865
1908.82
1907.2
1870.11
1749.87
1805.77
1776.2
1849.63
1764.88
2203.4
1813.11
1868.82
1825.62
1816.57
1750.91
1687.03
1642.11
1622.2
1513.98
1593.84
1582.42
1616.16
1628.83
1451.19
1524.19
1440.08
1353.88
1533.48
1475.31
1435.9
1705.14
1467.82
1472.63
1542
1441.91
1522.75
1584.82
1466.95
1550.94
1579.56
1455.3
1543.62
1507.52
1561.58
1648.94
1628.82
1576.04
1654.7
1654.13
1647.91
1674
1645.6
1663.1
2179.46
79721.1
126481
168907
205643
237154
261111
274887
282764
286095
286366
284812
282427
279265
276315
272689
268592
265700
262393
258594
256421
253751
250460
248925
246865
244027
243066
241503
239254
237750
237414
236192
233958
234222
233353
231266
231791
231262
229623
229040
229892
229558
227632
228979
228909
227404
227270
228702
228693
226892
228796
229034
227662
227850
229556
229807
228148
230230
230662
229538
229899
231527
231982
230930
231533
232941
233289
232387
233915
234502
233961
234496
235562
236111
235827
236406
237311
237820
237749
238484
239285
239393
239848
240666
241244
241452
241888
242963
243528
243556
244025
245588
246181
245898
246476
248631
249260
248590
249367
251928
252668
250894
254156
255217
254130
254628
257687
258761
257519
258234
261195
262414
261370
262426
264692
266155
265201
266278
268250
269123
269265
270163
271045
272274
272757
273602
275467
274997
275987
277205
278150
276900
277989
280613
281074
279594
280595
283596
283823
283008
283218
286625
287320
287088
287367
290363
290076
291607
292667
293465
294016
293962
299014
299449
297464
298948
304618
305851
303244
305769
309295
311666
309754
312302
314615
314422
317017
319133
320975
318587
320445
325509
326645
322223
323677
330501
330058
331953
327612
329126
335964
335692
334418
334744
340614
340154
341737
343014
345295
346353
346994
353290
354869
352478
355116
362160
364672
361540
365150
368353
369982
374394
374732
378412
377050
379145
386137
387248
390527
384312
386747
397259
397586
392554
393860
404837
404630
406524
406849
407856
414232
415389
419549
421696
424388
427740
431485
435419
438866
440381
444951
444902
451100
461399
462030
466263
471390
473535
482925
487474
490375
496832
511954
517909
527670
543163
554235
567694
584079
604032
639225
662618
678766
712610
767021
806988
836676
893684
946835
1.03422e+06
1.10459e+06
1.16151e+06
1.25341e+06
1.37493e+06
1.47821e+06
1.56191e+06
1.68515e+06
1.80311e+06
1.9556e+06
2.07923e+06
2.17707e+06
2.30848e+06
2.43712e+06
2.57393e+06
2.69828e+06
2.80396e+06
2.94357e+06
3.04958e+06
3.15406e+06
3.25538e+06
3.35225e+06
3.44021e+06
3.52075e+06
3.5984e+06
3.65228e+06
3.71106e+06
3.73976e+06
3.74136e+06
3.7313e+06
3.70933e+06
3.64414e+06
3.55807e+06
3.46876e+06
3.31128e+06
3.15651e+06
2.97585e+06
2.83426e+06
2.64025e+06
2.4207e+06
2.24665e+06
2.18535e+06
2.02427e+06
1.8062e+06
1.85812e+06
1.75704e+06
1.53389e+06
1.62989e+06
1.5715e+06
1.41668e+06
1.4245e+06
1.39876e+06
1.41243e+06
1.38823e+06
1.29736e+06
1.31788e+06
1.38684e+06
1.25259e+06
1.24389e+06
1.34925e+06
1.2142e+06
1.2036e+06
1.28736e+06
1.18078e+06
1.16423e+06
1.20672e+06
1.15798e+06
1.10984e+06
1.15344e+06
1.09377e+06
965009
1.10885e+06
1.04373e+06
807464
991456
981513
839097
862431
900807
934784
792097
759605
894549
704517
670168
772640
714255
616063
597057
601915
579147
532221
448579
371916
505176
439575
275448
377551
364029
285493
255583
272215
291018
290346
154913
123377
213351
117053
49761.9
88740.3
142747
97178.7
108542
109811
109914
106500
105538
110181
109833
106060
106154
109858
108428
108812
106260
107145
109373
108679
106589
107005
109296
108887
106555
107121
109314
109033
106682
107124
109495
109348
106661
107317
109765
109778
106900
107210
110415
110586
106444
108000
110838
111334
107621
106577
112706
113309
104104
109928
111409
112522
107829
97527.5
89507.5
145681
125007
143637
160247
88863.7
91935.7
124370
100676
89418.5
130721
113213
114982
117842
110166
109974
100784
103277
105599
106626
101805
101247
103635
103592
99949
102525
101333
100755
99313.8
99256.7
99478.9
98442.4
97366.2
97011.5
96986.5
95835.7
94644.2
94589
94587.2
93448.9
92774.7
92078.4
93173.3
90990.1
90781.5
90536.7
90344.3
89453.5
88453.9
88290
87846.9
87237.3
85750.9
87037.5
85365.4
84439.9
84293.5
84053
83465.7
81843.9
82715.4
81450
80764.4
80143.3
79978.6
79411.1
77551.6
78613
77287.5
76175.2
75835.1
75701.7
75003.2
73359.7
74080
72742
71375.9
71896.2
71295.9
70473.5
68695
68902.4
68215.5
66360.1
66483.8
65786.5
63661.3
64233.3
63410.4
61936
61242.8
61078.7
60081.5
58502.4
58250.6
57327.2
55568.2
55476.9
54565
52499
52469.8
51355.9
49148.3
49180.1
48137.1
45806.4
45762.6
44628.6
42004.9
40980
39697.2
35270.1
39487.9
39550.6
20972.6
23555.7
20423.5
14618.8
22070.3
2389.1
2455.26
18671.2
16101.3
18361.2
17948.5
17317.2
17544.3
16720.6
5035.93
2507.78
1466.54
676.652
252.692
-259.288
58.6804
-563.039
-1296.42
-2486.27
-3309.23
-3638.91
-4087.71
-4438.44
-5142.12
-5576.79
-5524.05
-5809.47
-5965.36
-6692.34
-7471.45
-7942.16
-6885.47
-5874.64
-5616.38
-5805.8
-5845.22
-6003.75
-6781.56
-7330.68
-9162.78
-9773.22
-11399.2
-9878.84
-7349.58
-6356.22
-4967.99
-4998.1
-4228.94
-4194.27
-2996.77
-3376.26
-3314.77
-3069.37
-2753.86
-2669.02
-2498.83
-2401.9
-2351.65
-2250.3
-2212.98
-2062.93
-1930.13
-1311.19
-2102.6
-2313.78
-1620.37
-1589.39
-2067.26
-2071.87
-1750.95
-2063.76
-2051.96
-1514.38
-1333.56
-1772.05
-1823.64
-1654.7
-2024.38
-2123.3
-2164.66
-2092.48
-1910.54
-1727.25
-1353.76
-1361.29
-1194.9
-755.013
-143.489
1766.26
1927.94
1921.08
1777.45
1833.14
1796.89
1853.23
1773.27
2193.08
1809.8
1861.35
1818.45
1808.53
1771
1739.88
1693.74
1690.75
1564.66
1659.32
1645.97
1685.81
1712.45
1532.54
1589.04
1693.02
1425.74
1600.6
1533.95
1488.99
1708.29
1513.8
1527.15
1607.89
1522.17
1585.43
1657.94
1515.56
1602.01
1623.69
1507.56
1575.53
1566.87
1623.72
1694.74
1674.35
1617.88
1657.9
1642.8
1641.01
1680.29
1660.16
1681.43
1871.89
79731.9
126419
168908
205660
237184
261129
274908
282771
286106
286375
284831
282444
279264
276315
272704
268591
265699
262392
258594
256421
253747
250460
248945
246878
244026
243064
241503
239253
237748
237413
236198
233955
234221
233361
231263
231789
231266
229622
229037
229890
229556
227628
228985
228910
227402
227265
228699
228689
226888
228797
229034
227659
227845
229551
229802
228145
230232
230663
229536
229893
231522
231982
230928
231527
232939
233289
232385
233910
234501
233960
234492
235559
236112
235826
236403
237309
237818
237748
238487
239289
239402
239852
240669
241251
241459
241890
242966
243535
243562
244026
245590
246186
245902
246477
248632
249262
248592
249360
251928
252668
250891
254158
255219
254131
254624
257677
258759
257516
258224
261181
262410
261363
262412
264677
266147
265191
266261
268233
269111
269254
270149
271023
272256
272739
273582
275466
274997
275983
277183
278137
276890
277969
280598
281068
279590
280583
283590
283822
283008
283218
286624
287320
287089
287367
290364
290076
291603
292664
293463
294016
293960
299011
299447
297462
298934
304616
305850
303239
305757
309285
311665
309753
312294
314615
314422
317011
319133
320977
318588
320446
325511
326647
322224
323677
330503
330059
331955
327613
329126
335965
335694
334420
334744
340616
340154
341735
343010
345295
346351
346990
353283
354868
352477
355105
362149
364672
361539
365143
368348
369976
374394
374732
378413
377050
379145
386138
387248
390527
384312
386748
397260
397587
392555
393860
404839
404630
406524
406849
407856
414232
415385
419543
421693
424387
427734
431478
435413
438867
440381
444951
444902
451103
461387
461805
466159
471365
473531
482925
487474
490373
496832
511954
517909
527658
543152
554229
567682
584064
604007
639201
662607
678752
712574
766985
806964
836660
893684
946787
1.03417e+06
1.10454e+06
1.16147e+06
1.25334e+06
1.37486e+06
1.47817e+06
1.56185e+06
1.68508e+06
1.80303e+06
1.95553e+06
2.07918e+06
2.17702e+06
2.30842e+06
2.43707e+06
2.57388e+06
2.69825e+06
2.80399e+06
2.94363e+06
3.04966e+06
3.15413e+06
3.25546e+06
3.35233e+06
3.44029e+06
3.52083e+06
3.59854e+06
3.65243e+06
3.71121e+06
3.73992e+06
3.74142e+06
3.73136e+06
3.7094e+06
3.64422e+06
3.55816e+06
3.46886e+06
3.31139e+06
3.15662e+06
2.97595e+06
2.83433e+06
2.64025e+06
2.4207e+06
2.24665e+06
2.18535e+06
2.02426e+06
1.8062e+06
1.85812e+06
1.75704e+06
1.53389e+06
1.62989e+06
1.5715e+06
1.41668e+06
1.4245e+06
1.39876e+06
1.41243e+06
1.38824e+06
1.29736e+06
1.31788e+06
1.38685e+06
1.2526e+06
1.24389e+06
1.34925e+06
1.2142e+06
1.2036e+06
1.28736e+06
1.1808e+06
1.16424e+06
1.20672e+06
1.158e+06
1.10984e+06
1.15344e+06
1.09377e+06
965006
1.10885e+06
1.04373e+06
807462
991456
981513
839096
862432
900807
934785
792129
759606
894550
704554
670168
772642
714301
616085
597057
601917
579147
532220
448579
371914
505174
439573
275447
377552
364035
285492
255585
272216
291017
290348
154953
123376
213354
117053
49762.7
88742
142744
97184
108546
109811
109913
106500
105539
110181
109833
106060
106155
109857
108428
108813
106260
107145
109373
108680
106589
107006
109295
108887
106555
107121
109314
109033
106682
107124
109495
109348
106661
107317
109766
109778
106900
107210
110415
110586
106444
108000
110838
111335
107622
106578
112706
113309
104106
109926
111409
112523
107827
97527.3
89533
144860
124208
142885
159947
88902.1
91981.6
124352
100627
89445.4
130365
112869
114504
117417
109912
109948
100818
103277
105615
106628
101808
101255
103639
103592
99950.4
102527
101333
100735
99306.6
99258
99476.3
98429.9
97349.1
97009.7
96983.7
95835.7
94644.3
94590
94585.1
93449.8
92775.1
92080.2
93170.6
90990.6
90783
90534
90341.4
89438.3
88453.9
88284.5
87847.6
87217.2
85754.2
87032.3
85361
84441
84288.5
84053
83443.2
81851.8
82677.8
81451.1
80771.7
80136.3
79979.3
79385.9
77563.3
78587.6
77289
76179.2
75830
75701.8
75004.1
73359.9
74075.5
72744
71382.1
71868.1
71279
70444.7
68689.8
68901.6
68185.9
66345
66486.4
65749.8
63675.4
64144.7
63410.4
61944.9
61225.2
61078.6
60082.8
58485
58250.6
57330.5
55561.8
55476.7
54566.4
52494.3
52465.8
51357.7
49144.1
49176.2
48138.8
45795.5
45749.1
44559.5
41938.5
40987.2
39691.8
35298.3
39279
39179.3
21506.4
23678.6
20576.3
15222.6
22532.7
5195.86
4356.38
20297.5
20521.1
22252.5
23891.7
23027.7
22732.9
18382.9
7526.46
4068.44
2495.22
1992.62
1919.38
1832.79
1928.35
1808.98
1717.06
1521.81
1362.56
1275.87
1189.94
1120.69
987.017
438.779
441.088
-126.16
-272.597
-683.919
-1383.44
-809.781
-339.212
-260.794
-292.393
-357.687
-459.536
-453.53
-823.245
-1326.25
-3906.08
-4838.23
-7389.82
-6915.8
-6551.38
-5754.71
-4746.83
-4758.2
-4123.56
-4073.54
-2949.66
-3348.64
-3288.88
-3052.62
-2751.32
-2667.72
-2501.77
-2404.23
-2352.97
-2252.43
-2215.21
-2066.34
-1929.77
-1305.52
-2094.69
-2305.97
-1639.49
-1600.91
-2069.55
-2074.32
-1745.71
-2063.53
-2049.95
-1516.98
-1336.5
-1769.83
-1824.22
-1651.62
-2021.95
-2121.58
-2164.23
-2091.73
-1910
-1726.72
-1350.3
-1363.14
-1194.64
-766.84
-166.917
1688.72
1927.81
1921.08
1774.96
1828.16
1799.54
1850.29
1781.33
2182.53
1811.07
1855.96
1812.89
1808.05
1772.18
1746.75
1705.53
1703.75
1581.14
1689.96
1666.04
1718.41
1765.63
1572.25
1610.45
1695.84
1470.88
1620.26
1559.53
1542.12
1705.5
1547.82
1555.11
1631.7
1559.85
1606.09
1678.8
1569.53
1611.25
1619.24
1527.63
1570.58
1582.4
1640.41
1705.28
1666.17
1611.58
1628.1
1597.07
1606.72
1664.02
1639
1673.65
1719.49
79750.7
126444
168912
205686
237233
261185
274937
282784
286126
286392
284853
282461
279278
276313
272704
268590
265699
262391
258593
256419
253763
250458
248939
246885
244023
243063
241501
239251
237746
237412
236206
233950
234217
233368
231256
231787
231266
229620
229033
229889
229562
227622
228979
228912
227399
227262
228698
228690
226883
228791
229035
227656
227840
229549
229804
228141
230223
230664
229532
229888
231520
231982
230925
231520
232939
233289
232381
233906
234501
233958
234488
235555
236111
235824
236399
237306
237818
237746
238485
239284
239400
239847
240664
241247
241455
241884
242961
243533
243559
244020
245585
246185
245900
246469
248631
249262
248589
249351
251928
252668
250886
254159
255217
254129
254618
257678
258757
257515
258220
261182
262411
261360
262404
264678
266148
265192
266262
268234
269113
269254
270150
271027
272259
272742
273586
275467
274998
275980
277192
278145
276893
277971
280601
281070
279591
280583
283591
283823
283009
283218
286624
287320
287089
287365
290364
290076
291602
292661
293460
294016
293959
299011
299447
297462
298924
304604
305852
303241
305747
309284
311665
309752
312286
314616
314422
317009
319129
320978
318587
320436
325511
326648
322224
323670
330504
330059
331956
327613
329127
335966
335694
334420
334742
340617
340153
341735
343006
345296
346350
346986
353283
354868
352475
355094
362140
364672
361538
365136
368344
369971
374394
374731
378413
377050
379141
386138
387244
390529
384311
386737
397261
397588
392555
393857
404840
404630
406524
406849
407856
414232
415385
419541
421689
424385
427728
431472
435409
438866
440377
444951
444902
451106
461429
461976
466201
471356
473533
482917
487473
490373
496827
511954
517909
527651
543152
554221
567669
584061
603984
639196
662597
678739
712543
766972
806943
836652
893696
946749
1.03412e+06
1.1045e+06
1.16144e+06
1.2533e+06
1.37479e+06
1.47814e+06
1.56179e+06
1.68503e+06
1.80296e+06
1.95546e+06
2.07914e+06
2.17698e+06
2.30837e+06
2.43702e+06
2.57384e+06
2.69824e+06
2.80388e+06
2.94348e+06
3.0495e+06
3.15398e+06
3.25531e+06
3.35218e+06
3.44016e+06
3.52071e+06
3.59839e+06
3.65227e+06
3.71106e+06
3.73981e+06
3.74138e+06
3.73133e+06
3.70938e+06
3.6442e+06
3.55813e+06
3.46884e+06
3.31137e+06
3.1566e+06
2.97594e+06
2.83433e+06
2.64025e+06
2.4207e+06
2.24665e+06
2.18535e+06
2.02426e+06
1.80619e+06
1.85812e+06
1.75704e+06
1.53389e+06
1.62989e+06
1.5715e+06
1.41668e+06
1.4245e+06
1.39876e+06
1.41243e+06
1.38824e+06
1.29736e+06
1.31788e+06
1.38685e+06
1.2526e+06
1.24388e+06
1.34925e+06
1.2142e+06
1.2036e+06
1.28736e+06
1.1808e+06
1.16423e+06
1.20672e+06
1.15801e+06
1.10984e+06
1.15344e+06
1.09378e+06
965007
1.10885e+06
1.04374e+06
807462
991458
981513
839094
862432
900807
934784
792129
759608
894551
704568
670166
772644
714331
616084
597057
601918
579146
532258
448628
371913
505174
439573
275445
377552
364053
285491
255585
272216
291019
290350
154989
123373
213358
117050
49763.7
88744.9
142715
97172.4
108534
109801
109907
106497
105536
110177
109830
106058
106153
109855
108427
108810
106259
107144
109372
108678
106588
107005
109294
108886
106555
107120
109313
109032
106682
107123
109493
109346
106661
107316
109764
109777
106899
107209
110413
110584
106443
107997
110836
111332
107619
106576
112702
113305
104103
109920
111404
112518
107820
97522.3
89562.3
145369
124598
143423
160086
88891.1
92057.7
124363
100639
89493.5
130434
113016
114739
117561
110094
109926
100837
103277
105637
106638
101810
101253
103643
103601
99950.5
102523
101340
100725
99306.7
99264.8
99480.2
98432.1
97340.7
97016.8
96985.9
95837.4
94644.6
94594.5
94590.5
93451.1
92764
92085.9
93173.8
90990.6
90778.8
90535.6
90342.7
89439.1
88456.2
88288
87848.2
87196.7
85763.5
87037.1
85362.1
84442
84289.7
84055.6
83421.8
81865.5
82678.9
81453.1
80760
80137.3
79982.1
79360.6
77582.2
78568.7
77291.2
76179.1
75830.6
75702
74981.5
73363.1
74071.3
72746
71395.6
71863.2
71280.5
70410.5
68697.3
68905
68186.5
66340
66501.6
65715.7
63694.9
64155.1
63411.7
61947.4
61227.8
61078.5
60039.6
58487.1
58250.6
57289
55565.8
55467.8
54521.5
52496.3
52459.3
51317.8
49149.2
49171.5
48080.3
45789.6
45733.7
44483.4
41884
40992.7
39590.4
35347.7
39160.4
38768
22177.9
23808.9
20739.7
15871.1
22908.4
5065.34
4395.99
19878.9
19873.6
21011.7
23380.3
22290.1
20930.1
17610.3
7664.51
5049.93
3398.58
2747.93
2682.17
2409.01
2751.78
2504.13
2549.94
2509.14
2208.76
2161.22
2031.05
1983
1963.26
1860.33
1857.48
1711.76
1640.06
1582.57
1291.52
1530.48
1594.74
1603.14
1526.37
1523.82
1467.96
1485.07
1494.96
1370.76
-368.256
-1760.76
-4456.91
-5229.69
-6027.34
-5414.61
-4633.53
-4642.61
-4068.25
-4048.31
-2973.14
-3368.04
-3279.12
-3076.32
-2777.77
-2702.11
-2534.02
-2433.04
-2378.63
-2272.2
-2237.5
-2080.76
-1950.32
-1305.02
-2098.45
-2306.99
-1740.7
-1686.3
-2076
-2080.57
-1739.73
-2067.14
-2050.57
-1578.7
-1395.12
-1768.67
-1826.18
-1649.97
-2020.4
-2119.26
-2164.37
-2091
-1909.55
-1726.16
-1345.28
-1364.7
-1194
-770.446
-200.544
1414.22
1930.92
1923.07
1760.34
1809.08
1788.82
1835.43
1780.07
2175.25
1822.32
1859.41
1815.07
1809.81
1763.42
1725.93
1691.04
1707.43
1584.75
1721.65
1684.24
1733.23
1801.08
1597.79
1620.05
1683.17
1490.67
1625.25
1572.19
1562.35
1680.22
1558
1564.1
1640.35
1575.88
1610.07
1677.91
1575.47
1591.49
1574.82
1509.49
1565.39
1582.66
1636.06
1698.51
1651.59
1598.59
1604.53
1560.49
1567.46
1644.15
1613.82
1657.82
1717.38
79715.9
126446
168913
205741
237300
261244
274958
282813
286154
286414
284880
282479
279292
276313
272703
268588
265697
262389
258590
256418
253761
250455
248937
246899
244018
243061
241501
239250
237742
237411
236206
233944
234217
233377
231249
231788
231272
229618
229030
229890
229566
227615
228979
228915
227396
227259
228699
228692
226876
228792
229038
227653
227836
229550
229805
228136
230220
230668
229529
229883
231521
231983
230923
231514
232940
233290
232377
233907
234502
233956
234484
235555
236111
235823
236395
237306
237818
237743
238487
239280
239400
239843
240661
241247
241453
241879
242962
243533
243557
244013
245586
246186
245898
246462
248632
249263
248587
249342
251930
252670
250879
254160
255216
254128
254612
257679
258756
257513
258213
261179
262413
261356
262394
264672
266148
265191
266255
268227
269112
269252
270146
271020
272254
272738
273579
275465
274996
275973
277184
278142
276889
277959
280594
281068
279588
280573
283587
283821
283006
283215
286617
287319
287088
287362
290364
290074
291598
292658
293460
294016
293959
299011
299448
297462
298924
304604
305852
303240
305747
309284
311667
309752
312286
314616
314420
317000
319121
320979
318584
320423
325503
326647
322221
323658
330504
330057
331955
327610
329116
335965
335694
334418
334739
340617
340152
341735
343001
345296
346350
346986
353284
354870
352475
355095
362141
364673
361539
365136
368345
369970
374394
374730
378413
377048
379131
386133
387238
390527
384310
386724
397258
397586
392553
393850
404839
404628
406522
406847
407851
414230
415382
419541
421689
424385
427724
431472
435409
438866
440377
444950
444901
451106
461349
461886
466191
471334
473532
482907
487469
490367
496815
511945
517903
527639
543152
554220
567667
584061
603984
639196
662597
678739
712543
766973
806943
836653
893607
946750
1.03412e+06
1.1045e+06
1.16144e+06
1.2533e+06
1.37479e+06
1.47814e+06
1.56177e+06
1.68503e+06
1.80296e+06
1.95546e+06
2.07914e+06
2.17698e+06
2.30837e+06
2.43702e+06
2.57385e+06
2.69825e+06
2.80388e+06
2.9435e+06
3.04954e+06
3.15402e+06
3.25534e+06
3.35221e+06
3.44018e+06
3.52073e+06
3.59844e+06
3.65233e+06
3.71112e+06
3.73985e+06
3.74141e+06
3.73136e+06
3.70942e+06
3.64425e+06
3.5582e+06
3.46892e+06
3.31144e+06
3.15668e+06
2.97601e+06
2.83434e+06
2.64029e+06
2.42074e+06
2.24666e+06
2.18536e+06
2.02431e+06
1.8062e+06
1.85812e+06
1.75709e+06
1.53389e+06
1.62989e+06
1.57153e+06
1.41669e+06
1.42449e+06
1.39876e+06
1.41242e+06
1.38824e+06
1.29735e+06
1.31786e+06
1.38685e+06
1.25259e+06
1.24388e+06
1.34925e+06
1.2142e+06
1.2036e+06
1.28736e+06
1.1808e+06
1.16423e+06
1.20672e+06
1.15801e+06
1.10984e+06
1.15344e+06
1.09383e+06
965011
1.10885e+06
1.04381e+06
807467
991465
981526
839090
862413
900783
934778
792124
759606
894551
704566
670162
772640
714328
616084
597053
601919
579168
532300
448683
371919
505181
439651
275451
377554
364073
285487
255582
272202
291012
290349
154988
123367
213358
117045
49763.1
88749.2
142720
97187.6
108550
109808
109914
106503
105543
110180
109833
106062
106157
109858
108428
108811
106261
107147
109372
108679
106590
107007
109295
108887
106556
107122
109313
109033
106683
107125
109494
109348
106662
107318
109765
109778
106901
107211
110415
110586
106446
108000
110839
111335
107623
106581
112706
113308
104112
109924
111410
112526
107827
97532.3
89625.2
145062
124396
143273
159891
88942
92038.8
124293
100515
89535.8
130301
112954
114673
117461
110036
109880
100843
103263
105635
106635
101795
101242
103638
103600
99945
102512
101343
100699
99297.1
99264.5
99476
98414.6
97322.2
97015.9
96981.4
95820.8
94638.3
94591.5
94591.4
93438.2
92745.3
92086.1
93172.2
90981.9
90770.4
90531.9
90334.7
89415.9
88449.2
88289.9
87838.9
87162.4
85768.8
87031.1
85338.4
84434.5
84284.7
84048.1
83386.1
81876.1
82672.5
81453.3
80738.8
80129.2
79977.6
79322.9
77599.4
78569.1
77294.6
76159.7
75824.6
75694.7
74949.4
73362.7
74063.6
72747.4
71404.3
71843.7
71258.2
70366.7
68699.2
68899.4
68146.4
66325.2
66505
65673.9
63711.9
64134.5
63382.1
61913.2
61217.8
61065.4
59991.4
58471.8
58233.9
57240.4
55558.6
55455.1
54469.5
52489
52448.8
51257.7
49141.5
49164.2
48015.5
45772.6
45710.5
44392.3
41808.2
41001.8
39471.4
35329.6
38994.8
38227.6
22833.5
23945.1
20960.8
16617.6
23317.6
5854.17
5322.34
20041.2
19760.6
21420.7
23638
21426.5
20859.6
18201.9
7821.96
6401.34
4470.14
3834.69
3649.01
3305.16
3621.65
3401.69
3626.69
3649.52
3230.15
3239.85
2952.24
2906.97
2790.97
2496.88
2453.35
2286.45
2158.61
2233.24
1955.7
2096.74
2059.27
2158.44
1960.71
1989.96
1948.88
1981.35
1993.97
2031.6
1935.82
1396.93
-2664.4
-3337.7
-4861.56
-4393.84
-4170.99
-4120.05
-3821.75
-3761.53
-2835.06
-3246.65
-3184.3
-3001.95
-2737.19
-2663.93
-2505.62
-2409.1
-2350.45
-2254.84
-2215.14
-2071.97
-1932.71
-1277.98
-2077.54
-2286.8
-1782.92
-1711.12
-2073.53
-2072.05
-1720.73
-2063.28
-2045.64
-1603.23
-1417.18
-1764.55
-1823.71
-1642.25
-2015.03
-2117.11
-2162.21
-2087.72
-1908.52
-1724.76
-1338.28
-1366.63
-1193.61
-777.848
-215.655
1287.34
1828.14
1926.68
1788.06
1825.45
1810.73
1836.91
1789.37
2149.78
1815.48
1841.81
1809.88
1808.13
1787.64
1767.3
1724.35
1750.18
1626.83
1761.6
1708.77
1749.18
1825.26
1627.22
1634.95
1677.24
1522.84
1633.33
1578.66
1569.46
1663.72