/*--------------------------------*- C++ -*----------------------------------*\
| =========                 |                                                 |
| \\      /  F ield         | OpenFOAM: The Open Source CFD Toolbox           |
|  \\    /   O peration     | Version:  v2012                                 |
|   \\  /    A nd           | Website:  www.openfoam.com                      |
|    \\/     M anipulation  |                                                 |
\*---------------------------------------------------------------------------*/
FoamFile
{
    version     2.0;
    format      ascii;
    class       surfaceScalarField;
    location    "1e-06";
    object      phi;
}
// * * * * * * * * * * * * * * * * * * * * * * * * * * * * * * * * * * * * * //

dimensions      [0 3 -1 0 0 0 0];
oriented        oriented;


internalField   nonuniform List<scalar> 
203170
(
2.5148e-06
8.8974e-07
2.25703e-06
2.57763e-07
2.10409e-06
1.5294e-07
1.93783e-06
1.66269e-07
1.81494e-06
1.22886e-07
1.73475e-06
8.01837e-08
1.69462e-06
4.0131e-08
1.66124e-06
3.3384e-08
1.61388e-06
4.73602e-08
1.5635e-06
5.038e-08
1.54151e-06
2.19866e-08
1.53221e-06
9.30596e-09
1.50683e-06
2.53811e-08
1.46821e-06
3.8621e-08
1.45138e-06
1.68201e-08
1.45643e-06
-5.04873e-09
1.44275e-06
1.36799e-08
1.40949e-06
3.32624e-08
1.39327e-06
1.62224e-08
1.40151e-06
-8.23885e-09
1.39395e-06
7.55938e-09
1.36293e-06
3.10186e-08
1.34539e-06
1.75433e-08
1.35214e-06
-6.75792e-09
1.34825e-06
3.89819e-09
1.32041e-06
2.78334e-08
1.30063e-06
1.97787e-08
1.30484e-06
-4.20446e-09
1.30279e-06
2.05278e-09
1.27646e-06
2.63213e-08
1.25343e-06
2.30326e-08
1.25408e-06
-6.46859e-10
1.25223e-06
1.85173e-09
1.22563e-06
2.65929e-08
1.19816e-06
2.74724e-08
1.19435e-06
3.81545e-09
1.19028e-06
4.06821e-09
1.16141e-06
2.88676e-08
1.1277e-06
3.37072e-08
1.11674e-06
1.09595e-08
1.10827e-06
8.47896e-09
1.07307e-06
3.51939e-08
1.02976e-06
4.33116e-08
1.0089e-06
2.08605e-08
9.87947e-07
2.0952e-08
9.41151e-07
4.67962e-08
8.7957e-07
6.15811e-08
8.36036e-07
4.35337e-08
7.94373e-07
4.1663e-08
7.12065e-07
8.23079e-08
6.04886e-07
1.0718e-07
4.96919e-07
1.07967e-07
3.35008e-07
1.61911e-07
3.63036e-07
-2.80282e-08
4.72643e-07
-1.09607e-07
5.80906e-07
-1.08262e-07
7.44213e-07
-1.63307e-07
8.69331e-07
-1.25118e-07
9.29895e-07
-6.05638e-08
9.83541e-07
-5.36457e-08
9.89571e-07
-6.03072e-09
9.25679e-07
6.38921e-08
9.93051e-07
-6.73724e-08
1.07365e-06
-8.06017e-08
1.12861e-06
-5.49526e-08
1.17336e-06
-4.47524e-08
1.20523e-06
-3.18772e-08
1.29205e-06
-8.68131e-08
1.33428e-06
-4.22316e-08
1.3387e-06
-4.42034e-09
1.34726e-06
-8.56553e-09
1.37922e-06
-3.19568e-08
1.38818e-06
-8.96167e-09
1.37115e-06
1.70383e-08
1.37713e-06
-5.98649e-09
1.3878e-06
-1.06638e-08
1.39244e-06
-4.63926e-09
1.39683e-06
-4.39576e-09
1.40274e-06
-5.91304e-09
1.43102e-06
-2.82725e-08
1.43772e-06
-6.70838e-09
1.43234e-06
5.38369e-09
1.44847e-06
-1.61324e-08
1.47487e-06
-2.63927e-08
1.47555e-06
-6.80148e-10
1.46605e-06
9.49399e-09
1.48273e-06
-1.66729e-08
1.49575e-06
-1.3027e-08
1.48069e-06
1.506e-08
1.47324e-06
7.45751e-09
1.49346e-06
-2.02247e-08
1.4997e-06
-6.24161e-09
1.48097e-06
1.87316e-08
1.48187e-06
-9.00222e-10
1.49671e-06
-1.48393e-08
1.49525e-06
1.45704e-09
1.49116e-06
4.08888e-09
1.50071e-06
-9.5431e-09
1.51849e-06
-1.77861e-08
1.51158e-06
6.91357e-09
1.50283e-06
8.75378e-09
1.51917e-06
-1.63455e-08
1.52786e-06
-8.69074e-09
1.51388e-06
1.39836e-08
1.51337e-06
5.13356e-10
1.53273e-06
-1.93651e-08
1.53094e-06
1.78912e-09
1.52308e-06
7.86261e-09
1.53621e-06
-1.31304e-08
1.54999e-06
-1.37772e-08
1.53943e-06
1.05567e-08
1.53398e-06
5.45109e-09
1.50623e-06
2.77508e-08
1.5096e-06
-3.36905e-09
1.55203e-06
-4.24373e-08
1.56481e-06
-1.27742e-08
1.58033e-06
-1.55203e-08
1.57103e-06
9.29572e-09
1.56583e-06
5.20627e-09
1.54241e-06
2.34193e-08
1.54463e-06
-2.21938e-09
1.58678e-06
-4.2152e-08
1.60184e-06
-1.50557e-08
1.61733e-06
-1.54938e-08
1.60505e-06
1.22795e-08
1.60561e-06
-5.56994e-10
1.62192e-06
-1.63184e-08
1.60933e-06
1.25938e-08
1.59869e-06
1.06435e-08
1.6206e-06
-2.1914e-08
1.63865e-06
-1.80442e-08
1.64301e-06
-4.36164e-09
1.65644e-06
-1.34333e-08
1.67928e-06
-2.28336e-08
1.68051e-06
-1.23679e-09
1.6942e-06
-1.36883e-08
1.71014e-06
-1.59376e-08
1.70588e-06
4.261e-09
1.70017e-06
5.70379e-09
1.67908e-06
2.10957e-08
1.69075e-06
-1.1674e-08
1.73564e-06
-4.48859e-08
1.75374e-06
-1.81009e-08
1.77098e-06
-1.72427e-08
1.77549e-06
-4.51355e-09
1.79554e-06
-2.00411e-08
1.82121e-06
-2.56776e-08
1.82262e-06
-1.408e-09
1.83912e-06
-1.65029e-08
1.86807e-06
-2.89487e-08
1.8701e-06
-2.02749e-09
1.88698e-06
-1.6878e-08
1.92118e-06
-3.42027e-08
1.92802e-06
-6.84372e-09
1.94659e-06
-1.85673e-08
1.98102e-06
-3.44297e-08
1.98988e-06
-8.85997e-09
2.0089e-06
-1.90139e-08
2.04682e-06
-3.79289e-08
2.06168e-06
-1.48535e-08
2.07732e-06
-1.56426e-08
2.09422e-06
-1.68945e-08
2.08562e-06
8.5987e-09
2.08273e-06
2.89247e-09
2.26583e-06
-1.83107e-07
2.55966e-06
-2.93827e-07
2.61099e-06
-5.13255e-08
2.70363e-06
-9.26418e-08
2.85e-06
-1.46376e-07
3.02742e-06
-1.77419e-07
3.42848e-06
-4.01058e-07
3.35426e-06
2.13772e-07
2.92211e-06
4.65753e-07
2.73571e-06
1.13035e-07
2.55538e-06
1.06065e-07
2.43519e-06
-1.26508e-08
2.32539e-06
-3.03874e-08
2.20918e-06
-2.70252e-08
2.07082e-06
-7.28011e-08
1.87571e-06
-1.87062e-08
1.53685e-06
1.18875e-07
1.49828e-06
2.29084e-06
1.55664e-06
3.25977e-06
1.56407e-06
3.69309e-06
1.56141e-06
3.72389e-06
1.57765e-06
3.99753e-06
1.5922e-06
4.2436e-06
1.59361e-06
4.34675e-06
1.59024e-06
4.4665e-06
1.59209e-06
4.4827e-06
1.62126e-06
4.67497e-06
1.6373e-06
4.7711e-06
1.63858e-06
4.79691e-06
1.59073e-06
4.91291e-06
1.5898e-06
4.7814e-06
1.65732e-06
4.96521e-06
1.65863e-06
5.1467e-06
1.64821e-06
5.12791e-06
1.65869e-06
5.24355e-06
1.69081e-06
5.60974e-06
1.76073e-06
5.958e-06
1.88459e-06
6.58456e-06
2.00203e-06
6.16042e-06
2.00657e-06
6.16457e-06
2.00792e-06
5.91518e-06
2.01095e-06
6.02228e-06
2.0242e-06
5.86135e-06
2.03248e-06
5.94181e-06
2.04644e-06
5.58826e-06
2.0765e-06
5.6131e-06
2.11168e-06
4.80286e-06
2.11717e-06
4.67775e-06
2.12899e-06
2.78079e-06
2.01649e-06
2.48807e-06
1.93131e-06
1.10108e-06
1.7518e-06
1.04595e-06
1.59517e-06
6.96955e-07
1.47137e-06
6.53225e-07
1.36496e-06
4.9628e-07
1.22725e-06
5.17694e-07
1.11185e-06
3.7607e-07
1.044e-06
3.23825e-07
9.77265e-07
3.07473e-07
9.6226e-07
2.25808e-07
8.94661e-07
2.61865e-07
8.18713e-07
2.47572e-07
7.44078e-07
2.37962e-07
6.65062e-07
2.232e-07
6.00225e-07
2.05805e-07
5.36075e-07
1.88593e-07
4.79894e-07
1.77121e-07
4.27668e-07
1.56114e-07
3.59247e-07
1.67537e-07
2.478e-07
1.85681e-07
1.39047e-07
2.89624e-07
6.42431e-08
2.57352e-07
2.32556e-08
3.58806e-07
4.6045e-08
2.99841e-07
6.54144e-08
1.33856e-07
6.5092e-08
1.47298e-07
4.50831e-08
6.63362e-08
-9.24883e-10
1.83617e-07
-1.33481e-08
1.20043e-07
-2.18322e-09
2.7884e-07
1.20945e-08
2.7551e-07
1.07932e-08
1.25773e-07
-2.47902e-08
1.5349e-07
-5.31509e-08
5.76292e-08
-8.78918e-08
7.05819e-08
-1.0659e-07
5.64026e-08
-1.13684e-07
4.86052e-08
-1.18937e-07
4.66625e-08
-1.1472e-07
3.73476e-08
-1.13008e-07
3.84683e-08
-8.58987e-08
1.08217e-08
-7.73838e-08
3.40448e-08
-4.19177e-08
6.20183e-09
1.06586e-08
-2.41838e-09
4.85131e-08
1.63484e-08
7.59914e-08
-9.71161e-08
4.9843e-08
-2.49902e-07
4.89797e-08
-2.48652e-07
4.14382e-08
2.68059e-08
1.41629e-08
2.32179e-08
-3.39435e-08
6.32986e-08
-6.29061e-08
2.88835e-08
-6.88191e-08
2.2404e-08
-6.00872e-08
-8.73193e-09
-4.80997e-08
-1.19311e-08
-3.06314e-08
-1.74684e-08
-2.08073e-08
-1.023e-08
-1.61603e-08
-5.06002e-09
-3.32199e-08
3.08624e-08
-5.89052e-08
2.48993e-08
-7.26314e-08
2.67677e-08
-7.24883e-08
-5.51585e-08
-4.8585e-08
-5.35322e-08
-3.6053e-08
-9.15889e-08
-4.27457e-08
-3.44405e-08
-6.33869e-08
-3.74843e-08
-8.13427e-08
-6.36912e-08
-8.44486e-08
-1.36356e-07
-8.41966e-08
-1.08228e-07
-7.62261e-08
-9.91392e-08
-7.16208e-08
-1.80393e-07
-6.83049e-08
-1.21838e-07
-6.34339e-08
-9.7768e-08
-4.69062e-08
-1.04575e-07
-5.26882e-08
4.39896e-09
-7.59523e-08
-8.65692e-08
-8.10733e-08
-5.33115e-08
-9.60452e-08
-3.0627e-08
-1.14363e-07
-4.50843e-08
-1.36882e-07
-5.0452e-09
-1.50346e-07
-2.58899e-08
-1.58751e-07
-9.79512e-08
-1.68231e-07
-3.62131e-08
-1.55022e-07
-9.60923e-08
-1.42012e-07
-9.35413e-08
-1.54295e-07
1.55873e-08
-1.6897e-07
4.87643e-08
-2.13987e-07
5.51319e-08
-2.90666e-07
7.88165e-08
-3.22758e-07
3.33076e-08
-3.38693e-07
3.3194e-08
-3.63874e-07
-5.53924e-08
-3.71333e-07
-5.73497e-09
-3.93081e-07
3.49493e-09
-4.37983e-07
4.56315e-08
-4.61595e-07
3.84608e-08
-4.99971e-07
4.30541e-08
-6.99175e-07
1.99166e-07
-7.882e-07
8.87185e-08
-8.90689e-07
1.02489e-07
-9.60465e-07
6.97788e-08
-1.00336e-06
4.28867e-08
-1.04406e-06
4.07106e-08
-1.07172e-06
2.76497e-08
-1.07474e-06
3.02923e-09
-1.07629e-06
1.53912e-09
-1.08062e-06
4.33842e-09
-1.07218e-06
-8.44117e-09
-1.07128e-06
-9.01113e-10
-1.07414e-06
2.85789e-09
-1.06174e-06
-1.23969e-08
-1.04928e-06
-1.24608e-08
-1.04435e-06
-4.92882e-09
-1.03091e-06
-1.34373e-08
-1.01613e-06
-1.4782e-08
-1.00845e-06
-7.68475e-09
-9.97508e-07
-1.09408e-08
-9.83483e-07
-1.40272e-08
-9.54026e-07
-2.94556e-08
-9.45943e-07
-8.08464e-09
-9.50246e-07
4.30483e-09
-9.41453e-07
-8.79369e-09
-9.35362e-07
-6.09064e-09
-9.18961e-07
-1.63999e-08
-9.07608e-07
-1.13533e-08
-9.02962e-07
-4.64504e-09
-8.89385e-07
-1.35763e-08
-8.74713e-07
-1.46728e-08
-8.63612e-07
-1.11001e-08
-8.5286e-07
-1.07522e-08
-8.39452e-07
-1.34079e-08
-8.28931e-07
-1.05221e-08
-8.20469e-07
-8.46176e-09
-8.03052e-07
-1.74173e-08
-7.90073e-07
-1.29788e-08
-7.83259e-07
-6.81466e-09
-7.68935e-07
-1.43244e-08
-7.52146e-07
-1.67886e-08
-7.26071e-07
-2.60757e-08
-7.1455e-07
-1.15217e-08
-7.10886e-07
-3.66399e-09
-6.97697e-07
-1.31891e-08
-6.88746e-07
-8.9515e-09
-6.73204e-07
-1.55423e-08
-6.55961e-07
-1.72434e-08
-6.30314e-07
-2.56473e-08
-6.18043e-07
-1.22711e-08
-6.12235e-07
-5.80855e-09
-5.98185e-07
-1.40502e-08
-5.88257e-07
-9.92763e-09
-5.73206e-07
-1.50512e-08
-5.56443e-07
-1.67634e-08
-5.32803e-07
-2.36398e-08
-5.21652e-07
-1.11507e-08
-5.14299e-07
-7.3528e-09
-5.00603e-07
-1.36963e-08
-4.91357e-07
-9.24636e-09
-4.78346e-07
-1.30103e-08
-4.63731e-07
-1.46153e-08
-4.51814e-07
-1.19162e-08
-4.42501e-07
-9.31283e-09
-4.30438e-07
-1.2063e-08
-4.19219e-07
-1.12197e-08
-4.10231e-07
-8.98755e-09
-4.01578e-07
-8.65273e-09
-3.90903e-07
-1.06747e-08
-3.82129e-07
-8.77451e-09
-3.76493e-07
-5.63534e-09
-3.68642e-07
-7.85145e-09
-3.60237e-07
-8.40481e-09
-3.53679e-07
-6.5575e-09
-3.47793e-07
-5.88631e-09
-3.39509e-07
-8.28372e-09
-3.32711e-07
-6.7981e-09
-3.21946e-07
-1.07651e-08
-3.18411e-07
-3.53511e-09
-3.21129e-07
2.71798e-09
-3.15195e-07
-5.93337e-09
-3.12998e-07
-2.19757e-09
-3.0862e-07
-4.37787e-09
-3.02637e-07
-5.98262e-09
-2.9931e-07
-3.32685e-09
-2.97038e-07
-2.27192e-09
-2.91843e-07
-5.1953e-09
-2.85164e-07
-6.67831e-09
-2.80803e-07
-4.36175e-09
-2.76674e-07
-4.12869e-09
-2.69549e-07
-7.12505e-09
-2.60689e-07
-8.85955e-09
-2.53425e-07
-7.26399e-09
-2.46611e-07
-6.81394e-09
-2.37455e-07
-9.1561e-09
-2.25794e-07
-1.16612e-08
-2.1474e-07
-1.10547e-08
-2.05686e-07
-9.05433e-09
-1.95341e-07
-1.0345e-08
-1.81531e-07
-1.38092e-08
-1.66514e-07
-1.5017e-08
-1.56318e-07
-1.01964e-08
-1.4346e-07
-1.2858e-08
-1.28277e-07
-1.51832e-08
-1.17154e-07
-1.11227e-08
-1.07485e-07
-9.66865e-09
-9.42703e-08
-1.32143e-08
-7.90307e-08
-1.52394e-08
-6.81733e-08
-1.08573e-08
-5.89515e-08
-9.22174e-09
-4.60815e-08
-1.287e-08
-3.13485e-08
-1.47329e-08
-2.08455e-08
-1.05031e-08
-1.16776e-08
-9.16794e-09
-2.35836e-09
-9.31934e-09
9.02913e-09
-1.13875e-08
1.84812e-08
-9.45194e-09
2.55472e-08
-7.06597e-09
3.25071e-08
-6.95986e-09
4.14825e-08
-8.97511e-09
4.16398e-08
-1.57514e-10
4.7018e-08
-5.37764e-09
5.8038e-08
-1.10207e-08
6.19416e-08
-3.90307e-09
6.82177e-08
-6.27658e-09
7.18553e-08
-3.63737e-09
7.38392e-08
-1.98394e-09
7.40567e-08
-2.17374e-10
7.86257e-08
-4.56851e-09
7.84777e-08
1.47757e-10
7.39195e-08
4.5587e-09
6.69951e-08
6.92387e-09
6.29005e-08
4.0948e-09
6.03204e-08
2.57963e-09
5.41648e-08
6.15559e-09
4.48371e-08
9.32755e-09
3.76243e-08
7.21262e-09
3.34338e-08
4.1908e-09
2.66083e-08
6.82511e-09
1.84472e-08
8.16136e-09
1.13697e-08
7.07704e-09
7.23837e-09
4.13118e-09
2.2583e-09
4.97962e-09
-1.62028e-09
3.8784e-09
-4.82038e-09
3.19983e-09
-6.13285e-09
1.31237e-09
-5.66106e-09
-4.71794e-10
-1.45013e-09
-4.21092e-09
2.86593e-09
-4.31611e-09
8.61425e-09
-5.7485e-09
1.59342e-08
-7.32022e-09
2.39178e-08
-7.98431e-09
3.78054e-08
-1.38876e-08
5.20243e-08
-1.42203e-08
6.18965e-08
-9.87173e-09
7.23856e-08
-1.04906e-08
8.98556e-08
-1.74691e-08
1.08637e-07
-1.8783e-08
1.21786e-07
-1.31484e-08
1.32839e-07
-1.10539e-08
1.44244e-07
-1.14055e-08
1.59946e-07
-1.57003e-08
1.73016e-07
-1.30717e-08
1.81251e-07
-8.23371e-09
1.83774e-07
-2.52382e-09
1.84521e-07
-7.46821e-10
1.90483e-07
-5.96196e-09
1.92443e-07
-1.95855e-09
1.86434e-07
6.00849e-09
1.74835e-07
1.15999e-08
1.67599e-07
7.23652e-09
1.62229e-07
5.37111e-09
1.51008e-07
1.12207e-08
1.32419e-07
1.85892e-08
1.15987e-07
1.64313e-08
1.05025e-07
1.09621e-08
9.11362e-08
1.3888e-08
7.70937e-08
1.4042e-08
5.88946e-08
1.81988e-08
3.97406e-08
1.91541e-08
2.61474e-08
1.35935e-08
1.49788e-08
1.11692e-08
2.90761e-09
1.20719e-08
-1.10266e-08
1.39347e-08
-2.20836e-08
1.10573e-08
-2.7577e-08
5.49364e-09
-2.77523e-08
1.75408e-10
-3.03837e-08
2.6315e-09
-3.1267e-08
8.83447e-10
-2.80684e-08
-3.19804e-09
-2.05925e-08
-7.4756e-09
-7.34713e-09
-1.32443e-08
4.34285e-09
-1.16894e-08
1.49076e-08
-1.05641e-08
2.78566e-08
-1.29485e-08
4.39257e-08
-1.60691e-08
5.9736e-08
-1.58101e-08
7.10954e-08
-1.13591e-08
8.11995e-08
-1.01039e-08
8.91276e-08
-7.92736e-09
9.23266e-08
-3.19884e-09
9.70888e-08
-4.76183e-09
9.80755e-08
-9.86645e-10
9.5055e-08
3.02038e-09
8.47763e-08
1.02787e-08
7.38193e-08
1.09568e-08
6.38557e-08
9.96368e-09
5.17357e-08
1.21196e-08
3.82023e-08
1.35333e-08
1.50794e-08
2.31223e-08
-9.77725e-09
2.48563e-08
-3.01163e-08
2.03386e-08
-4.70685e-08
1.69518e-08
-6.75348e-08
2.0466e-08
-9.36669e-08
2.61319e-08
-1.15864e-07
2.21964e-08
-1.31137e-07
1.52731e-08
-1.38734e-07
7.59708e-09
-1.49835e-07
1.11012e-08
-1.6867e-07
1.8834e-08
-1.79628e-07
1.0958e-08
-1.80445e-07
8.16593e-10
-1.76145e-07
-4.30042e-09
-1.78904e-07
2.7593e-09
-1.83318e-07
4.41322e-09
-1.79749e-07
-3.56864e-09
-1.70325e-07
-9.42334e-09
-1.66465e-07
-3.86012e-09
-1.69501e-07
3.03887e-09
-1.72445e-07
2.94371e-09
-1.71427e-07
-1.00782e-09
-1.75059e-07
3.62899e-09
-1.90738e-07
1.56841e-08
-1.89046e-07
-1.10874e-08
-2.10827e-07
-1.16545e-10
-2.4217e-07
7.9076e-09
-2.43211e-07
-5.21008e-09
-2.76088e-07
3.05407e-08
-3.02985e-07
2.68373e-08
-3.23366e-07
2.03266e-08
-3.40374e-07
1.64117e-08
-3.64577e-07
2.39858e-08
-3.90713e-07
2.61385e-08
-4.10016e-07
1.93015e-08
-4.15801e-07
5.71991e-09
-4.14289e-07
-1.50568e-09
-4.20853e-07
6.56472e-09
-4.26726e-07
5.8795e-09
-4.22556e-07
-4.17065e-09
-4.05819e-07
-1.67312e-08
-3.84458e-07
-2.1363e-08
-3.69126e-07
-1.53279e-08
-3.55842e-07
-1.329e-08
-3.33214e-07
-2.26266e-08
-3.00518e-07
-3.27053e-08
-2.7237e-07
-2.81489e-08
-2.55705e-07
-1.66766e-08
-2.3153e-07
-2.41774e-08
-2.07786e-07
-2.37554e-08
-1.69451e-07
-3.83385e-08
-1.36036e-07
-3.34265e-08
-1.10493e-07
-2.55464e-08
-7.8849e-08
-3.16544e-08
-3.42045e-08
-4.46494e-08
6.47695e-09
-4.06903e-08
4.30975e-08
-3.66259e-08
7.62744e-08
-3.31833e-08
1.08488e-07
-3.2218e-08
1.48294e-07
-3.98079e-08
1.92072e-07
-4.37802e-08
2.20093e-07
-2.80235e-08
2.393e-07
-1.92103e-08
2.48519e-07
-9.226e-09
2.60636e-07
-1.212e-08
2.76395e-07
-1.57696e-08
2.79152e-07
-2.75371e-09
2.93944e-07
-1.48049e-08
2.96389e-07
-2.43978e-09
2.93701e-07
2.66972e-09
2.95473e-07
-1.76755e-09
2.96601e-07
-1.14822e-09
2.88466e-07
8.13718e-09
2.70566e-07
1.78781e-08
2.59738e-07
1.08237e-08
2.53907e-07
5.80735e-09
2.53766e-07
1.33673e-10
2.46865e-07
6.87678e-09
2.30843e-07
1.60104e-08
2.19955e-07
1.08659e-08
2.11826e-07
8.1119e-09
2.07803e-07
4.00227e-09
2.04441e-07
3.33974e-09
2.09659e-07
-5.23459e-09
2.22326e-07
-1.26901e-08
2.3934e-07
-1.70261e-08
2.59575e-07
-2.02564e-08
3.09441e-07
-4.98715e-08
3.64527e-07
-5.51028e-08
4.16166e-07
-5.16406e-08
4.77208e-07
-6.10529e-08
5.8788e-07
-1.1067e-07
7.00084e-07
-1.1221e-07
7.85124e-07
-8.50338e-08
9.18197e-07
-1.33075e-07
1.06263e-06
-1.44427e-07
1.14987e-06
-8.72374e-08
1.26407e-06
-1.14197e-07
1.3578e-06
-9.37345e-08
1.34642e-06
1.13819e-08
1.26846e-06
7.79523e-08
1.21317e-06
5.52868e-08
1.18028e-06
3.28902e-08
1.06212e-06
1.18152e-07
9.35457e-07
1.26666e-07
8.74325e-07
6.11323e-08
8.39098e-07
3.5225e-08
7.67484e-07
7.16123e-08
7.30872e-07
3.66109e-08
7.35423e-07
-4.55321e-09
6.83706e-07
5.1716e-08
6.55214e-07
2.84917e-08
6.58532e-07
-3.3181e-09
6.26925e-07
3.16076e-08
6.07295e-07
1.96299e-08
6.1259e-07
-5.29604e-09
6.22892e-07
-1.03032e-08
6.31524e-07
-8.63347e-09
6.79437e-07
-4.79145e-08
7.26225e-07
-4.67877e-08
8.06621e-07
-8.03967e-08
9.80537e-07
-1.73914e-07
1.14656e-06
-1.66026e-07
1.18922e-06
-4.2649e-08
1.23623e-06
-4.70096e-08
1.29637e-06
-6.01467e-08
1.15859e-06
1.37781e-07
1.02199e-06
1.36603e-07
9.52667e-07
6.93295e-08
8.75933e-07
7.67372e-08
8.13139e-07
6.27968e-08
7.97157e-07
1.5983e-08
8.5903e-07
-6.18715e-08
8.09803e-07
4.92285e-08
7.75606e-07
3.41965e-08
8.10989e-07
-3.53809e-08
8.01265e-07
9.72528e-09
7.69715e-07
3.15515e-08
7.4716e-07
2.2556e-08
7.45008e-07
2.15386e-09
7.77634e-07
-3.2626e-08
8.1823e-07
-4.05954e-08
8.81945e-07
-6.37156e-08
9.45418e-07
-6.34722e-08
1.08247e-06
-1.3705e-07
1.20044e-06
-1.17976e-07
1.17191e-06
2.85326e-08
1.16426e-06
7.65228e-09
1.19443e-06
-3.01666e-08
1.11867e-06
7.57579e-08
1.00341e-06
1.15258e-07
9.68537e-07
3.4877e-08
9.87799e-07
-1.92612e-08
1.01184e-06
-2.40348e-08
9.6477e-07
4.70647e-08
9.36981e-07
2.77916e-08
9.4962e-07
-1.26395e-08
9.26327e-07
2.32934e-08
9.02273e-07
2.40549e-08
-2.23704e-08
2.77569e-06
1.67067e-06
2.53452e-06
4.98928e-07
2.37328e-06
3.14186e-07
2.17957e-06
3.59973e-07
2.05921e-06
2.43253e-07
1.99757e-06
1.41825e-07
1.948e-06
8.97007e-08
1.88492e-06
9.64586e-08
1.83811e-06
9.41668e-08
1.81138e-06
7.71166e-08
1.78442e-06
4.8941e-08
1.74487e-06
4.88552e-08
1.7184e-06
5.18516e-08
1.70527e-06
5.17571e-08
1.68775e-06
3.43364e-08
1.66384e-06
1.88664e-08
1.64655e-06
3.09691e-08
1.63786e-06
4.19475e-08
1.62427e-06
2.98154e-08
1.60788e-06
8.15217e-09
1.59409e-06
2.13452e-08
1.58415e-06
4.09603e-08
1.57222e-06
2.94723e-08
1.55774e-06
7.71982e-09
1.54508e-06
1.65601e-08
1.53526e-06
3.76558e-08
1.52355e-06
3.14896e-08
1.50931e-06
1.0031e-08
1.49616e-06
1.52018e-08
1.4852e-06
3.72902e-08
1.47231e-06
3.59143e-08
1.45672e-06
1.49419e-08
1.44172e-06
1.68518e-08
1.42808e-06
4.02418e-08
1.41216e-06
4.33835e-08
1.39394e-06
2.2038e-08
1.37487e-06
2.31404e-08
1.35693e-06
4.68076e-08
1.33599e-06
5.46455e-08
1.31137e-06
3.55857e-08
1.28638e-06
3.34658e-08
1.25973e-06
6.18466e-08
1.2286e-06
7.44406e-08
1.19561e-06
5.3848e-08
1.15647e-06
6.00956e-08
1.11654e-06
8.67244e-08
1.06786e-06
1.10259e-07
1.00903e-06
1.0236e-07
9.47804e-07
1.02893e-07
8.6657e-07
1.63542e-07
7.63852e-07
2.09898e-07
6.43678e-07
2.2814e-07
4.51401e-07
3.54188e-07
4.85448e-07
-6.20748e-08
6.16684e-07
-2.40843e-07
6.99737e-07
-1.91315e-07
8.3808e-07
-3.01651e-07
1.0076e-06
-2.94634e-07
1.11013e-06
-1.63097e-07
1.15432e-06
-9.78386e-08
1.15391e-06
-5.61584e-09
1.10266e-06
1.15135e-07
1.17667e-06
-1.41377e-07
1.24252e-06
-1.46451e-07
1.28416e-06
-9.6591e-08
1.34221e-06
-1.02811e-07
1.38677e-06
-7.64335e-08
1.47041e-06
-1.70455e-07
1.5213e-06
-9.31206e-08
1.55258e-06
-3.56977e-08
1.5753e-06
-3.12892e-08
1.59072e-06
-4.73703e-08
1.59414e-06
-1.23826e-08
1.59832e-06
1.28577e-08
1.61e-06
-1.76674e-08
1.61445e-06
-1.51186e-08
1.61656e-06
-6.74475e-09
1.62892e-06
-1.67591e-08
1.63371e-06
-1.06973e-08
1.62739e-06
-2.19528e-08
1.63517e-06
-1.44955e-08
1.65917e-06
-1.86119e-08
1.67194e-06
-2.8906e-08
1.67516e-06
-2.96062e-08
1.68404e-06
-9.56135e-09
1.69748e-06
-3.95056e-09
1.70732e-06
-2.65101e-08
1.70712e-06
-1.28257e-08
1.70604e-06
1.61386e-08
1.71097e-06
2.53326e-09
1.71618e-06
-2.54424e-08
1.71515e-06
-5.20751e-09
1.71619e-06
1.76949e-08
1.72126e-06
-5.97224e-09
1.70678e-06
-3.63824e-10
1.70667e-06
1.57038e-09
1.72944e-06
-1.86822e-08
1.73469e-06
-1.47951e-08
1.73135e-06
-1.44458e-08
1.73384e-06
4.43099e-09
1.74175e-06
8.40849e-10
1.74595e-06
-2.05483e-08
1.74543e-06
-8.17242e-09
1.74986e-06
9.55523e-09
1.75465e-06
-4.27393e-09
1.74428e-06
-8.99666e-09
1.74512e-06
9.47108e-10
1.7636e-06
-1.06186e-08
1.77037e-06
-1.98929e-08
1.76825e-06
-1.16592e-08
1.77108e-06
7.72727e-09
1.77621e-06
3.24016e-10
1.79567e-06
8.2895e-09
1.79844e-06
-6.14683e-09
1.7955e-06
-3.94936e-08
1.80367e-06
-2.0941e-08
1.80096e-06
-1.28129e-08
1.80336e-06
6.89317e-09
1.80902e-06
-4.53273e-10
1.80553e-06
2.69139e-08
1.80926e-06
-5.94986e-09
1.83291e-06
-6.58036e-08
1.84252e-06
-2.46687e-08
1.84301e-06
-1.59806e-08
1.84602e-06
9.26689e-09
1.85454e-06
-9.07802e-09
1.84329e-06
-5.06925e-09
1.83335e-06
2.25421e-08
1.84038e-06
3.611e-09
1.85112e-06
-3.26536e-08
1.86133e-06
-2.82521e-08
1.87852e-06
-2.15534e-08
1.89187e-06
-2.67869e-08
1.8971e-06
-2.80638e-08
1.91101e-06
-1.51446e-08
1.93548e-06
-3.81566e-08
1.93212e-06
-1.25787e-08
1.93414e-06
2.24385e-09
1.94905e-06
-9.20685e-09
1.97755e-06
-7.40652e-09
1.99013e-06
-2.42509e-08
1.99125e-06
-4.6004e-08
2.00307e-06
-2.9923e-08
2.01249e-06
-2.66611e-08
2.02981e-06
-2.18349e-08
2.05045e-06
-4.06889e-08
2.06326e-06
-3.84862e-08
2.0812e-06
-1.93446e-08
2.10238e-06
-3.76818e-08
2.113e-06
-3.95702e-08
2.13126e-06
-2.02901e-08
2.15679e-06
-4.24033e-08
2.16951e-06
-4.69257e-08
2.18979e-06
-2.71199e-08
2.21969e-06
-4.84668e-08
2.23424e-06
-4.898e-08
2.25415e-06
-2.87694e-08
2.28554e-06
-5.04094e-08
2.30514e-06
-5.75303e-08
2.33013e-06
-3.98375e-08
2.35594e-06
-4.145e-08
2.35073e-06
-1.16892e-08
2.34433e-06
1.4998e-08
2.33638e-06
1.08436e-08
2.47226e-06
-3.18981e-07
2.77544e-06
-5.97006e-07
2.86973e-06
-1.45615e-07
2.99597e-06
-2.18888e-07
3.17309e-06
-3.23491e-07
3.41992e-06
-4.2425e-07
3.80268e-06
-7.83812e-07
3.6757e-06
3.40748e-07
3.28209e-06
8.59353e-07
3.03912e-06
3.38564e-07
2.82566e-06
3.00233e-07
2.68914e-06
1.01886e-07
2.56816e-06
4.79721e-08
2.44172e-06
5.23984e-08
2.27805e-06
1.5267e-08
2.0927e-06
8.55793e-08
1.84452e-06
2.72948e-07
1.79329e-06
2.55131e-06
1.7972e-06
4.02064e-06
1.79044e-06
4.8727e-06
1.79589e-06
5.06492e-06
1.82445e-06
5.69504e-06
1.82337e-06
6.19726e-06
1.83248e-06
6.44274e-06
1.82669e-06
6.70899e-06
1.8297e-06
6.79359e-06
1.86631e-06
7.15209e-06
1.87119e-06
7.30288e-06
1.88086e-06
7.36455e-06
1.8709e-06
7.56975e-06
1.86983e-06
7.48892e-06
1.90907e-06
7.74795e-06
1.89784e-06
7.98855e-06
1.89044e-06
7.97763e-06
1.88607e-06
8.17798e-06
1.91851e-06
8.69484e-06
2.06981e-06
9.20638e-06
2.20618e-06
1.02494e-05
2.27337e-06
9.57768e-06
2.2752e-06
9.49574e-06
2.27499e-06
9.12618e-06
2.28501e-06
9.29562e-06
2.29776e-06
9.06667e-06
2.30755e-06
9.21144e-06
2.31597e-06
8.81848e-06
2.34772e-06
8.92744e-06
2.3784e-06
7.9476e-06
2.41273e-06
7.85706e-06
2.42518e-06
5.09008e-06
2.3241e-06
4.62568e-06
2.23562e-06
2.22002e-06
2.05595e-06
2.11764e-06
1.89777e-06
1.42949e-06
1.77387e-06
1.34733e-06
1.66388e-06
1.02667e-06
1.58304e-06
1.01328e-06
1.44956e-06
7.99252e-07
1.36729e-06
6.84503e-07
1.28709e-06
6.55354e-07
1.19344e-06
5.49632e-07
1.10952e-06
5.57294e-07
1.0276e-06
5.17172e-07
9.38815e-07
5.05193e-07
8.54626e-07
4.65017e-07
7.74249e-07
4.40667e-07
7.00636e-07
3.98249e-07
6.30449e-07
3.8115e-07
5.67155e-07
3.3432e-07
5.09424e-07
3.35342e-07
3.89432e-07
3.87744e-07
2.61173e-07
5.12808e-07
1.79278e-07
4.39085e-07
1.49645e-07
6.79183e-07
1.7391e-07
5.76494e-07
1.5235e-07
2.29011e-07
1.45759e-07
2.25491e-07
1.25292e-07
1.39919e-07
5.89847e-08
3.02244e-07
2.7188e-08
2.03055e-07
4.60572e-08
5.2019e-07
8.72009e-08
5.05492e-07
5.51637e-08
1.98057e-07
8.55636e-09
2.3985e-07
-3.36201e-08
1.30373e-07
-8.5502e-08
1.60143e-07
-1.10688e-07
1.21048e-07
-1.23641e-07
1.05195e-07
-1.31845e-07
9.83047e-08
-1.31695e-07
8.06349e-08
-1.32837e-07
8.16514e-08
-1.0903e-07
2.65749e-08
-1.04442e-07
7.30457e-08
-6.87691e-08
1.28251e-08
-2.06808e-08
-1.99603e-09
-4.22127e-09
4.63119e-08
1.78955e-08
-1.16258e-07
1.35282e-08
-2.66937e-07
1.41012e-08
-2.44587e-07
8.98166e-09
5.57561e-08
-2.10067e-08
6.05332e-08
-7.1172e-08
1.27075e-07
-9.81312e-08
5.5679e-08
-1.01054e-07
4.119e-08
-9.30443e-08
-1.67415e-08
-7.71746e-08
-2.78009e-08
-5.03685e-08
-4.4353e-08
-3.68084e-08
-3.84037e-08
-2.60387e-08
-3.42116e-08
-4.37723e-08
6.60516e-08
-7.55611e-08
9.58086e-08
-9.64782e-08
9.88954e-08
-1.10947e-07
1.32702e-08
-9.53829e-08
9.43444e-09
-8.6534e-08
-3.97163e-08
-9.19449e-08
3.48033e-08
-1.07059e-07
3.32259e-08
-1.31277e-07
1.00465e-08
-1.40746e-07
-5.19188e-08
-1.46165e-07
-3.89023e-08
-1.51161e-07
-1.89954e-08
-1.47839e-07
-9.8408e-08
-1.47783e-07
-5.90147e-08
-1.50235e-07
-2.35887e-08
-1.49473e-07
-2.65988e-08
-1.59247e-07
4.09104e-08
-1.69984e-07
6.41921e-10
-1.70068e-07
2.43209e-08
-1.92776e-07
5.87932e-08
-2.16505e-07
6.45109e-08
-2.36324e-07
8.61649e-08
-2.68682e-07
6.44896e-08
-2.81344e-07
-3.22825e-09
-2.85877e-07
3.50242e-08
-2.89714e-07
-3.16824e-08
-2.70531e-07
-2.30794e-08
-2.66269e-07
8.36725e-08
-2.86223e-07
1.53837e-07
-3.21939e-07
1.58449e-07
-3.91195e-07
1.83765e-07
-4.34102e-07
1.18335e-07
-4.43529e-07
1.02396e-07
-4.65451e-07
-3.16568e-09
-4.83619e-07
4.27318e-08
-4.98458e-07
4.96273e-08
-5.40255e-07
1.04279e-07
-5.72923e-07
9.74469e-08
-6.05248e-07
9.35927e-08
-8.11846e-07
2.96071e-07
-9.14017e-07
1.53528e-07
-1.01343e-06
1.69615e-07
-1.0812e-06
1.37565e-07
-1.13565e-06
9.73152e-08
-1.17133e-06
7.64003e-08
-1.19488e-06
5.11934e-08
-1.20818e-06
1.63325e-08
-1.20421e-06
-2.4398e-09
-1.20104e-06
1.18469e-09
-1.20203e-06
-7.46378e-09
-1.1976e-06
-5.31791e-09
-1.19107e-06
-3.67835e-09
-1.18648e-06
-1.69847e-08
-1.17253e-06
-2.64138e-08
-1.15672e-06
-2.07353e-08
-1.1475e-06
-2.26624e-08
-1.13415e-06
-2.81358e-08
-1.11728e-06
-2.45526e-08
-1.1075e-06
-2.07195e-08
-1.09707e-06
-2.44609e-08
-1.08913e-06
-3.73951e-08
-1.07864e-06
-1.85732e-08
-1.0597e-06
-1.46392e-08
-1.04413e-06
-2.43579e-08
-1.03277e-06
-1.74481e-08
-1.02403e-06
-2.51406e-08
-1.0098e-06
-2.55843e-08
-9.9628e-07
-1.81657e-08
-9.86671e-07
-2.3184e-08
-9.73275e-07
-2.80686e-08
-9.56129e-07
-2.8246e-08
-9.44903e-07
-2.19779e-08
-9.33491e-07
-2.48205e-08
-9.16296e-07
-2.77175e-08
-9.03431e-07
-2.13264e-08
-8.9273e-07
-2.81192e-08
-8.77253e-07
-2.84557e-08
-8.62029e-07
-2.20394e-08
-8.50006e-07
-2.6348e-08
-8.3545e-07
-3.13456e-08
-8.23847e-07
-3.76783e-08
-8.09936e-07
-2.54342e-08
-7.89328e-07
-2.42725e-08
-7.72008e-07
-3.05094e-08
-7.5665e-07
-2.431e-08
-7.4394e-07
-2.8253e-08
-7.27362e-07
-3.38226e-08
-7.13672e-07
-3.93375e-08
-6.99418e-07
-2.65253e-08
-6.78648e-07
-2.65795e-08
-6.60583e-07
-3.21151e-08
-6.45021e-07
-2.54895e-08
-6.3206e-07
-2.80125e-08
-6.15828e-07
-3.29957e-08
-6.0196e-07
-3.75075e-08
-5.88317e-07
-2.47934e-08
-5.68655e-07
-2.70147e-08
-5.52189e-07
-3.0163e-08
-5.37427e-07
-2.40075e-08
-5.25176e-07
-2.52611e-08
-5.11634e-07
-2.81571e-08
-4.95239e-07
-2.8311e-08
-4.83246e-07
-2.13061e-08
-4.73919e-07
-2.13899e-08
-4.61808e-07
-2.33302e-08
-4.48428e-07
-2.23676e-08
-4.39264e-07
-1.78165e-08
-4.30496e-07
-1.94426e-08
-4.19403e-07
-1.98678e-08
-4.10509e-07
-1.45289e-08
-4.03903e-07
-1.44577e-08
-3.96362e-07
-1.59458e-08
-3.86608e-07
-1.63106e-08
-3.7937e-07
-1.31249e-08
-3.74076e-07
-1.35775e-08
-3.67458e-07
-1.34157e-08
-3.63163e-07
-1.50601e-08
-3.59248e-07
-7.44955e-09
-3.54211e-07
-2.31948e-09
-3.47111e-07
-1.3033e-08
-3.41624e-07
-7.684e-09
-3.37855e-07
-8.14675e-09
-3.3372e-07
-1.01175e-08
-3.28481e-07
-8.56619e-09
-3.23766e-07
-6.98603e-09
-3.19655e-07
-9.30637e-09
-3.1388e-07
-1.24538e-08
-3.06895e-07
-1.13467e-08
-3.00721e-07
-1.03025e-08
-2.94646e-07
-1.32002e-08
-2.85829e-07
-1.76768e-08
-2.75604e-07
-1.74887e-08
-2.66824e-07
-1.55942e-08
-2.58113e-07
-1.7867e-08
-2.45757e-07
-2.40182e-08
-2.32252e-07
-2.45596e-08
-2.21077e-07
-2.02293e-08
-2.09647e-07
-2.1775e-08
-1.94611e-07
-2.88445e-08
-1.79968e-07
-2.96604e-08
-1.67237e-07
-2.29272e-08
-1.50751e-07
-2.93438e-08
-1.34098e-07
-3.18358e-08
-1.20326e-07
-2.48943e-08
-1.08372e-07
-2.16222e-08
-9.32146e-08
-2.83711e-08
-7.63755e-08
-3.20782e-08
-6.35264e-08
-2.37063e-08
-5.12973e-08
-2.14507e-08
-3.52683e-08
-2.88991e-08
-1.94582e-08
-3.0543e-08
-7.96143e-09
-2.2e-08
3.78266e-09
-2.09121e-08
1.69175e-08
-2.24541e-08
2.98547e-08
-2.43248e-08
3.89688e-08
-1.85658e-08
4.79798e-08
-1.60767e-08
5.83198e-08
-1.73e-08
6.80785e-08
-1.8733e-08
7.77922e-08
-9.87207e-09
8.41131e-08
-1.16974e-08
8.72788e-08
-1.41877e-08
9.12881e-08
-7.9116e-09
9.3445e-08
-8.434e-09
9.66653e-08
-6.85732e-09
1.0167e-07
-6.98836e-09
1.01752e-07
-2.99594e-10
1.01629e-07
-4.44457e-09
9.91819e-08
2.59451e-09
9.62186e-08
7.52261e-09
8.90649e-08
1.40767e-08
8.10662e-08
1.20936e-08
7.5328e-08
8.31723e-09
6.88411e-08
1.26423e-08
5.9075e-08
1.90938e-08
4.92804e-08
1.70066e-08
4.21937e-08
1.1278e-08
3.39527e-08
1.50654e-08
2.50591e-08
1.7055e-08
1.67256e-08
1.54096e-08
1.0828e-08
1.00284e-08
4.35653e-09
1.14504e-08
-5.05813e-10
8.74046e-09
-3.78546e-09
6.47919e-09
-5.68036e-09
3.20717e-09
-5.14538e-09
-1.00682e-09
-7.55e-10
-8.60148e-09
4.29015e-09
-9.36154e-09
1.13196e-08
-1.27788e-08
2.08095e-08
-1.68104e-08
3.20399e-08
-1.92169e-08
4.79515e-08
-2.97986e-08
6.31075e-08
-2.93792e-08
7.59348e-08
-2.26975e-08
9.21845e-08
-2.67434e-08
1.1354e-07
-3.88225e-08
1.33018e-07
-3.82627e-08
1.47561e-07
-2.76914e-08
1.63474e-07
-2.69667e-08
1.80346e-07
-2.82793e-08
1.9596e-07
-3.13118e-08
2.06423e-07
-2.35366e-08
2.1619e-07
-1.79999e-08
2.23909e-07
-1.02433e-08
2.24641e-07
-1.47697e-09
2.24021e-07
-5.34158e-09
2.23141e-07
-1.07671e-09
2.1904e-07
1.01089e-08
2.07326e-07
2.33159e-08
1.95291e-07
1.92709e-08
1.84203e-07
1.64609e-08
1.70515e-07
2.49077e-08
1.51232e-07
3.78722e-08
1.31423e-07
3.62398e-08
1.14824e-07
2.75597e-08
9.66858e-08
3.20259e-08
7.82364e-08
3.24909e-08
5.75207e-08
3.89146e-08
3.71304e-08
3.95449e-08
2.02659e-08
3.04591e-08
3.80804e-09
2.7628e-08
-1.07616e-08
2.66425e-08
-2.49454e-08
2.81193e-08
-3.50624e-08
2.11747e-08
-4.2785e-08
1.32166e-08
-4.63235e-08
3.71408e-09
-4.84672e-08
4.77597e-09
-4.50751e-08
-2.50816e-09
-4.00969e-08
-8.17463e-09