/*--------------------------------*- C++ -*----------------------------------*\
| =========                 |                                                 |
| \\      /  F ield         | OpenFOAM: The Open Source CFD Toolbox           |
|  \\    /   O peration     | Version:  v2012                                 |
|   \\  /    A nd           | Website:  www.openfoam.com                      |
|    \\/     M anipulation  |                                                 |
\*---------------------------------------------------------------------------*/
FoamFile
{
    version     2.0;
    format      ascii;
    class       volScalarField;
    location    "1e-06";
    object      pMean;
}
// * * * * * * * * * * * * * * * * * * * * * * * * * * * * * * * * * * * * * //

dimensions      [1 -1 -2 0 0 0 0];


internalField   nonuniform List<scalar> 
102000
(
4.66369e+07
4.624e+07
4.5982e+07
4.57529e+07
4.54852e+07
4.51876e+07
4.49267e+07
4.47158e+07
4.44709e+07
4.42005e+07
4.39669e+07
4.37691e+07
4.35448e+07
4.33132e+07
4.30754e+07
4.28681e+07
4.26771e+07
4.24685e+07
4.22552e+07
4.20659e+07
4.18947e+07
4.17093e+07
4.15167e+07
4.13485e+07
4.11977e+07
4.10349e+07
4.08653e+07
4.07198e+07
4.05931e+07
4.04557e+07
4.03115e+07
4.01941e+07
4.00965e+07
3.99894e+07
3.98757e+07
3.9791e+07
3.97325e+07
3.96637e+07
3.95867e+07
3.95521e+07
3.9543e+07
3.95287e+07
3.95086e+07
3.9529e+07
3.96055e+07
3.96708e+07
3.97275e+07
3.9888e+07
4.0089e+07
4.03218e+07
4.05874e+07
4.09523e+07
4.15662e+07
4.25151e+07
4.29703e+07
4.31227e+07
4.27052e+07
4.15886e+07
4.08123e+07
4.03506e+07
3.9793e+07
3.94357e+07
3.94154e+07
3.91064e+07
3.87173e+07
3.82231e+07
3.75816e+07
3.69438e+07
3.62837e+07
3.57493e+07
3.52538e+07
3.47797e+07
3.43104e+07
3.38872e+07
3.35025e+07
3.31233e+07
3.27448e+07
3.23941e+07
3.20384e+07
3.1691e+07
3.13214e+07
3.09492e+07
3.05855e+07
3.02169e+07
2.98409e+07
2.94614e+07
2.90952e+07
2.8736e+07
2.839e+07
2.8058e+07
2.77372e+07
2.74201e+07
2.71114e+07
2.68098e+07
2.65181e+07
2.62163e+07
2.5924e+07
2.56395e+07
2.53605e+07
2.508e+07
2.47987e+07
2.45279e+07
2.42648e+07
2.40029e+07
2.37362e+07
2.34839e+07
2.32209e+07
2.29613e+07
2.2713e+07
2.24701e+07
2.22275e+07
2.19808e+07
2.17482e+07
2.1501e+07
2.12601e+07
2.10237e+07
2.07906e+07
2.0557e+07
2.03194e+07
2.00964e+07
1.98524e+07
1.96155e+07
1.93864e+07
1.91602e+07
1.89315e+07
1.87016e+07
1.84809e+07
1.82552e+07
1.80385e+07
1.78332e+07
1.76127e+07
1.73835e+07
1.71469e+07
1.69162e+07
1.66797e+07
1.64321e+07
1.61852e+07
1.59416e+07
1.56947e+07
1.54613e+07
1.52136e+07
1.49646e+07
1.47232e+07
1.44785e+07
1.42272e+07
1.39705e+07
1.37173e+07
1.34605e+07
1.32e+07
1.29432e+07
1.26807e+07
1.24124e+07
1.2148e+07
1.1876e+07
1.15979e+07
1.13234e+07
1.10401e+07
1.07466e+07
1.04541e+07
1.01507e+07
9.83502e+06
9.52492e+06
9.21649e+06
8.90156e+06
8.60316e+06
8.20909e+06
7.64108e+06
7.1339e+06
6.61896e+06
6.02912e+06
5.35165e+06
4.40593e+06
3.51132e+06
2.73812e+06
2.16982e+06
1.62074e+06
1.16112e+06
774388
409121
166065
-12250
-22668.1
-28234.7
-29503.1
-28210.3
-29322.3
-30089.4
-30070.9
-30551.9
-30183.7
-31598.8
-32028.9
-31763.5
-32028.6
-30903.6
-32664.5
-33404.7
-32836.2
-33673.1
-36446.4
-39068.2
-44460.1
-42336
-41834
-39279.2
-39628.6
-37845.4
-38204.5
-36958.4
-37494.9
-35672.5
-35325.8
-25583.6
-22783.8
-10286.9
-9073.77
-5905.19
-6121.47
-4742.43
-4823.89
-3237.63
-3739.41
-3539.84
-3267.37
-2755.03
-2665.49
-2442.23
-2332.69
-2303.22
-2138.99
-2115.04
-1920.3
-1893.89
-1120.2
-2417.69
-2788.76
-317.305
-363.962
-1985.36
-1684.73
-1657.22
-2077.36
-2306.04
-147.626
194.541
-1848.18
-1602.07
-1734.25
-2336.91
-2547.21
-2477.76
-2341.94
-1981.28
-1724.04
-1131.19
-1041.94
-995.399
-197.405
565.628
2008.49
2003.61
2003.13
1913.24
1989.88
1943.87
2177.08
1943.72
5262.02
3232.26
2869.94
2092.08
2068.84
1945.99
1981.8
1933.57
2000.76
2000.41
2001.23
1998.49
2000.81
2000.72
2001.4
2001.08
2001.03
2001.8
2001.18
2000.8
2000.71
3366
2001.01
2000.46
1999.44
1999.29
1996.84
1998.32
2001.01
2000.41
2000.84
2000.9
1994.35
1867.76
1944.8
1972.99
1977.2
1944.74
2006.03
2000.53
2000.77
1992.66
1952.07
1953.69
3184.42
163310
378172
690479
1.01769e+06
1.37421e+06
1.7597e+06
2.14984e+06
2.54068e+06
2.92777e+06
3.30677e+06
3.68229e+06
4.05705e+06
4.42608e+06
4.79035e+06
5.14481e+06
5.48844e+06
5.82712e+06
6.15608e+06
6.47558e+06
6.79172e+06
7.09915e+06
7.39853e+06
7.69769e+06
7.98614e+06
8.2684e+06
8.54939e+06
8.82412e+06
9.09222e+06
9.35832e+06
9.62495e+06
9.88438e+06
1.0137e+07
1.03924e+07
1.064e+07
1.08811e+07
1.11248e+07
1.13622e+07
1.1593e+07
1.18246e+07
1.20593e+07
1.22861e+07
1.25068e+07
1.27332e+07
1.29505e+07
1.31608e+07
1.33747e+07
1.35935e+07
1.3804e+07
1.4007e+07
1.42184e+07
1.44206e+07
1.46153e+07
1.48146e+07
1.50194e+07
1.52162e+07
1.54055e+07
1.56041e+07
1.57938e+07
1.59763e+07
1.61629e+07
1.63542e+07
1.65396e+07
1.67174e+07
1.69e+07
1.70855e+07
1.72656e+07
1.74394e+07
1.76177e+07
1.77917e+07
1.79595e+07
1.8129e+07
1.83001e+07
1.84671e+07
1.86285e+07
1.87906e+07
1.89527e+07
1.91108e+07
1.92646e+07
1.94189e+07
1.95738e+07
1.97214e+07
1.98671e+07
2.00114e+07
2.01519e+07
2.02888e+07
2.04244e+07
2.05596e+07
2.06901e+07
2.08162e+07
2.09426e+07
2.10702e+07
2.11916e+07
2.13076e+07
2.14265e+07
2.15495e+07
2.16647e+07
2.17735e+07
2.18889e+07
2.20107e+07
2.21244e+07
2.22302e+07
2.23493e+07
2.2463e+07
2.25673e+07
2.2682e+07
2.28115e+07
2.29364e+07
2.3053e+07
2.31825e+07
2.33284e+07
2.34697e+07
2.3602e+07
2.37451e+07
2.38987e+07
2.40488e+07
2.41892e+07
2.43372e+07
2.44918e+07
2.46423e+07
2.47876e+07
2.49337e+07
2.50804e+07
2.52275e+07
2.5371e+07
2.55131e+07
2.56524e+07
2.57762e+07
2.58947e+07
2.60051e+07
2.61033e+07
2.61865e+07
2.62725e+07
2.63582e+07
2.64243e+07
2.64722e+07
2.65229e+07
2.65745e+07
2.66051e+07
2.6619e+07
2.66317e+07
2.66497e+07
2.66488e+07
2.66291e+07
2.66026e+07
2.65768e+07
2.65327e+07
2.64823e+07
2.64235e+07
2.63579e+07
2.62897e+07
2.62262e+07
2.61772e+07
2.61114e+07
2.60371e+07
2.59886e+07
2.59662e+07
2.59285e+07
2.58769e+07
2.5847e+07
2.58291e+07
2.58008e+07
2.57518e+07
2.57118e+07
2.56708e+07
2.56189e+07
2.55687e+07
2.55081e+07
2.54285e+07
2.53264e+07
2.52325e+07
2.51408e+07
2.50147e+07
2.48533e+07
2.47065e+07
2.45713e+07
2.43956e+07
2.4189e+07
2.39473e+07
2.37211e+07
2.35097e+07
2.32614e+07
2.29851e+07
2.27159e+07
2.24641e+07
2.21866e+07
2.18989e+07
2.1607e+07
2.13148e+07
2.10201e+07
2.07295e+07
2.04537e+07
2.01531e+07
1.9826e+07
1.95225e+07
1.92398e+07
1.89318e+07
1.85931e+07
1.8272e+07
1.79598e+07
1.76474e+07
1.73395e+07
1.70126e+07
1.66823e+07
1.63369e+07
1.60081e+07
1.57006e+07
1.53674e+07
1.50101e+07
1.46272e+07
1.42904e+07
1.40015e+07
1.36714e+07
1.3314e+07
1.3e+07
1.27391e+07
1.24483e+07
1.21422e+07
1.18278e+07
1.15259e+07
1.12525e+07
1.09711e+07
1.06954e+07
1.04129e+07
1.01302e+07
9.85092e+06
9.57221e+06
9.29147e+06
9.00211e+06
8.70249e+06
8.40547e+06
8.09666e+06
7.8073e+06
7.45833e+06
7.16158e+06
6.85524e+06
6.42843e+06
6.16329e+06
5.97023e+06
5.72965e+06
5.48538e+06
5.31951e+06
5.20695e+06
5.08433e+06
4.98185e+06
4.90359e+06
4.8114e+06
4.72478e+06
4.65811e+06
4.67219e+06
4.72648e+06
4.69596e+06
4.59035e+06
4.55247e+06
4.5778e+06
4.49729e+06
4.30691e+06
4.17595e+06
4.21027e+06
4.32305e+06
4.29996e+06
4.16897e+06
4.18271e+06
4.33781e+06
4.33218e+06
4.18041e+06
4.15918e+06
4.25381e+06
4.46647e+06
4.53108e+06
4.43805e+06
4.49887e+06
4.67492e+06
4.96373e+06
5.25004e+06
5.55802e+06
6.04051e+06
6.40366e+06
6.73864e+06
7.07833e+06
7.45585e+06
7.84779e+06
8.27618e+06
8.74586e+06
9.15359e+06
9.56537e+06
9.85456e+06
1.00389e+07
1.03422e+07
1.07814e+07
1.12344e+07
1.17805e+07
1.24361e+07
1.29592e+07
1.35854e+07
1.42668e+07
1.50755e+07
1.56534e+07
1.61217e+07
1.69191e+07
1.80609e+07
1.85873e+07
1.87405e+07
1.95209e+07
1.94262e+07
1.85338e+07
1.83525e+07
1.73934e+07
1.59975e+07
1.53402e+07
1.50221e+07
1.50174e+07
1.49062e+07
1.46716e+07
1.50379e+07
1.56263e+07
1.55542e+07
1.59146e+07
1.65991e+07
1.6492e+07
1.66833e+07
1.70675e+07
1.67041e+07
1.64583e+07
1.63114e+07
1.56523e+07
1.48057e+07
1.4078e+07
1.28487e+07
1.15982e+07
1.14164e+07
1.06655e+07
9.89743e+06
1.12512e+07
1.2721e+07
1.39283e+07
1.59705e+07
1.8423e+07
2.04578e+07
2.12953e+07
2.2115e+07
2.31165e+07
2.27179e+07
2.24489e+07
2.23594e+07
2.119e+07
1.92647e+07
1.73347e+07
1.54021e+07
1.32553e+07
1.08438e+07
8.4898e+06
6.91612e+06
6.61138e+06
5.94605e+06
5.27507e+06
5.97947e+06
6.73935e+06
7.30002e+06
8.03091e+06
9.00228e+06
9.74564e+06
9.66688e+06
8.55752e+06
7.53766e+06
6.62929e+06
4.83108e+06
2.72811e+06
1.00037e+06
4.66371e+07
4.62401e+07
4.59821e+07
4.57529e+07
4.54852e+07
4.51876e+07
4.49268e+07
4.47158e+07
4.44709e+07
4.42005e+07
4.39669e+07
4.37691e+07
4.35448e+07
4.33132e+07
4.30754e+07
4.28681e+07
4.26771e+07
4.24685e+07
4.22553e+07
4.2066e+07
4.18948e+07
4.17093e+07
4.15167e+07
4.13485e+07
4.11977e+07
4.10349e+07
4.08653e+07
4.07198e+07
4.05932e+07
4.04557e+07
4.03115e+07
4.01942e+07
4.00965e+07
3.99894e+07
3.98757e+07
3.97911e+07
3.97325e+07
3.96637e+07
3.95867e+07
3.95521e+07
3.9543e+07
3.95287e+07
3.95086e+07
3.9529e+07
3.96055e+07
3.96708e+07
3.97274e+07
3.9888e+07
4.0089e+07
4.03217e+07
4.05873e+07
4.09521e+07
4.15659e+07
4.25104e+07
4.2962e+07
4.3114e+07
4.26976e+07
4.15833e+07
4.08091e+07
4.0348e+07
3.97916e+07
3.94348e+07
3.941e+07
3.90994e+07
3.87094e+07
3.82147e+07
3.75754e+07
3.6938e+07
3.62818e+07
3.57483e+07
3.52538e+07
3.47797e+07
3.43105e+07
3.38872e+07
3.35026e+07
3.31234e+07
3.27448e+07
3.23939e+07
3.20383e+07
3.16898e+07
3.13191e+07
3.09466e+07
3.05834e+07
3.0215e+07
2.98385e+07
2.94596e+07
2.90943e+07
2.8736e+07
2.839e+07
2.80581e+07
2.77372e+07
2.74202e+07
2.71115e+07
2.68099e+07
2.65182e+07
2.62164e+07
2.59237e+07
2.56395e+07
2.53605e+07
2.50796e+07
2.47982e+07
2.45279e+07
2.42648e+07
2.40022e+07
2.37359e+07
2.3484e+07
2.32206e+07
2.29608e+07
2.2713e+07
2.24701e+07
2.22269e+07
2.19804e+07
2.17468e+07
2.1501e+07
2.12602e+07
2.10237e+07
2.07907e+07
2.05564e+07
2.0319e+07
2.00952e+07
1.98525e+07
1.96157e+07
1.93865e+07
1.91603e+07
1.89316e+07
1.87017e+07
1.84811e+07
1.82553e+07
1.80369e+07
1.78299e+07
1.76091e+07
1.73792e+07
1.71431e+07
1.69128e+07
1.66751e+07
1.64273e+07
1.61836e+07
1.59395e+07
1.56923e+07
1.54579e+07
1.52122e+07
1.49647e+07
1.4722e+07
1.44776e+07
1.42262e+07
1.39705e+07
1.37176e+07
1.34608e+07
1.32003e+07
1.29436e+07
1.26811e+07
1.24127e+07
1.21483e+07
1.18764e+07
1.15981e+07
1.13237e+07
1.10401e+07
1.07466e+07
1.04541e+07
1.01495e+07
9.83433e+06
9.52423e+06
9.21331e+06
8.89631e+06
8.58531e+06
8.18338e+06
7.62486e+06
7.13393e+06
6.62035e+06
6.03218e+06
5.35774e+06
4.4408e+06
3.56187e+06
2.79691e+06
2.21903e+06
1.68137e+06
1.21007e+06
824999
466410
216662
38353.4
6529.75
-3435.14
-6085.96
-6463.57
-8134.11
-8923.24
-9428.21
-9812.87
-9795.35
-10688.2
-10521.4
-10561.8
-10774.6
-10980.9
-11338.8
-11194.3
-11141.4
-11479
-12128.1
-13477.9
-15337.9
-14090.5
-13403
-12765.3
-12946.8
-12450.5
-12622.8
-12924.1
-13397
-14491.6
-14959.5
-14591.6
-13092.5
-8199.2
-7217.26
-5283.87
-5549.49
-4466.47
-4600.86
-3167.98
-3613.38
-3486.74
-3193.8
-2734.85
-2669.01
-2447.18
-2345.85
-2313.57
-2160.12
-2140.6
-1950.74
-1916.3
-1114.18
-2240.09
-2607.18
-1163.26
-1162.86
-1900.78
-1953.96
-1665.86
-2078.51
-2205.67
-1064.04
-843.826
-1752.32
-1857.94
-1731.84
-2337.95
-2547.91
-2483.01
-2347.94
-1988.78
-1731.93
-1134.51
-1057.42
-1012.39
-240.491
510.933
1991.87
2000.6
1995.86
1926.23
1981.77
1951.4
2180.68
1948.33
5221.32
3208.59
2821.63
2056.95
2013.25
1946.63
1857.58
1810.34
1777.83
1664.92
1769.36
1779.99
1818.14
1814
1626.47
1687.18
1590.8
1521.77
1707.67
1655.73
1616.92
1823.05
1651.7
1647.82
1733.48
1633.6
1691.49
1772.89
1657.57
1742.47
1789.25
1655.06
1741.16
1738.8
1794.39
1906.96
1889.6
1836
1934.79
1920.13
1915.42
1965.37
1939.57
1924.5
2690.61
163132
377806
689972
1.01684e+06
1.37281e+06
1.75825e+06
2.14936e+06
2.54021e+06
2.92722e+06
3.30678e+06
3.68197e+06
4.05641e+06
4.42607e+06
4.79034e+06
5.14441e+06
5.48844e+06
5.82707e+06
6.15579e+06
6.47547e+06
6.7917e+06
7.09917e+06
7.39829e+06
7.69666e+06
7.98578e+06
8.2679e+06
8.54936e+06
8.82383e+06
9.09144e+06
9.35787e+06
9.62454e+06
9.88376e+06
1.01364e+07
1.03919e+07
1.06393e+07
1.08803e+07
1.11244e+07
1.13616e+07
1.15921e+07
1.1824e+07
1.20588e+07
1.22861e+07
1.25062e+07
1.27323e+07
1.295e+07
1.31602e+07
1.33744e+07
1.35933e+07
1.3804e+07
1.40068e+07
1.42176e+07
1.44203e+07
1.46148e+07
1.48143e+07
1.50193e+07
1.52162e+07
1.54052e+07
1.56033e+07
1.57932e+07
1.59756e+07
1.61624e+07
1.63538e+07
1.65391e+07
1.67169e+07
1.68996e+07
1.70852e+07
1.72651e+07
1.7439e+07
1.76174e+07
1.77914e+07
1.79591e+07
1.81287e+07
1.82999e+07
1.84668e+07
1.86282e+07
1.87904e+07
1.89526e+07
1.91108e+07
1.92644e+07
1.94185e+07
1.95731e+07
1.97207e+07
1.98664e+07
2.00107e+07
2.01513e+07
2.02881e+07
2.04238e+07
2.0559e+07
2.06895e+07
2.08156e+07
2.0942e+07
2.10696e+07
2.1191e+07
2.1307e+07
2.1426e+07
2.1549e+07
2.16642e+07
2.1773e+07
2.18884e+07
2.20102e+07
2.2124e+07
2.22297e+07
2.23488e+07
2.24624e+07
2.25668e+07
2.26815e+07
2.28114e+07
2.29364e+07
2.3053e+07
2.31825e+07
2.33284e+07
2.34697e+07
2.3602e+07
2.37451e+07
2.38987e+07
2.40488e+07
2.41892e+07
2.43372e+07
2.44919e+07
2.46423e+07
2.47876e+07
2.49337e+07
2.50804e+07
2.52276e+07
2.5371e+07
2.55131e+07
2.56524e+07
2.57761e+07
2.58947e+07
2.60051e+07
2.61033e+07
2.61865e+07
2.62725e+07
2.63582e+07
2.64243e+07
2.64723e+07
2.65229e+07
2.65745e+07
2.66052e+07
2.66191e+07
2.66318e+07
2.66498e+07
2.66489e+07
2.66292e+07
2.66028e+07
2.65769e+07
2.65328e+07
2.64824e+07
2.64235e+07
2.63579e+07
2.62897e+07
2.62262e+07
2.61772e+07
2.61114e+07
2.60372e+07
2.59889e+07
2.59664e+07
2.59288e+07
2.58769e+07
2.5847e+07
2.58291e+07
2.58008e+07
2.57518e+07
2.57117e+07
2.56707e+07
2.56189e+07
2.55688e+07
2.55082e+07
2.54286e+07
2.53264e+07
2.52325e+07
2.51409e+07
2.50149e+07
2.48534e+07
2.47066e+07
2.45716e+07
2.43958e+07
2.41892e+07
2.39474e+07
2.37211e+07
2.35098e+07
2.32616e+07
2.29852e+07
2.27159e+07
2.24642e+07
2.21867e+07
2.1899e+07
2.1607e+07
2.13148e+07
2.10201e+07
2.07295e+07
2.04537e+07
2.01531e+07
1.9826e+07
1.95224e+07
1.92398e+07
1.89318e+07
1.85931e+07
1.8272e+07
1.79598e+07
1.76474e+07
1.73395e+07
1.70126e+07
1.66823e+07
1.63369e+07
1.60081e+07
1.57007e+07
1.53675e+07
1.50103e+07
1.46272e+07
1.42904e+07
1.40015e+07
1.36715e+07
1.3314e+07
1.3e+07
1.27391e+07
1.24484e+07
1.21423e+07
1.18278e+07
1.15259e+07
1.12525e+07
1.09712e+07
1.06955e+07
1.04129e+07
1.01302e+07
9.8509e+06
9.57225e+06
9.29146e+06
9.00208e+06
8.70246e+06
8.40551e+06
8.09671e+06
7.80736e+06
7.45936e+06
7.1627e+06
6.85659e+06
6.42868e+06
6.16376e+06
5.97024e+06
5.72969e+06
5.48553e+06
5.31952e+06
5.20694e+06
5.08433e+06
4.98186e+06
4.90359e+06
4.81137e+06
4.72475e+06
4.6581e+06
4.67217e+06
4.72648e+06
4.69593e+06
4.59032e+06
4.55241e+06
4.57777e+06
4.49724e+06
4.30675e+06
4.176e+06
4.21021e+06
4.32303e+06
4.29994e+06
4.16895e+06
4.18263e+06
4.33777e+06
4.33218e+06
4.18041e+06
4.15914e+06
4.25369e+06
4.46644e+06
4.53106e+06
4.43802e+06
4.49882e+06
4.6748e+06
4.96367e+06
5.25e+06
5.55758e+06
6.03949e+06
6.40265e+06
6.73766e+06
7.07734e+06
7.45484e+06
7.84679e+06
8.27517e+06
8.74459e+06
9.15231e+06
9.56415e+06
9.85347e+06
1.00384e+07
1.03417e+07
1.07809e+07
1.12338e+07
1.17799e+07
1.24355e+07
1.29586e+07
1.35847e+07
1.42662e+07
1.50751e+07
1.56531e+07
1.61215e+07
1.69187e+07
1.80606e+07
1.85871e+07
1.87404e+07
1.95209e+07
1.94262e+07
1.85338e+07
1.83525e+07
1.73934e+07
1.59975e+07
1.53402e+07
1.50221e+07
1.50174e+07
1.49063e+07
1.46716e+07
1.50379e+07
1.56263e+07
1.55541e+07
1.59146e+07
1.65991e+07
1.64919e+07
1.66833e+07
1.70675e+07
1.67042e+07
1.64584e+07
1.63115e+07
1.56524e+07
1.48058e+07
1.40781e+07
1.28487e+07
1.15982e+07
1.14164e+07
1.06655e+07
9.89738e+06
1.1251e+07
1.27209e+07
1.39279e+07
1.59704e+07
1.84231e+07
2.04578e+07
2.12953e+07
2.2115e+07
2.31165e+07
2.27179e+07
2.2449e+07
2.23596e+07
2.11904e+07
1.92648e+07
1.73349e+07
1.54023e+07
1.32553e+07
1.08438e+07
8.4898e+06
6.91611e+06
6.61138e+06
5.94605e+06
5.27503e+06
5.97931e+06
6.73938e+06
7.29995e+06
8.03079e+06
9.00229e+06
9.7457e+06
9.66694e+06
8.55767e+06
7.53787e+06
6.62974e+06
4.83122e+06
2.72816e+06
1.00052e+06
4.66371e+07
4.62402e+07
4.59823e+07
4.57529e+07
4.54852e+07
4.51877e+07
4.49268e+07
4.47159e+07
4.4471e+07
4.42005e+07
4.3967e+07
4.37691e+07
4.35448e+07
4.33132e+07
4.30754e+07
4.28681e+07
4.26771e+07
4.24685e+07
4.22553e+07
4.2066e+07
4.18948e+07
4.17093e+07
4.15167e+07
4.13486e+07
4.11977e+07
4.10349e+07
4.08653e+07
4.07199e+07
4.05932e+07
4.04557e+07
4.03115e+07
4.01942e+07
4.00965e+07
3.99894e+07
3.98757e+07
3.97911e+07
3.97326e+07
3.96637e+07
3.95867e+07
3.95521e+07
3.9543e+07
3.95287e+07
3.95086e+07
3.9529e+07
3.96055e+07
3.96708e+07
3.97274e+07
3.9888e+07
4.0089e+07
4.03216e+07
4.05871e+07
4.09519e+07
4.15656e+07
4.25079e+07
4.29564e+07
4.31076e+07
4.26904e+07
4.15784e+07
4.08056e+07
4.03452e+07
3.97892e+07
3.94338e+07
3.94059e+07
3.90939e+07
3.87031e+07
3.82078e+07
3.75697e+07
3.69326e+07
3.6279e+07
3.57469e+07
3.52538e+07
3.47797e+07
3.43105e+07
3.38872e+07
3.35026e+07
3.31234e+07
3.27448e+07
3.23939e+07
3.20381e+07
3.1688e+07
3.13166e+07
3.09441e+07
3.05811e+07
3.02127e+07
2.98359e+07
2.94579e+07
2.90933e+07
2.8736e+07
2.839e+07
2.80581e+07
2.77373e+07
2.74202e+07
2.71115e+07
2.68099e+07
2.65182e+07
2.62164e+07
2.59237e+07
2.56396e+07
2.53605e+07
2.50792e+07
2.47979e+07
2.45279e+07
2.42647e+07
2.40015e+07
2.37357e+07
2.3484e+07
2.32203e+07
2.29608e+07
2.27131e+07
2.24701e+07
2.22264e+07
2.19801e+07
2.17464e+07
2.1501e+07
2.12602e+07
2.10237e+07
2.07906e+07
2.05559e+07
2.03187e+07
2.00938e+07
1.98525e+07
1.96157e+07
1.93865e+07
1.91603e+07
1.89316e+07
1.87017e+07
1.8481e+07
1.82553e+07
1.80357e+07
1.78264e+07
1.76053e+07
1.73751e+07
1.71392e+07
1.69089e+07
1.66704e+07
1.64228e+07
1.61815e+07
1.59374e+07
1.56905e+07
1.54562e+07
1.5211e+07
1.49646e+07
1.47212e+07
1.44771e+07
1.4226e+07
1.39706e+07
1.37176e+07
1.34608e+07
1.32003e+07
1.29436e+07
1.2681e+07
1.24127e+07
1.21483e+07
1.18764e+07
1.15981e+07
1.13238e+07
1.10401e+07
1.07466e+07
1.04541e+07
1.01495e+07
9.83433e+06
9.52312e+06
9.20951e+06
8.8876e+06
8.56764e+06
8.15939e+06
7.61285e+06
7.13472e+06
6.62152e+06
6.03475e+06
5.36227e+06
4.45953e+06
3.59641e+06
2.84044e+06
2.25019e+06
1.7222e+06
1.25329e+06
859281
509369
255157
75883.1
37573.8
19654.8
11420.6
7901.88
4767.89
954.774
-686.508
-1362
-2440.64
-2889.79
-2974.73
-3270.3
-3406.47
-4124.48
-4137.89
-4077.26
-4223.16
-4280.79
-4882.73
-5302.09
-5354.39
-4671.12
-3499.82
-3504.82
-3628.12
-3811.96
-3849.68
-4711.92
-5022
-6580.34
-6983.45
-10093.9
-8025.54
-6824.78
-5875.68
-4798.26
-4908.27
-4204.39
-4234.74
-2903.29
-3392.69
-3364.35
-3083.04
-2691.94
-2619.87
-2418.69
-2323.45
-2285.69
-2158.5
-2127.18
-1966.06
-1894.77
-1082.66
-2244.08
-2582.16
-1404.24
-1398.15
-1960.27
-2006.5
-1656.1
-2119.81
-2220.8
-1257.96
-1037.75
-1772.3
-1880.92
-1726.67
-2338.12
-2548.58
-2492.3
-2357.8
-2000.92
-1744.23
-1139.77
-1082.62
-1033.22
-280.005
440.465
1946.98
2001.08
2000.89
1955.82
2000.18
1983.66
2193.47
1959.42
5125.83
3139.39
2737.85
2011.56
2002.32
1968.62
1920.63
1868.24
1832.34
1700.33
1798.56
1811.84
1855.68
1868.53
1674.38
1709.37
1815.23
1563.99
1729.21
1676
1624
1818.17
1689.52
1662.7
1755.89
1687.13
1721.62
1813.96
1710.52
1751.76
1801.25
1678.97
1734.38
1782.44
1839.87
1929.8
1916.55
1850.51
1914.11
1903.06
1900.54
1958.22
1950.72
1938.32
2049.45
162617
377203
688676
1.01521e+06
1.37117e+06
1.75653e+06
2.14772e+06
2.53954e+06
2.92656e+06
3.30655e+06
3.68174e+06
4.05595e+06
4.42604e+06
4.79036e+06
5.1444e+06
5.4884e+06
5.82705e+06
6.15577e+06
6.47543e+06
6.79169e+06
7.09913e+06
7.39828e+06
7.69634e+06
7.98577e+06
8.26764e+06
8.54932e+06
8.82382e+06
9.09092e+06
9.35743e+06
9.62428e+06
9.88351e+06
1.01359e+07
1.03914e+07
1.0639e+07
1.08797e+07
1.1124e+07
1.13612e+07
1.15914e+07
1.18234e+07
1.20584e+07
1.22859e+07
1.25057e+07
1.27318e+07
1.29498e+07
1.31597e+07
1.33741e+07
1.35932e+07
1.38039e+07
1.40065e+07
1.42173e+07
1.44202e+07
1.46144e+07
1.4814e+07
1.50192e+07
1.52162e+07
1.5405e+07
1.56027e+07
1.57928e+07
1.5975e+07
1.61619e+07
1.63535e+07
1.65388e+07
1.67165e+07
1.68992e+07
1.70849e+07
1.72648e+07
1.74387e+07
1.76172e+07
1.77912e+07
1.79588e+07
1.81285e+07
1.82997e+07
1.84667e+07
1.8628e+07
1.87902e+07
1.89525e+07
1.91108e+07
1.92644e+07
1.94183e+07
1.95725e+07
1.97201e+07
1.98658e+07
2.00101e+07
2.01507e+07
2.02875e+07
2.04233e+07
2.05584e+07
2.06889e+07
2.08151e+07
2.09414e+07
2.10691e+07
2.11906e+07
2.13065e+07
2.14255e+07
2.15485e+07
2.16638e+07
2.17726e+07
2.18879e+07
2.20097e+07
2.21236e+07
2.22293e+07
2.23484e+07
2.24619e+07
2.25663e+07
2.2681e+07
2.28114e+07
2.29364e+07
2.3053e+07
2.31825e+07
2.33283e+07
2.34696e+07
2.3602e+07
2.37451e+07
2.38987e+07
2.40487e+07
2.41892e+07
2.43371e+07
2.44918e+07
2.46422e+07
2.47876e+07
2.49337e+07
2.50803e+07
2.52275e+07
2.53709e+07
2.5513e+07
2.56524e+07
2.57761e+07
2.58946e+07
2.60051e+07
2.61033e+07
2.61865e+07
2.62725e+07
2.63582e+07
2.64243e+07
2.64722e+07
2.65229e+07
2.65745e+07
2.66052e+07
2.66191e+07
2.66319e+07
2.66498e+07
2.6649e+07
2.66294e+07
2.6603e+07
2.65771e+07
2.6533e+07
2.64825e+07
2.64237e+07
2.63579e+07
2.62897e+07
2.62261e+07
2.61773e+07
2.61116e+07
2.60374e+07
2.59891e+07
2.59667e+07
2.59291e+07
2.58769e+07
2.5847e+07
2.5829e+07
2.58009e+07
2.57518e+07
2.57118e+07
2.56708e+07
2.5619e+07
2.5569e+07
2.55084e+07
2.54288e+07
2.53264e+07
2.52326e+07
2.51412e+07
2.50151e+07
2.48535e+07
2.47068e+07
2.45719e+07
2.43961e+07
2.41895e+07
2.39475e+07
2.37213e+07
2.351e+07
2.32618e+07
2.29853e+07
2.2716e+07
2.24642e+07
2.21868e+07
2.18991e+07
2.1607e+07
2.13148e+07
2.102e+07
2.07295e+07
2.04537e+07
2.01531e+07
1.9826e+07
1.95224e+07
1.92397e+07
1.89318e+07
1.8593e+07
1.8272e+07
1.79598e+07
1.76474e+07
1.73395e+07
1.70126e+07
1.66824e+07
1.63369e+07
1.60081e+07
1.57008e+07
1.53677e+07
1.50105e+07
1.46272e+07
1.42904e+07
1.40017e+07
1.36717e+07
1.33141e+07
1.3e+07
1.27392e+07
1.24485e+07
1.21424e+07
1.18279e+07
1.15258e+07
1.12525e+07
1.09712e+07
1.06955e+07
1.04128e+07
1.01302e+07
9.85089e+06
9.57224e+06
9.29144e+06
9.00206e+06
8.70244e+06
8.40552e+06
8.09677e+06
7.80758e+06
7.46024e+06
7.16277e+06
6.85705e+06
6.42887e+06
6.16422e+06
5.97026e+06
5.72977e+06
5.48568e+06
5.31952e+06
5.20692e+06
5.08432e+06
4.98183e+06
4.90355e+06
4.81134e+06
4.7247e+06
4.65809e+06
4.67214e+06
4.72647e+06
4.6959e+06
4.59028e+06
4.55234e+06
4.57771e+06
4.49716e+06
4.30659e+06
4.17603e+06
4.21013e+06
4.323e+06
4.29991e+06
4.16891e+06
4.18253e+06
4.33771e+06
4.33214e+06
4.18038e+06
4.15908e+06
4.25354e+06
4.46638e+06
4.53101e+06
4.43797e+06
4.49875e+06
4.67466e+06
4.96359e+06
5.2499e+06
5.5573e+06
6.03883e+06
6.402e+06
6.73702e+06
7.07668e+06
7.45418e+06
7.84617e+06
8.27453e+06
8.74376e+06
9.15147e+06
9.5634e+06
9.85291e+06
1.00381e+07
1.03414e+07
1.07806e+07
1.12335e+07
1.17795e+07
1.24351e+07
1.29582e+07
1.35843e+07
1.42657e+07
1.50748e+07
1.56528e+07
1.61212e+07
1.69183e+07
1.80603e+07
1.85869e+07
1.87402e+07
1.95208e+07
1.94262e+07
1.85338e+07
1.83525e+07
1.73934e+07
1.59975e+07
1.53402e+07
1.50221e+07
1.50175e+07
1.49063e+07
1.46716e+07
1.50379e+07
1.56263e+07
1.55539e+07
1.59146e+07
1.65991e+07
1.64919e+07
1.66833e+07
1.70676e+07
1.67043e+07
1.64585e+07
1.63117e+07
1.56526e+07
1.48059e+07
1.40782e+07
1.28488e+07
1.15982e+07
1.14164e+07
1.06655e+07
9.89732e+06
1.12507e+07
1.27207e+07
1.39269e+07
1.59701e+07
1.84231e+07
2.04578e+07
2.12953e+07
2.2115e+07
2.31166e+07
2.2718e+07
2.24491e+07
2.23598e+07
2.1191e+07
1.9265e+07
1.73351e+07
1.54025e+07
1.32554e+07
1.08438e+07
8.48979e+06
6.91611e+06
6.61145e+06
5.94604e+06
5.27497e+06
5.97907e+06
6.73939e+06
7.29956e+06
8.03053e+06
9.00231e+06
9.74577e+06
9.66704e+06
8.55791e+06
7.53809e+06
6.63049e+06
4.83156e+06
2.72817e+06
1.00069e+06
4.6637e+07
4.62404e+07
4.59825e+07
4.57529e+07
4.54852e+07
4.51877e+07
4.49269e+07
4.47159e+07
4.4471e+07
4.42005e+07
4.3967e+07
4.37691e+07
4.35448e+07
4.33133e+07
4.30754e+07
4.28681e+07
4.26771e+07
4.24685e+07
4.22553e+07
4.2066e+07
4.18948e+07
4.17093e+07
4.15167e+07
4.13486e+07
4.11977e+07
4.10349e+07
4.08653e+07
4.07199e+07
4.05932e+07
4.04557e+07
4.03115e+07
4.01942e+07
4.00966e+07
3.99894e+07
3.98757e+07
3.97911e+07
3.97326e+07
3.96637e+07
3.95867e+07
3.95521e+07
3.9543e+07
3.95287e+07
3.95085e+07
3.9529e+07
3.96055e+07
3.96707e+07
3.97273e+07
3.98879e+07
4.00889e+07
4.03215e+07
4.05869e+07
4.09516e+07
4.1565e+07
4.25032e+07
4.29481e+07
4.30984e+07
4.26819e+07
4.15731e+07
4.08021e+07
4.03421e+07
3.97867e+07
3.94327e+07
3.94005e+07
3.90869e+07
3.86951e+07
3.81993e+07
3.7563e+07
3.69267e+07
3.62782e+07
3.57456e+07
3.52538e+07
3.47798e+07
3.43105e+07
3.38873e+07
3.35026e+07
3.31234e+07
3.27448e+07
3.23939e+07
3.20379e+07
3.16859e+07
3.13139e+07
3.09418e+07
3.05788e+07
3.02102e+07
2.98332e+07
2.94562e+07
2.90925e+07
2.8736e+07
2.839e+07
2.80581e+07
2.77373e+07
2.74202e+07
2.71115e+07
2.68099e+07
2.65182e+07
2.62164e+07
2.59238e+07
2.56396e+07
2.53605e+07
2.50789e+07
2.47978e+07
2.45279e+07
2.42646e+07
2.40012e+07
2.37356e+07
2.34836e+07
2.32202e+07
2.29609e+07
2.27131e+07
2.24701e+07
2.22261e+07
2.19799e+07
2.1745e+07
2.1501e+07
2.12603e+07
2.10237e+07
2.07906e+07
2.05556e+07
2.03185e+07
2.00917e+07
1.98525e+07
1.96158e+07
1.93865e+07
1.91603e+07
1.89316e+07
1.87018e+07
1.8481e+07
1.82553e+07
1.80348e+07
1.78226e+07
1.76016e+07
1.73716e+07
1.71352e+07
1.69049e+07
1.66661e+07
1.64187e+07
1.61789e+07
1.59354e+07
1.56893e+07
1.54535e+07
1.52104e+07
1.49647e+07
1.47206e+07
1.44771e+07
1.42261e+07
1.39706e+07
1.37178e+07
1.34609e+07
1.32004e+07
1.29437e+07
1.26811e+07
1.24128e+07
1.21484e+07
1.18764e+07
1.15983e+07
1.13239e+07
1.10401e+07
1.07467e+07
1.04542e+07
1.01495e+07
9.83433e+06
9.52173e+06
9.20511e+06
8.87661e+06
8.54894e+06
8.13497e+06
7.60536e+06
7.13562e+06
6.62333e+06
6.0386e+06
5.36935e+06
4.4876e+06
3.63925e+06
2.89423e+06
2.29364e+06
1.77151e+06
1.30612e+06
906709
563979
306752
120906
72379.5
48205.9
32264.1
25720.8
20923.3
15646.6
12003.7
9519.38
6350.91
4944.4
4256.07
3113
2286.38
730.881
483.503
624.724
-100.7
-210.07
-537.914
-939.621
-43.1653
1608.58
4733.01
4304.03
3882.22
2736.56
2611.9
305.462
-162.36
-2620.42
-3263.18
-5857.12
-5361.31
-6102.92
-5339.74
-4579.88
-4645.95
-4080.01
-4055.9
-2807.38
-3354.13
-3327.01
-3051.23
-2718.21
-2640.79
-2459.4
-2358.82
-2321.48
-2201.09
-2172.47
-2014.05
-1915.5
-1083.11
-2232.27
-2552.45
-1559.16
-1521.96
-2027.79
-2070.03
-1657.08
-2150.86
-2231.51
-1354.92
-1127.8
-1791.93
-1907.29
-1720.47
-2344.07
-2552.85
-2507.16
-2373.22
-2019.55
-1762.89
-1147.7
-1119.97
-1062.23
-335.996
331.037
1944.88
2000.8
2000.6
1941.23
1998.08
1982.83
2160.04
1969.36
5007.63
3079.08
2663.26
2004.37
2002.47
1965.41
1919.24
1875.74
1830.52
1710.09
1808.04
1804.35
1870.33
1894.57
1689.47
1713.63
1783.87
1590.65
1730.81
1678.93
1664.18
1799.69
1685.08
1677.97
1761.64
1699.7
1735.3
1820.53
1732.94
1743.77
1765.57
1678.33
1724.63
1786.69
1856.35
1932.24
1895.34
1840.92
1853.83
1841.65
1861.66
1928.92
1916.76
1927.84
1999.28
162576
376894
687415
1.01341e+06
1.36939e+06
1.75473e+06
2.14591e+06
2.53851e+06
2.92579e+06
3.30612e+06
3.68154e+06
4.05566e+06
4.42604e+06
4.79039e+06
5.14443e+06
5.48839e+06
5.82706e+06
6.15579e+06
6.47543e+06
6.79169e+06
7.09917e+06
7.39828e+06
7.69605e+06
7.98579e+06
8.26762e+06
8.54931e+06
8.82383e+06
9.09081e+06
9.35726e+06
9.62427e+06
9.88352e+06
1.01357e+07
1.0391e+07
1.0639e+07
1.08794e+07
1.11237e+07
1.13612e+07
1.1591e+07
1.18231e+07
1.20584e+07
1.22859e+07
1.25055e+07
1.27314e+07
1.29498e+07
1.31597e+07
1.3374e+07
1.35932e+07
1.3804e+07
1.40065e+07
1.42171e+07
1.44202e+07
1.46144e+07
1.4814e+07
1.50192e+07
1.52162e+07
1.5405e+07
1.56023e+07
1.57927e+07
1.59747e+07
1.61616e+07
1.63535e+07
1.65388e+07
1.67163e+07
1.68989e+07
1.70849e+07
1.72648e+07
1.74385e+07
1.76172e+07
1.77912e+07
1.79587e+07
1.81284e+07
1.82997e+07
1.84667e+07
1.8628e+07
1.87902e+07
1.89525e+07
1.91108e+07
1.92643e+07
1.94181e+07
1.95718e+07
1.97194e+07
1.98651e+07
2.00095e+07
2.01501e+07
2.02869e+07
2.04226e+07
2.05578e+07
2.06884e+07
2.08145e+07
2.09409e+07
2.10686e+07
2.11901e+07
2.1306e+07
2.1425e+07
2.1548e+07
2.16633e+07
2.17721e+07
2.18875e+07
2.20095e+07
2.21234e+07
2.2229e+07
2.23481e+07
2.24614e+07
2.25658e+07
2.26807e+07
2.28114e+07
2.29364e+07
2.3053e+07
2.31824e+07
2.33283e+07
2.34696e+07
2.3602e+07
2.37451e+07
2.38987e+07
2.40487e+07
2.41892e+07
2.43371e+07
2.44918e+07
2.46422e+07
2.47875e+07
2.49337e+07
2.50803e+07
2.52275e+07
2.53709e+07
2.5513e+07
2.56523e+07
2.57761e+07
2.58946e+07
2.60051e+07
2.61033e+07
2.61865e+07
2.62724e+07
2.63582e+07
2.64243e+07
2.64722e+07
2.65229e+07
2.65745e+07
2.66053e+07
2.66192e+07
2.66319e+07
2.66499e+07
2.66492e+07
2.66296e+07
2.66032e+07
2.65773e+07
2.65332e+07
2.64828e+07
2.64239e+07
2.63581e+07
2.62898e+07
2.62262e+07
2.61777e+07
2.61119e+07
2.60377e+07
2.59893e+07
2.59669e+07
2.59294e+07
2.58771e+07
2.5847e+07
2.58292e+07
2.58011e+07
2.57519e+07
2.57119e+07
2.5671e+07
2.5619e+07
2.55691e+07
2.55087e+07
2.5429e+07
2.53264e+07
2.52326e+07
2.51413e+07
2.50153e+07
2.48535e+07
2.47068e+07
2.45721e+07
2.43963e+07
2.41896e+07
2.39475e+07
2.37213e+07
2.35102e+07
2.32619e+07
2.29854e+07
2.2716e+07
2.24643e+07
2.21868e+07
2.18991e+07
2.16071e+07
2.13148e+07
2.102e+07
2.07295e+07
2.04538e+07
2.01532e+07
1.9826e+07
1.95224e+07
1.92398e+07
1.89319e+07
1.8593e+07
1.8272e+07
1.79597e+07
1.76474e+07
1.73395e+07
1.70126e+07
1.66824e+07
1.63368e+07
1.60081e+07
1.57008e+07
1.53677e+07
1.50108e+07
1.46272e+07
1.42903e+07
1.40017e+07
1.36717e+07
1.33141e+07
1.3e+07
1.27392e+07
1.24485e+07
1.21424e+07
1.18278e+07
1.15258e+07
1.12525e+07
1.09711e+07
1.06955e+07
1.04128e+07
1.01302e+07
9.85088e+06
9.57225e+06
9.29144e+06
9.00204e+06
8.70241e+06
8.40552e+06
8.09684e+06
7.80798e+06
7.46146e+06
7.16303e+06
6.85757e+06
6.4291e+06
6.16472e+06
5.97028e+06
5.72988e+06
5.48583e+06
5.31952e+06
5.2069e+06
5.08429e+06
4.98178e+06
4.90351e+06
4.8113e+06
4.72464e+06
4.65807e+06
4.67214e+06
4.72647e+06
4.69588e+06
4.59026e+06
4.55228e+06
4.57766e+06
4.4971e+06
4.30647e+06
4.17608e+06
4.21011e+06
4.32299e+06
4.29989e+06
4.16888e+06
4.18245e+06
4.33766e+06
4.33212e+06
4.18039e+06