/*--------------------------------*- C++ -*----------------------------------*\
| =========                 |                                                 |
| \\      /  F ield         | OpenFOAM: The Open Source CFD Toolbox           |
|  \\    /   O peration     | Version:  v2012                                 |
|   \\  /    A nd           | Website:  www.openfoam.com                      |
|    \\/     M anipulation  |                                                 |
\*---------------------------------------------------------------------------*/
FoamFile
{
    version     2.0;
    format      ascii;
    class       volScalarField;
    location    "1e-06";
    object      pPrime2Mean;
}
// * * * * * * * * * * * * * * * * * * * * * * * * * * * * * * * * * * * * * //

dimensions      [2 -2 -4 0 0 0 0];


internalField   nonuniform List<scalar> 
102000
(
1.40454e+16
1.38346e+16
1.36678e+16
1.35245e+16
1.33602e+16
1.31816e+16
1.30241e+16
1.28932e+16
1.27465e+16
1.25884e+16
1.24499e+16
1.23303e+16
1.21997e+16
1.20646e+16
1.19286e+16
1.18083e+16
1.16969e+16
1.15783e+16
1.14586e+16
1.13511e+16
1.12529e+16
1.11491e+16
1.10432e+16
1.09493e+16
1.0864e+16
1.07743e+16
1.06828e+16
1.06028e+16
1.05318e+16
1.04572e+16
1.03809e+16
1.0317e+16
1.02625e+16
1.02049e+16
1.01459e+16
1.01002e+16
1.00665e+16
1.00296e+16
9.99132e+15
9.97164e+15
9.96444e+15
9.95626e+15
9.94797e+15
9.95905e+15
9.99489e+15
1.00289e+16
1.00648e+16
1.01461e+16
1.02518e+16
1.0376e+16
1.05232e+16
1.07306e+16
1.10743e+16
1.15612e+16
1.18334e+16
1.19055e+16
1.16545e+16
1.10836e+16
1.06532e+16
1.03785e+16
1.00957e+16
9.91332e+15
9.87195e+15
9.71984e+15
9.51667e+15
9.26082e+15
8.94183e+15
8.62551e+15
8.30956e+15
8.05168e+15
7.81583e+15
7.59439e+15
7.38178e+15
7.19027e+15
7.01655e+15
6.84868e+15
6.68493e+15
6.53184e+15
6.38034e+15
6.23364e+15
6.07995e+15
5.92642e+15
5.77805e+15
5.63031e+15
5.48157e+15
5.33309e+15
5.19151e+15
5.05507e+15
4.92523e+15
4.80173e+15
4.68373e+15
4.56905e+15
4.45851e+15
4.35171e+15
4.24885e+15
4.14516e+15
4.04517e+15
3.94899e+15
3.85571e+15
3.76332e+15
3.67178e+15
3.58435e+15
3.50042e+15
3.41789e+15
3.33519e+15
3.25675e+15
3.17714e+15
3.09925e+15
3.02528e+15
2.95369e+15
2.88321e+15
2.8127e+15
2.74602e+15
2.6769e+15
2.61019e+15
2.54537e+15
2.48212e+15
2.41963e+15
2.3573e+15
2.29844e+15
2.23595e+15
2.17594e+15
2.11834e+15
2.06211e+15
2.00624e+15
1.951e+15
1.89803e+15
1.84514e+15
1.79502e+15
1.74751e+15
1.69763e+15
1.64666e+15
1.59509e+15
1.54503e+15
1.49482e+15
1.44341e+15
1.39257e+15
1.34347e+15
1.29494e+15
1.24915e+15
1.20185e+15
1.15549e+15
1.11104e+15
1.06682e+15
1.0225e+15
9.78289e+14
9.35362e+14
8.92911e+14
8.51013e+14
8.10365e+14
7.70013e+14
7.3e+14
6.91238e+14
6.52654e+14
6.14458e+14
5.77523e+14
5.40725e+14
5.04092e+14
4.68516e+14
4.33166e+14
3.98043e+14
3.64741e+14
3.33074e+14
3.02551e+14
2.7383e+14
2.39303e+14
1.96382e+14
1.59823e+14
1.27301e+14
9.52362e+13
6.42968e+13
3.46895e+13
1.80907e+13
1.8602e+13
1.00296e+13
6.59551e+12
4.92374e+12
1.6174e+12
9.06302e+11
1.41403e+11
3.41588e+08
1.07666e+08
5.49414e+07
4.00256e+07
3.02227e+07
2.57599e+07
2.18823e+07
1.96071e+07
1.93452e+07
1.77735e+07
1.88128e+07
1.94118e+07
1.86315e+07
1.88661e+07
1.66243e+07
1.87058e+07
1.97909e+07
1.87486e+07
1.97558e+07
2.30351e+07
2.53128e+07
3.37233e+07
3.3464e+07
3.59285e+07
3.07469e+07
3.11068e+07
2.72943e+07
2.82562e+07
2.8258e+07
2.99165e+07
3.43103e+07
3.57338e+07
2.30867e+07
2.34237e+07
2.28446e+06
2.65726e+06
484144
731517
202027
299481
76151.8
154351
60494.2
66292.6
2303.52
1516.11
614.594
1686.74
528.289
10944.2
7623.18
27190
168.509
23358.8
22330.6
93858.6
545353
401358
120807
105267
19868.7
29519.2
10317.5
794892
774287
24362
38945
5092.45
59379.3
120068
52894.1
34197.4
56657.1
32998.9
144592
375287
168417
638197
565981
4.61806
0.0706031
0.071627
276.376
169.792
8.72711
95376.4
0.0959007
4.921e+07
9.74213e+06
3.66246e+06
24118.6
5899.87
51.3883
254.801
276.785
0.00986072
0.00965477
0.05453
30.4136
0.20555
0.130153
0.138012
0.0483088
0.00637196
0.150881
0.0523562
0.0795117
0.107722
2405.05
0.101516
0.0442822
5.8383
10.7405
79.2957
26.6708
0.149741
0.0154829
0.0272511
0.0457503
14.5716
740.039
467.075
320.982
283.723
46.0014
0.103682
0.00804743
0.00973134
28.3817
65.8601
508.759
1.26097e+06
3.71554e+10
1.54977e+11
4.29808e+11
1.57964e+12
3.79434e+12
7.47591e+12
1.27734e+13
1.97802e+13
2.84946e+13
3.87828e+13
5.07179e+13
6.43678e+13
7.95184e+13
9.60946e+13
1.13801e+14
1.32456e+14
1.5217e+14
1.72677e+14
1.93882e+14
2.15969e+14
2.38626e+14
2.61829e+14
2.85931e+14
3.10219e+14
3.34991e+14
3.60422e+14
3.86219e+14
4.12313e+14
4.38973e+14
4.66396e+14
4.9397e+14
5.21678e+14
5.50158e+14
5.78607e+14
6.07112e+14
6.36306e+14
6.65496e+14
6.94652e+14
7.24389e+14
7.54984e+14
7.85293e+14
8.15573e+14
8.46757e+14
8.77404e+14
9.07771e+14
9.39021e+14
9.71291e+14
1.00308e+15
1.03443e+15
1.06703e+15
1.09888e+15
1.13023e+15
1.16251e+15
1.19594e+15
1.2287e+15
1.26091e+15
1.29448e+15
1.32717e+15
1.35923e+15
1.39217e+15
1.42609e+15
1.45954e+15
1.4922e+15
1.52581e+15
1.56018e+15
1.59406e+15
1.62727e+15
1.66123e+15
1.69481e+15
1.72767e+15
1.76094e+15
1.79473e+15
1.82806e+15
1.86067e+15
1.89349e+15
1.9265e+15
1.95895e+15
1.99079e+15
2.02283e+15
2.05512e+15
2.08617e+15
2.11687e+15
2.14734e+15
2.17718e+15
2.20639e+15
2.23544e+15
2.26436e+15
2.29245e+15
2.31974e+15
2.34711e+15
2.37463e+15
2.40099e+15
2.42634e+15
2.45231e+15
2.47899e+15
2.50423e+15
2.52833e+15
2.5538e+15
2.58053e+15
2.60585e+15
2.62989e+15
2.65609e+15
2.68157e+15
2.70546e+15
2.73166e+15
2.76104e+15
2.79009e+15
2.81804e+15
2.8489e+15
2.88334e+15
2.91757e+15
2.95061e+15
2.98593e+15
3.02383e+15
3.06137e+15
3.09727e+15
3.13482e+15
3.17418e+15
3.21292e+15
3.25063e+15
3.28851e+15
3.32673e+15
3.36513e+15
3.40282e+15
3.44003e+15
3.4761e+15
3.50831e+15
3.53842e+15
3.56592e+15
3.58969e+15
3.60951e+15
3.62928e+15
3.64822e+15
3.66181e+15
3.67034e+15
3.67862e+15
3.68621e+15
3.68818e+15
3.6852e+15
3.68123e+15
3.6774e+15
3.66861e+15
3.65432e+15
3.63752e+15
3.61944e+15
3.59719e+15
3.57214e+15
3.54458e+15
3.51503e+15
3.48484e+15
3.4562e+15
3.4302e+15
3.40087e+15
3.37009e+15
3.34569e+15
3.3275e+15
3.30646e+15
3.28266e+15
3.26347e+15
3.24727e+15
3.22842e+15
3.20486e+15
3.18237e+15
3.15955e+15
3.13432e+15
3.10864e+15
3.07998e+15
3.04608e+15
3.00712e+15
2.96919e+15
2.93076e+15
2.88425e+15
2.8301e+15
2.77827e+15
2.72806e+15
2.66958e+15
2.60291e+15
2.52974e+15
2.4595e+15
2.39194e+15
2.31823e+15
2.24011e+15
2.16361e+15
2.09053e+15
2.0149e+15
1.93786e+15
1.86126e+15
1.78582e+15
1.71165e+15
1.63981e+15
1.57085e+15
1.49962e+15
1.42669e+15
1.35815e+15
1.294e+15
1.228e+15
1.15962e+15
1.09489e+15
1.03355e+15
9.74314e+14
9.17182e+14
8.59717e+14
8.03302e+14
7.47633e+14
6.95805e+14
6.47945e+14
5.99704e+14
5.5071e+14
5.03015e+14
4.6123e+14
4.25183e+14
3.88642e+14
3.52414e+14
3.21291e+14
2.95343e+14
2.69748e+14
2.44708e+14
2.21173e+14
2.00278e+14
1.82476e+14
1.66208e+14
1.51683e+14
1.38559e+14
1.27034e+14
1.17238e+14
1.09084e+14
1.02552e+14
9.76108e+13
9.44808e+13
9.351e+13
9.51471e+13
1.00521e+14
1.1743e+14
1.21429e+14
1.33612e+14
1.74367e+14
1.56698e+14
1.30826e+14
1.20903e+14
1.15957e+14
1.00076e+14
8.61436e+13
7.363e+13
6.2568e+13
5.29948e+13
4.52977e+13
3.93195e+13
3.48752e+13
2.77896e+13
2.29336e+13
1.97259e+13
1.74036e+13
1.57437e+13
1.48734e+13
1.4123e+13
1.38664e+13
1.7627e+13
1.22141e+13
1.14065e+13
1.07686e+13
9.50728e+12
9.36424e+12
1.05394e+13
1.02586e+13
8.31527e+12
7.39214e+12
7.73675e+12
9.00716e+12
8.39819e+12
6.00468e+12
4.92096e+12
4.98363e+12
6.04084e+12
7.3374e+12
9.16553e+12
1.32461e+13
1.60424e+13
1.83578e+13
2.09578e+13
2.47296e+13
2.9659e+13
3.64923e+13
4.58992e+13
5.54743e+13
6.64847e+13
7.50528e+13
8.15431e+13
9.43733e+13
1.16098e+14
1.43641e+14
1.81326e+14
2.30479e+14
2.79391e+14
3.39911e+14
4.12218e+14
4.97742e+14
5.68261e+14
6.3115e+14
7.32056e+14
8.71263e+14
9.45443e+14
9.75453e+14
1.05931e+15
1.03752e+15
9.2231e+14
8.71242e+14
7.4544e+14
5.95294e+14
5.252e+14
5.01766e+14
5.09926e+14
5.12474e+14
5.10502e+14
5.62543e+14
6.38637e+14
6.63957e+14
7.27473e+14
8.21523e+14
8.44273e+14
8.90139e+14
9.49483e+14
9.27061e+14
9.06495e+14
8.89345e+14
8.11992e+14
7.11747e+14
6.19131e+14
4.90079e+14
3.81916e+14
3.54592e+14
3.01032e+14
2.67524e+14
3.78755e+14
5.52359e+14
7.47949e+14
1.08038e+15
1.55018e+15
2.01056e+15
2.27959e+15
2.52278e+15
2.77182e+15
2.74928e+15
2.70986e+15
2.67041e+15
2.39902e+15
1.97591e+15
1.57059e+15
1.20504e+15
8.59199e+14
5.44293e+14
3.11247e+14
1.94102e+14
1.65377e+14
1.32573e+14
1.09852e+14
1.48369e+14
2.07056e+14
2.66091e+14
3.43837e+14
4.50767e+14
5.42862e+14
5.43372e+14
4.42587e+14
3.47345e+14
2.60405e+14
1.41241e+14
4.58389e+13
5.21019e+12
1.40454e+16
1.38347e+16
1.36679e+16
1.35246e+16
1.33602e+16
1.31816e+16
1.30242e+16
1.28932e+16
1.27466e+16
1.25884e+16
1.24499e+16
1.23303e+16
1.21997e+16
1.20646e+16
1.19286e+16
1.18083e+16
1.16969e+16
1.15783e+16
1.14586e+16
1.13511e+16
1.12529e+16
1.11491e+16
1.10432e+16
1.09493e+16
1.0864e+16
1.07743e+16
1.06828e+16
1.06028e+16
1.05318e+16
1.04572e+16
1.03809e+16
1.0317e+16
1.02625e+16
1.02049e+16
1.01459e+16
1.01002e+16
1.00665e+16
1.00296e+16
9.99132e+15
9.97165e+15
9.96444e+15
9.95626e+15
9.94796e+15
9.95905e+15
9.99489e+15
1.00289e+16
1.00648e+16
1.01461e+16
1.02518e+16
1.03759e+16
1.05232e+16
1.07305e+16
1.10741e+16
1.15598e+16
1.18305e+16
1.19021e+16
1.16509e+16
1.10809e+16
1.06515e+16
1.03771e+16
1.0095e+16
9.91287e+15
9.86995e+15
9.71708e+15
9.51349e+15
9.25741e+15
8.93906e+15
8.62291e+15
8.30866e+15
8.05119e+15
7.81583e+15
7.59439e+15
7.38178e+15
7.19027e+15
7.01655e+15
6.84868e+15
6.68493e+15
6.53179e+15
6.38029e+15
6.23315e+15
6.07902e+15
5.92537e+15
5.77723e+15
5.62959e+15
5.48065e+15
5.33243e+15
5.19119e+15
5.05507e+15
4.92523e+15
4.80173e+15
4.68373e+15
4.56905e+15
4.45851e+15
4.35171e+15
4.24885e+15
4.14516e+15
4.04509e+15
3.94899e+15
3.85571e+15
3.76318e+15
3.67164e+15
3.58435e+15
3.50042e+15
3.41769e+15
3.33512e+15
3.25675e+15
3.17706e+15
3.09912e+15
3.02528e+15
2.95369e+15
2.88304e+15
2.81258e+15
2.74567e+15
2.67689e+15
2.61019e+15
2.54537e+15
2.48212e+15
2.41948e+15
2.35719e+15
2.29815e+15
2.23595e+15
2.17593e+15
2.11833e+15
2.06211e+15
2.00624e+15
1.951e+15
1.89803e+15
1.84514e+15
1.79468e+15
1.74678e+15
1.69686e+15
1.64576e+15
1.5943e+15
1.54434e+15
1.49389e+15
1.44246e+15
1.39226e+15
1.34307e+15
1.29448e+15
1.24852e+15
1.2016e+15
1.15549e+15
1.11084e+15
1.06667e+15
1.02233e+15
9.78289e+14
9.35362e+14
8.92907e+14
8.51011e+14
8.10361e+14
7.7001e+14
7.29997e+14
6.91235e+14
6.52651e+14
6.14458e+14
5.77522e+14
5.40726e+14
5.04093e+14
4.68517e+14
4.33041e+14
3.9798e+14
3.64677e+14
3.32782e+14
3.02079e+14
2.72395e+14
2.37397e+14
1.952e+14
1.59824e+14
1.27308e+14
9.52593e+13
6.43927e+13
3.52226e+13
1.85713e+13
1.75882e+13
1.04555e+13
6.51938e+12
5.1283e+12
1.78987e+12
8.53577e+11
1.88699e+11
4.34821e+09
5.33981e+08
2.09864e+07
1.33994e+07
6.81751e+06
2.9114e+06
1.56206e+06
1.71679e+06
1.97571e+06
2.38564e+06
2.55302e+06
2.96805e+06
3.00947e+06
3.10267e+06
2.91292e+06
3.4114e+06
3.86763e+06
3.73177e+06
3.91109e+06
5.10053e+06
5.43078e+06
7.00115e+06
6.44567e+06
5.43721e+06
4.56168e+06
4.64079e+06
4.42339e+06
4.53229e+06
4.61312e+06
4.80518e+06
4.05774e+06
3.8256e+06
1.00409e+06
610665
46343
62846.2
15932.6
80998
19019.3
78978.8
23398.2
38021
20016.3
14910.5
178.844
181.275
1623.04
2201.51
1012.48
9153.67
6236.42
20327.9
132.349
31315.3
17734.2
78498.7
156765
113257
73180.4
55897.2
21525.8
19004.8
12043.4
199413
201128
15747.7
23150.9
5198.26
60066.9
121979
53720.4
34377.4
51594.9
28816.9
138706
348776
152117
584973
516088
656.098
0.0435748
92.1442
74.342
62.1926
15.0518
102974
0.128724
4.78422e+07
9.31355e+06
3.24246e+06
7131.77
10.3574
5.39148
0.613901
3.93854
52.1233
14.8716
524.492
1019.27
1048.3
1761.98
3640.77
2076.2
2287.05
4211.24
2662.62
3115.8
2719.1
680.548
2996.29
1413.72
1245.97
1484.86
276.389
668.285
1839.97
718.407
1523.36
933.809
6.37725
85.1591
16.3397
81.5478
71.5306
3.91947
226.241
4.32604
1.12197
54.484
28.5003
356.476
537294
3.75022e+10
1.56328e+11
4.28594e+11
1.57516e+12
3.78082e+12
7.45529e+12
1.27638e+13
1.97694e+13
2.84799e+13
3.8783e+13
5.07084e+13
6.43454e+13
7.95188e+13
9.60951e+13
1.13784e+14
1.32457e+14
1.52171e+14
1.72665e+14
1.93879e+14
2.15969e+14
2.38627e+14
2.61814e+14
2.85851e+14
3.10193e+14
3.34951e+14
3.60421e+14
3.86197e+14
4.12241e+14
4.38932e+14
4.66358e+14
4.93909e+14
5.21618e+14
5.50102e+14
5.78532e+14
6.07025e+14
6.36262e+14
6.65428e+14
6.94542e+14
7.24318e+14
7.5493e+14
7.85293e+14
8.15504e+14
8.46633e+14
8.77348e+14
9.07696e+14
9.38986e+14
9.71269e+14
1.00308e+15
1.0344e+15
1.06692e+15
1.09883e+15
1.13016e+15
1.16247e+15
1.19592e+15
1.2287e+15
1.26087e+15
1.29433e+15
1.32708e+15
1.35911e+15
1.39208e+15
1.42602e+15
1.45945e+15
1.4921e+15
1.52574e+15
1.56012e+15
1.59398e+15
1.6272e+15
1.66119e+15
1.69475e+15
1.72759e+15
1.76089e+15
1.79469e+15
1.82801e+15
1.86062e+15
1.89345e+15
1.92647e+15
1.95895e+15
1.99077e+15
2.02275e+15
2.05498e+15
2.08603e+15
2.11673e+15
2.1472e+15
2.17705e+15
2.20626e+15
2.23531e+15
2.26424e+15
2.29232e+15
2.31962e+15
2.34699e+15
2.37451e+15
2.40088e+15
2.42623e+15
2.4522e+15
2.47887e+15
2.50413e+15
2.52823e+15
2.55369e+15
2.58043e+15
2.60575e+15
2.62979e+15
2.65598e+15
2.68145e+15
2.70535e+15
2.73153e+15
2.76102e+15
2.79009e+15
2.81805e+15
2.8489e+15
2.88334e+15
2.91757e+15
2.95062e+15
2.98593e+15
3.02383e+15
3.06137e+15
3.09727e+15
3.13482e+15
3.17418e+15
3.21292e+15
3.25063e+15
3.28852e+15
3.32673e+15
3.36513e+15
3.40282e+15
3.44003e+15
3.4761e+15
3.50831e+15
3.53842e+15
3.56592e+15
3.58969e+15
3.60951e+15
3.62928e+15
3.64822e+15
3.66181e+15
3.67034e+15
3.67862e+15
3.68622e+15
3.68819e+15
3.68522e+15
3.68125e+15
3.67743e+15
3.66865e+15
3.65436e+15
3.63756e+15
3.61949e+15
3.59721e+15
3.57217e+15
3.5446e+15
3.51503e+15
3.48484e+15
3.4562e+15
3.43022e+15
3.4009e+15
3.37013e+15
3.34576e+15
3.32757e+15
3.30654e+15
3.28266e+15
3.26347e+15
3.24727e+15
3.22843e+15
3.20487e+15
3.18238e+15
3.15955e+15
3.13433e+15
3.10868e+15
3.08002e+15
3.04611e+15
3.00713e+15
2.9692e+15
2.9308e+15
2.88429e+15
2.83012e+15
2.77829e+15
2.72812e+15
2.66963e+15
2.60296e+15
2.52976e+15
2.45952e+15
2.39198e+15
2.31827e+15
2.24013e+15
2.16362e+15
2.09054e+15
2.01492e+15
1.93787e+15
1.86126e+15
1.78582e+15
1.71165e+15
1.63981e+15
1.57085e+15
1.49962e+15
1.42669e+15
1.35815e+15
1.294e+15
1.228e+15
1.15962e+15
1.09489e+15
1.03355e+15
9.74314e+14
9.17182e+14
8.59719e+14
8.03307e+14
7.47633e+14
6.95805e+14
6.47953e+14
5.99717e+14
5.50732e+14
5.03015e+14
4.61231e+14
4.25192e+14
3.88653e+14
3.52419e+14
3.21291e+14
2.95346e+14
2.69754e+14
2.44716e+14
2.21175e+14
2.00278e+14
1.82476e+14
1.6621e+14
1.51685e+14
1.38559e+14
1.27034e+14
1.17238e+14
1.09084e+14
1.02552e+14
9.76102e+13
9.44802e+13
9.35098e+13
9.51465e+13
1.00518e+14
1.1723e+14
1.21442e+14
1.33614e+14
1.74301e+14
1.56654e+14
1.30824e+14
1.20902e+14
1.15953e+14
1.00076e+14
8.61437e+13
7.363e+13
6.2568e+13
5.29948e+13
4.52976e+13
3.93194e+13
3.48755e+13
2.77897e+13
2.29336e+13
1.97257e+13
1.74035e+13
1.57433e+13
1.48731e+13
1.41224e+13
1.38641e+13
1.76285e+13
1.22139e+13
1.14065e+13
1.07686e+13
9.50721e+12
9.36375e+12
1.05392e+13
1.02585e+13
8.31539e+12
7.39212e+12
7.73585e+12
9.00721e+12
8.39827e+12
6.00472e+12
4.92095e+12
4.98288e+12
6.04069e+12
7.33714e+12
9.16175e+12
1.32347e+13
1.60304e+13
1.83453e+13
2.09443e+13
2.47146e+13
2.96424e+13
3.64733e+13
4.58716e+13
5.54434e+13
6.64524e+13
7.5023e+13
8.15282e+13
9.43561e+13
1.16077e+14
1.43617e+14
1.81295e+14
2.30444e+14
2.79353e+14
3.39863e+14
4.12164e+14
4.97709e+14
5.68235e+14
6.31121e+14
7.32014e+14
8.71228e+14
9.45424e+14
9.75432e+14
1.05931e+15
1.03752e+15
9.22309e+14
8.71242e+14
7.4544e+14
5.95294e+14
5.252e+14
5.01766e+14
5.09927e+14
5.12475e+14
5.10502e+14
5.62543e+14
6.38637e+14
6.63948e+14
7.27473e+14
8.21523e+14
8.4427e+14
8.90139e+14
9.49485e+14
9.27067e+14
9.06505e+14
8.89361e+14
8.12005e+14
7.11757e+14
6.19138e+14
4.9008e+14
3.81916e+14
3.54592e+14
3.01032e+14
2.6752e+14
3.78732e+14
5.52347e+14
7.47883e+14
1.08036e+15
1.55018e+15
2.01056e+15
2.27959e+15
2.52278e+15
2.77183e+15
2.74928e+15
2.70988e+15
2.67045e+15
2.3991e+15
1.97593e+15
1.57062e+15
1.20506e+15
8.59199e+14
5.44293e+14
3.11247e+14
1.94102e+14
1.65377e+14
1.32573e+14
1.09851e+14
1.48359e+14
2.07056e+14
2.66081e+14
3.43824e+14
4.50767e+14
5.42865e+14
5.43375e+14
4.42594e+14
3.47363e+14
2.6044e+14
1.41246e+14
4.58396e+13
5.21149e+12
1.40454e+16
1.38348e+16
1.3668e+16
1.35246e+16
1.33602e+16
1.31816e+16
1.30242e+16
1.28932e+16
1.27466e+16
1.25884e+16
1.24499e+16
1.23303e+16
1.21997e+16
1.20646e+16
1.19286e+16
1.18083e+16
1.16969e+16
1.15783e+16
1.14586e+16
1.13512e+16
1.12529e+16
1.11491e+16
1.10432e+16
1.09493e+16
1.0864e+16
1.07743e+16
1.06828e+16
1.06028e+16
1.05319e+16
1.04572e+16
1.03809e+16
1.0317e+16
1.02625e+16
1.02049e+16
1.01459e+16
1.01003e+16
1.00665e+16
1.00296e+16
9.99132e+15
9.97165e+15
9.96445e+15
9.95626e+15
9.94796e+15
9.95905e+15
9.99489e+15
1.00288e+16
1.00648e+16
1.0146e+16
1.02518e+16
1.03759e+16
1.05231e+16
1.07304e+16
1.10739e+16
1.15578e+16
1.18265e+16
1.18976e+16
1.16466e+16
1.1078e+16
1.06496e+16
1.03756e+16
1.00937e+16
9.91232e+15
9.86747e+15
9.71382e+15
9.50978e+15
9.2535e+15
8.93602e+15
8.62017e+15
8.30734e+15
8.05052e+15
7.81581e+15
7.5944e+15
7.38179e+15
7.19028e+15
7.01655e+15
6.84868e+15
6.68493e+15
6.53179e+15
6.3802e+15
6.23242e+15
6.07797e+15
5.92432e+15
5.7763e+15
5.62868e+15
5.47962e+15
5.33174e+15
5.19082e+15
5.05507e+15
4.92523e+15
4.80173e+15
4.68373e+15
4.56905e+15
4.45851e+15
4.35171e+15
4.24885e+15
4.14516e+15
4.0451e+15
3.94899e+15
3.85571e+15
3.76304e+15
3.67154e+15
3.58435e+15
3.50038e+15
3.41749e+15
3.33505e+15
3.25675e+15
3.17699e+15
3.09911e+15
3.02528e+15
2.95369e+15
2.88289e+15
2.81248e+15
2.74551e+15
2.67688e+15
2.61019e+15
2.54537e+15
2.48212e+15
2.41935e+15
2.3571e+15
2.29779e+15
2.23595e+15
2.17594e+15
2.11834e+15
2.06211e+15
2.00624e+15
1.95101e+15
1.89803e+15
1.84514e+15
1.79439e+15
1.74602e+15
1.69603e+15
1.64487e+15
1.59347e+15
1.54353e+15
1.49292e+15
1.44155e+15
1.39183e+15
1.34264e+15
1.29411e+15
1.24816e+15
1.20138e+15
1.15548e+15
1.11071e+15
1.06658e+15
1.0223e+15
9.78292e+14
9.35373e+14
8.92911e+14
8.51018e+14
8.10367e+14
7.70014e+14
7.30005e+14
6.91242e+14
6.52656e+14
6.14467e+14
5.77531e+14
5.40729e+14
5.04102e+14
4.68524e+14
4.33043e+14
3.9798e+14
3.64565e+14
3.32421e+14
3.01298e+14
2.70874e+14
2.35478e+14
1.94244e+14
1.59824e+14
1.27339e+14
9.53344e+13
6.45656e+13
3.58111e+13
1.90116e+13
1.66152e+13
1.09657e+13
6.47099e+12
4.91788e+12
2.03607e+12
8.08312e+11
2.31416e+11
2.4995e+10
7.17731e+09
1.39513e+09
7.71546e+08
4.36269e+08
2.0092e+08
2.89893e+07
6.34395e+06
2.6837e+06
1.00561e+06
594327
563445
598495
861387
962706
1.48877e+06
1.42818e+06
1.71631e+06
1.91546e+06
2.08192e+06
2.92514e+06
3.98607e+06
2.37661e+06
2.23587e+06
1.77086e+06
1.85426e+06
1.61388e+06
1.81335e+06
2.30211e+06
2.95473e+06
4.37105e+06
5.09538e+06
1.36779e+06
3.20724e+06
432111
463109
95634.6
98344.1
23752.8
23767.4
24884.6
16928.2
4993.52
4980.51
7022.23
4597.38
8422.94
7544.56
6254.51
10498.7
10559.9
15026.9
1931.87
48200.9
12107.6
52449.2
30025.6
19126.9
38217
29127.1
24704.7
11169.5
13299.6
63129.8
70879.5
9841.36
14819.9
5828.06
62173.2
125234
55786.8
35390.4
43308
22132
129111
300200
126273
512635
428101
5674.17
0.00727641
0.000593325
108.122
0.0134831
42.555
116678
3.25711
4.49271e+07
8.32046e+06
2.57771e+06
0.172972
0.403365
28.9686
359.99
281.924
455.833
227.644
351.885
1389.16
1413.83
2764.79
4809.89
2536.14
2952.03
4665.09
3072.26
4494.23
3002.57
603.153
6009.21
1574.72
1629.56
2769.01
810.482
1621.12
3882.29
766.977
1806.78
1056.96
7.40737
364.309
251.929
149.198
358.365
106.474
239.029
117.462
44.8958
62.971
148.58
191.068
3619.26
3.7985e+10
1.58888e+11
4.2542e+11
1.56607e+12
3.76478e+12
7.43065e+12
1.27324e+13
1.97532e+13
2.8461e+13
3.87752e+13
5.06993e+13
6.43258e+13
7.95181e+13
9.60961e+13
1.13785e+14
1.32457e+14
1.52172e+14
1.72665e+14
1.93879e+14
2.15969e+14
2.38629e+14
2.61813e+14
2.85821e+14
3.10193e+14
3.34931e+14
3.60421e+14
3.86196e+14
4.12189e+14
4.38888e+14
4.66331e+14
4.93879e+14
5.21564e+14
5.50041e+14
5.78485e+14
6.0695e+14
6.36207e+14
6.65372e+14
6.94446e+14
7.24242e+14
7.54879e+14
7.85275e+14
8.15438e+14
8.46553e+14
8.7731e+14
9.07633e+14
9.38943e+14
9.71259e+14
1.00308e+15
1.03438e+15
1.06686e+15
1.09881e+15
1.1301e+15
1.16243e+15
1.19591e+15
1.2287e+15
1.26084e+15
1.29423e+15
1.327e+15
1.359e+15
1.39199e+15
1.42597e+15
1.4594e+15
1.49202e+15
1.52566e+15
1.56007e+15
1.59393e+15
1.62714e+15
1.66115e+15
1.69471e+15
1.72753e+15
1.76084e+15
1.79467e+15
1.82799e+15
1.86058e+15
1.89343e+15
1.92647e+15
1.95895e+15
1.99077e+15
2.02269e+15
2.05483e+15
2.08588e+15
2.11659e+15
2.14706e+15
2.17691e+15
2.20612e+15
2.23517e+15
2.2641e+15
2.29219e+15
2.31948e+15
2.34686e+15
2.37438e+15
2.40076e+15
2.42611e+15
2.45208e+15
2.47876e+15
2.50402e+15
2.52812e+15
2.55358e+15
2.58031e+15
2.60565e+15
2.62968e+15
2.65587e+15
2.68133e+15
2.70522e+15
2.73142e+15
2.76102e+15
2.7901e+15
2.81805e+15
2.8489e+15
2.88335e+15
2.91758e+15
2.95062e+15
2.98593e+15
3.02384e+15
3.06137e+15
3.09728e+15
3.13482e+15
3.17418e+15
3.21292e+15
3.25063e+15
3.28852e+15
3.32674e+15
3.36514e+15
3.40282e+15
3.44003e+15
3.4761e+15
3.50831e+15
3.53842e+15
3.56592e+15
3.58969e+15
3.60951e+15
3.62928e+15
3.64823e+15
3.66182e+15
3.67035e+15
3.67863e+15
3.68623e+15
3.68821e+15
3.68524e+15
3.68128e+15
3.67746e+15
3.6687e+15
3.65442e+15
3.63762e+15
3.61956e+15
3.59726e+15
3.57222e+15
3.54465e+15
3.51506e+15
3.48485e+15
3.4562e+15
3.43027e+15
3.40096e+15
3.3702e+15
3.34584e+15
3.32765e+15
3.30663e+15
3.28267e+15
3.26347e+15
3.24727e+15
3.22845e+15
3.20488e+15
3.18239e+15
3.15957e+15
3.13435e+15
3.10873e+15
3.08009e+15
3.04617e+15
3.00715e+15
2.96921e+15
2.93086e+15
2.88436e+15
2.83015e+15
2.77834e+15
2.72821e+15
2.66971e+15
2.60304e+15
2.5298e+15
2.45955e+15
2.39204e+15
2.31832e+15
2.24016e+15
2.16364e+15
2.09057e+15
2.01494e+15
1.93789e+15
1.86127e+15
1.78582e+15
1.71165e+15
1.63981e+15
1.57086e+15
1.49962e+15
1.42669e+15
1.35815e+15
1.294e+15
1.228e+15
1.15962e+15
1.09489e+15
1.03355e+15
9.74314e+14
9.17182e+14
8.59724e+14
8.03315e+14
7.47633e+14
6.95806e+14
6.47968e+14
5.99736e+14
5.5076e+14
5.03014e+14
4.61231e+14
4.25206e+14
3.88669e+14
3.52424e+14
3.21292e+14
2.95352e+14
2.69761e+14
2.44724e+14
2.21177e+14
2.00278e+14
1.82476e+14
1.66209e+14
1.51685e+14
1.38559e+14
1.27034e+14
1.17238e+14
1.09084e+14
1.02551e+14
9.76094e+13
9.44792e+13
9.35089e+13
9.51448e+13
1.00512e+14
1.17016e+14
1.21433e+14
1.33581e+14
1.74231e+14
1.56599e+14
1.30822e+14
1.20901e+14
1.15949e+14
1.00076e+14
8.61438e+13
7.363e+13
6.25681e+13
5.29947e+13
4.52974e+13
3.93191e+13
3.48762e+13
2.77898e+13
2.29335e+13
1.97255e+13
1.74033e+13
1.5743e+13
1.48726e+13
1.41215e+13
1.38616e+13
1.76296e+13
1.22138e+13
1.14066e+13
1.07686e+13
9.50709e+12
9.36311e+12
1.0539e+13
1.02584e+13
8.31546e+12
7.39204e+12
7.73482e+12
9.00732e+12
8.3984e+12
6.00475e+12
4.92089e+12
4.98204e+12
6.04043e+12
7.33656e+12
9.15729e+12
1.32211e+13
1.60158e+13
1.83301e+13
2.0928e+13
2.46966e+13
2.96228e+13
3.64511e+13
4.58389e+13
5.54067e+13
6.64141e+13
7.49896e+13
8.15111e+13
9.43365e+13
1.16053e+14
1.43589e+14
1.8126e+14
2.30405e+14
2.79309e+14
3.3981e+14
4.12103e+14
4.97672e+14
5.68207e+14
6.3109e+14
7.31968e+14
8.71187e+14
9.45403e+14
9.75408e+14
1.05931e+15
1.03752e+15
9.22309e+14
8.71242e+14
7.45439e+14
5.95294e+14
5.252e+14
5.01767e+14
5.09927e+14
5.12474e+14
5.10501e+14
5.62543e+14
6.38637e+14
6.63928e+14
7.27473e+14
8.21523e+14
8.44266e+14
8.90139e+14
9.49489e+14
9.27078e+14
9.06514e+14
8.89379e+14
8.12034e+14
7.11774e+14
6.19161e+14
4.90082e+14
3.81916e+14
3.54592e+14
3.01032e+14
2.67515e+14
3.78704e+14
5.52321e+14
7.47744e+14
1.08031e+15
1.55018e+15
2.01056e+15
2.27959e+15
2.52278e+15
2.77184e+15
2.7493e+15
2.7099e+15
2.67051e+15
2.39924e+15
1.97597e+15
1.57065e+15
1.20509e+15
8.5921e+14
5.44293e+14
3.11247e+14
1.94102e+14
1.65381e+14
1.32573e+14
1.09847e+14
1.48344e+14
2.07056e+14
2.66048e+14
3.43798e+14
4.50767e+14
5.4287e+14
5.4338e+14
4.42609e+14
3.47381e+14
2.60501e+14
1.41262e+14
4.58395e+13
5.21305e+12
1.40454e+16
1.38349e+16
1.36681e+16
1.35246e+16
1.33602e+16
1.31816e+16
1.30242e+16
1.28932e+16
1.27466e+16
1.25884e+16
1.24499e+16
1.23303e+16
1.21997e+16
1.20646e+16
1.19286e+16
1.18083e+16
1.16969e+16
1.15783e+16
1.14586e+16
1.13512e+16
1.12529e+16
1.11491e+16
1.10432e+16
1.09493e+16
1.0864e+16
1.07743e+16
1.06828e+16
1.06028e+16
1.05319e+16
1.04572e+16
1.03809e+16
1.0317e+16
1.02625e+16
1.02049e+16
1.01459e+16
1.01003e+16
1.00665e+16
1.00296e+16
9.99132e+15
9.97165e+15
9.96445e+15
9.95626e+15
9.94794e+15
9.95904e+15
9.99488e+15
1.00288e+16
1.00647e+16
1.0146e+16
1.02517e+16
1.03758e+16
1.0523e+16
1.07302e+16
1.10735e+16
1.15555e+16
1.18221e+16
1.18926e+16
1.16418e+16
1.1075e+16
1.06477e+16
1.0374e+16
1.00924e+16
9.91169e+15
9.86478e+15
9.71032e+15
9.50584e+15
9.24935e+15
8.93278e+15
8.61732e+15
8.3069e+15
8.04993e+15
7.81581e+15
7.5944e+15
7.3818e+15
7.19028e+15
7.01656e+15
6.84869e+15
6.68493e+15
6.53179e+15
6.38011e+15
6.23153e+15
6.07686e+15
5.92339e+15
5.77536e+15
5.62769e+15
5.47858e+15
5.3311e+15
5.19048e+15
5.05507e+15
4.92523e+15
4.80173e+15
4.68373e+15
4.56905e+15
4.45851e+15
4.35171e+15
4.24885e+15
4.14516e+15
4.0451e+15
3.94899e+15
3.85571e+15
3.76295e+15
3.67151e+15
3.58436e+15
3.50036e+15
3.41739e+15
3.33501e+15
3.25664e+15
3.17693e+15
3.09911e+15
3.02528e+15
2.95369e+15
2.8828e+15
2.81242e+15
2.74514e+15
2.67688e+15
2.6102e+15
2.54537e+15
2.48212e+15
2.41928e+15
2.35704e+15
2.29727e+15
2.23595e+15
2.17596e+15
2.11834e+15
2.06211e+15
2.00624e+15
1.95101e+15
1.89803e+15
1.84514e+15
1.79418e+15
1.74518e+15
1.69522e+15
1.64413e+15
1.59264e+15
1.5427e+15
1.49204e+15
1.44074e+15
1.39132e+15
1.34227e+15
1.29388e+15
1.24766e+15
1.20127e+15
1.15549e+15
1.11061e+15
1.06658e+15
1.02231e+15
9.78302e+14
9.35391e+14
8.92922e+14
8.51033e+14
8.1038e+14
7.70023e+14
7.30021e+14
6.91257e+14
6.52667e+14
6.14486e+14
5.77548e+14
5.40737e+14
5.04117e+14
4.68536e+14
4.33055e+14
3.97987e+14
3.64429e+14
3.32005e+14
3.00301e+14
2.69296e+14
2.33583e+14
1.93615e+14
1.59843e+14
1.27406e+14
9.54688e+13
6.48247e+13
3.64324e+13
1.94927e+13
1.58637e+13
1.14899e+13
6.51153e+12
4.67582e+12
2.33091e+12
8.30524e+11
2.60454e+11
6.99588e+10
2.69104e+10
9.61396e+09
4.19682e+09
3.14723e+09
2.07943e+09
1.1102e+09
6.3888e+08
2.87511e+08
1.18024e+08
6.14019e+07
5.38803e+07
2.87833e+07
1.61739e+07
5.81894e+06
3.64541e+06
4.93252e+06
1.43004e+06
1.33786e+06
1.20714e+06
596990
1.44009e+06
9.15984e+06
1.4677e+08
1.27565e+08
1.04856e+08
5.26505e+07
3.44783e+07
1.03965e+06
699687
682439
1.15352e+06
1.30168e+06
1.43886e+06
172562
187727
45188.5
44215.5
9258.1
15410.9
31839.9
4261.4
1822.94
1895.86
571.274
470.584
681.832
1042.64
377.33
1640.85
1268.42
3024.08
236.792
44453.6
10935.8
39151
5190.47
7602.53
8307.32
4995.71
21085.8
5257.81
16630.6
16546.2
24532.7
4587.25
7546.38
5890.37
68931.5
133365
61089.5
38884
32361
13646
114483
236252
96517.6
434432
317386
10952.3
0.00379779
1.10213e-05
0.860195
4.43844
12.5575
71359.3
12.9178
4.12921e+07
7.38333e+06
2.02103e+06
0.875609
0.0183065
5.89213
150.124
193.806
65.1364
135.006
9.94737
216.488
696.701
1016.33
1422.38
820.628
278.53
1943.5
1150.08
1358.63
1815.86
173.87
1442.47
871.364
701
806.049
549.097
759.798
1273.4
146.995
154.001
174.914
7.83813
123.891
338.192
159.625
96.6631
104.158
1.81154
3.17692
32.2516
11.3098
7.07219
230.744
234.18
3.77471e+10
1.61686e+11
4.22555e+11
1.55603e+12
3.74723e+12
7.40393e+12
1.26976e+13
1.97284e+13
2.84384e+13
3.87606e+13
5.06912e+13
6.4313e+13
7.95182e+13
9.60982e+13
1.13787e+14
1.32458e+14
1.52174e+14
1.72667e+14
1.93881e+14
2.15971e+14
2.38632e+14
2.61814e+14
2.858e+14
3.10194e+14
3.34932e+14
3.60422e+14
3.86198e+14
4.1218e+14
4.38872e+14
4.66331e+14
4.93881e+14
5.21538e+14
5.50003e+14
5.78485e+14
6.06912e+14
6.36177e+14
6.65363e+14
6.944e+14
7.24199e+14
7.5487e+14
7.85276e+14
8.15413e+14
8.46495e+14
8.77311e+14
9.07625e+14
9.38939e+14
9.7126e+14
1.00308e+15
1.03438e+15
1.06683e+15
1.09881e+15
1.1301e+15
1.16243e+15
1.19591e+15
1.2287e+15
1.26084e+15
1.29417e+15
1.32699e+15
1.35896e+15
1.39195e+15
1.42596e+15
1.4594e+15
1.49199e+15
1.52562e+15
1.56007e+15
1.59393e+15
1.62712e+15
1.66114e+15
1.69471e+15
1.72752e+15
1.76083e+15
1.79467e+15
1.82799e+15
1.86058e+15
1.89342e+15
1.92647e+15
1.95896e+15
1.99077e+15
2.02265e+15
2.05468e+15
2.08573e+15
2.11643e+15
2.14691e+15
2.17676e+15
2.20597e+15
2.23503e+15
2.26396e+15
2.29205e+15
2.31935e+15
2.34672e+15
2.37425e+15
2.40063e+15
2.42598e+15
2.45195e+15
2.47864e+15
2.5039e+15
2.52801e+15
2.55346e+15
2.58026e+15
2.60561e+15
2.62962e+15
2.6558e+15
2.6812e+15
2.7051e+15
2.73136e+15
2.76103e+15
2.7901e+15
2.81805e+15
2.84891e+15
2.88335e+15
2.91759e+15
2.95062e+15
2.98594e+15
3.02384e+15
3.06138e+15
3.09728e+15
3.13483e+15
3.17419e+15
3.21293e+15
3.25063e+15
3.28852e+15
3.32674e+15
3.36514e+15
3.40283e+15
3.44004e+15
3.4761e+15
3.50832e+15
3.53843e+15
3.56593e+15
3.5897e+15
3.60952e+15
3.62929e+15
3.64823e+15
3.66182e+15
3.67035e+15
3.67863e+15
3.68624e+15
3.68823e+15
3.68527e+15
3.6813e+15
3.6775e+15
3.66875e+15
3.65448e+15
3.63769e+15
3.61964e+15
3.59734e+15
3.57231e+15
3.54473e+15
3.51512e+15
3.48489e+15
3.45623e+15
3.43038e+15
3.40107e+15
3.3703e+15
3.34593e+15
3.32773e+15
3.30672e+15
3.28274e+15
3.26349e+15
3.24732e+15
3.22851e+15
3.20492e+15
3.18244e+15
3.15963e+15
3.13438e+15
3.10878e+15
3.08016e+15
3.04622e+15
3.00715e+15
2.96921e+15
2.9309e+15
2.88441e+15
2.83016e+15
2.77835e+15
2.72827e+15
2.66977e+15
2.60308e+15
2.52981e+15
2.45956e+15
2.39207e+15
2.31835e+15
2.24017e+15
2.16364e+15
2.09058e+15
2.01495e+15
1.93791e+15
1.86127e+15
1.78582e+15
1.71165e+15
1.63981e+15
1.57088e+15
1.49963e+15
1.42669e+15
1.35815e+15
1.29401e+15
1.22801e+15
1.15962e+15
1.09489e+15
1.03355e+15
9.74314e+14
9.17183e+14
8.59728e+14
8.0332e+14
7.47633e+14
6.95806e+14
6.47975e+14
5.99747e+14
5.50789e+14
5.03014e+14
4.61231e+14
4.2521e+14
3.88673e+14
3.52424e+14
3.21292e+14
2.95352e+14
2.69763e+14
2.44726e+14
2.21177e+14
2.00278e+14
1.82476e+14
1.66209e+14
1.51685e+14
1.38558e+14
1.27033e+14