/*--------------------------------*- C++ -*----------------------------------*\
| =========                 |                                                 |
| \\      /  F ield         | OpenFOAM: The Open Source CFD Toolbox           |
|  \\    /   O peration     | Version:  v2012                                 |
|   \\  /    A nd           | Website:  www.openfoam.com                      |
|    \\/     M anipulation  |                                                 |
\*---------------------------------------------------------------------------*/
FoamFile
{
    version     2.0;
    format      ascii;
    class       volScalarField;
    location    "1e-06";
    object      totalPPrime2Mean;
}
// * * * * * * * * * * * * * * * * * * * * * * * * * * * * * * * * * * * * * //

dimensions      [2 -2 -4 0 0 0 0];


internalField   nonuniform List<scalar> 
102000
(
1.40454e+16
1.38346e+16
1.36678e+16
1.35245e+16
1.33602e+16
1.31816e+16
1.30241e+16
1.28932e+16
1.27465e+16
1.25884e+16
1.24499e+16
1.23303e+16
1.21997e+16
1.20646e+16
1.19286e+16
1.18083e+16
1.16969e+16
1.15783e+16
1.14586e+16
1.13511e+16
1.12529e+16
1.11491e+16
1.10432e+16
1.09493e+16
1.0864e+16
1.07743e+16
1.06828e+16
1.06028e+16
1.05318e+16
1.04572e+16
1.03809e+16
1.0317e+16
1.02625e+16
1.02049e+16
1.01459e+16
1.01002e+16
1.00665e+16
1.00296e+16
9.99132e+15
9.97164e+15
9.96444e+15
9.95626e+15
9.94797e+15
9.95905e+15
9.99489e+15
1.00289e+16
1.00648e+16
1.01461e+16
1.02518e+16
1.0376e+16
1.05232e+16
1.07306e+16
1.10743e+16
1.15612e+16
1.18334e+16
1.19055e+16
1.16545e+16
1.10836e+16
1.06532e+16
1.03785e+16
1.00957e+16
9.91332e+15
9.87195e+15
9.71984e+15
9.51667e+15
9.26082e+15
8.94183e+15
8.62551e+15
8.30956e+15
8.05169e+15
7.81583e+15
7.59439e+15
7.38178e+15
7.19027e+15
7.01655e+15
6.84868e+15
6.68493e+15
6.53184e+15
6.38035e+15
6.23364e+15
6.07995e+15
5.92642e+15
5.77805e+15
5.63032e+15
5.48157e+15
5.33309e+15
5.19151e+15
5.05507e+15
4.92523e+15
4.80173e+15
4.68373e+15
4.56905e+15
4.45851e+15
4.35171e+15
4.24885e+15
4.14517e+15
4.04517e+15
3.94899e+15
3.85571e+15
3.76332e+15
3.67179e+15
3.58436e+15
3.50042e+15
3.41789e+15
3.33519e+15
3.25676e+15
3.17714e+15
3.09925e+15
3.02528e+15
2.9537e+15
2.88321e+15
2.8127e+15
2.74603e+15
2.6769e+15
2.61019e+15
2.54537e+15
2.48213e+15
2.41963e+15
2.35731e+15
2.29845e+15
2.23595e+15
2.17594e+15
2.11834e+15
2.06212e+15
2.00624e+15
1.95101e+15
1.89804e+15
1.84515e+15
1.79503e+15
1.74751e+15
1.69764e+15
1.64667e+15
1.59509e+15
1.54504e+15
1.49483e+15
1.44342e+15
1.39257e+15
1.34348e+15
1.29495e+15
1.24916e+15
1.20186e+15
1.1555e+15
1.11105e+15
1.06683e+15
1.02251e+15
9.78296e+14
9.35371e+14
8.92919e+14
8.51021e+14
8.10374e+14
7.70021e+14
7.30008e+14
6.91248e+14
6.52663e+14
6.14468e+14
5.77534e+14
5.40736e+14
5.04103e+14
4.68528e+14
4.33177e+14
3.98055e+14
3.64754e+14
3.33086e+14
3.02565e+14
2.73847e+14
2.39317e+14
1.96398e+14
1.59843e+14
1.27318e+14
9.52568e+13
6.43132e+13
3.47112e+13
1.81159e+13
1.86157e+13
1.00545e+13
6.6046e+12
4.93299e+12
1.62413e+12
9.08417e+11
1.42068e+11
3.55407e+08
9.41102e+07
4.36449e+07
3.03351e+07
2.22677e+07
1.85811e+07
1.4972e+07
1.32664e+07
1.29117e+07
1.18141e+07
1.2387e+07
1.25129e+07
1.20311e+07
1.20822e+07
1.11385e+07
1.19097e+07
1.24087e+07
1.19607e+07
1.25284e+07
1.42042e+07
1.49755e+07
1.87777e+07
1.82703e+07
1.9972e+07
1.7532e+07
1.74502e+07
1.53318e+07
1.57925e+07
1.71851e+07
1.82145e+07
2.44284e+07
2.55512e+07
1.92781e+07
1.9914e+07
1.9793e+06
2.41097e+06
464133
690391
195185
283909
75902.8
151924
59810.3
64350.8
2047.46
1444.46
719.082
1757.87
585.105
11057.1
7731.13
27283.4
187.967
23240.6
22475.3
93734.3
545238
401226
120807
105286
19853.8
29517.3
10320
794807
774246
24357.9
38945.2
5092.23
59318.8
120032
52895.6
34214.9
56638.2
32966.8
144535
375280
168351
638237
566131
5.06319
0.193044
0.188156
277.634
168.62
8.74321
95399.4
0.0846331
4.92105e+07
9.74248e+06
3.66252e+06
24120.5
5900.48
51.451
254.316
276.578
0.00780372
0.0010953
0.054829
30.1895
0.221004
0.146389
0.155589
0.0513349
0.00303203
0.159387
0.0560689
0.061364
0.126361
2401.07
0.0821898
0.0306996
5.60006
10.4282
78.7414
25.4106
0.0897806
0.000117945
0.00125309
0.0282021
15.6757
722.623
461.017
293.153
236.757
31.0017
1.50879
2.12833
2.05313
10.0455
29.8296
459.936
1.44303e+06
3.71859e+10
1.54958e+11
4.29597e+11
1.57915e+12
3.79356e+12
7.47492e+12
1.27723e+13
1.97791e+13
2.84935e+13
3.87817e+13
5.07167e+13
6.43666e+13
7.95173e+13
9.60935e+13
1.138e+14
1.32455e+14
1.52169e+14
1.72676e+14
1.93881e+14
2.15968e+14
2.38624e+14
2.61827e+14
2.8593e+14
3.10217e+14
3.34989e+14
3.6042e+14
3.86218e+14
4.12311e+14
4.38972e+14
4.66394e+14
4.93969e+14
5.21677e+14
5.50157e+14
5.78606e+14
6.0711e+14
6.36305e+14
6.65494e+14
6.94651e+14
7.24387e+14
7.54983e+14
7.85292e+14
8.15572e+14
8.46756e+14
8.77403e+14
9.0777e+14
9.3902e+14
9.7129e+14
1.00308e+15
1.03443e+15
1.06702e+15
1.09888e+15
1.13023e+15
1.16251e+15
1.19594e+15
1.2287e+15
1.26091e+15
1.29448e+15
1.32717e+15
1.35923e+15
1.39217e+15
1.42608e+15
1.45954e+15
1.4922e+15
1.52581e+15
1.56018e+15
1.59406e+15
1.62727e+15
1.66123e+15
1.69481e+15
1.72767e+15
1.76094e+15
1.79473e+15
1.82806e+15
1.86067e+15
1.89349e+15
1.9265e+15
1.95895e+15
1.99079e+15
2.02283e+15
2.05512e+15
2.08617e+15
2.11687e+15
2.14734e+15
2.17718e+15
2.20639e+15
2.23544e+15
2.26436e+15
2.29245e+15
2.31974e+15
2.34711e+15
2.37463e+15
2.40099e+15
2.42634e+15
2.45231e+15
2.47899e+15
2.50423e+15
2.52833e+15
2.5538e+15
2.58053e+15
2.60585e+15
2.62989e+15
2.65609e+15
2.68157e+15
2.70546e+15
2.73166e+15
2.76104e+15
2.79009e+15
2.81804e+15
2.8489e+15
2.88334e+15
2.91757e+15
2.95061e+15
2.98593e+15
3.02383e+15
3.06137e+15
3.09727e+15
3.13482e+15
3.17418e+15
3.21292e+15
3.25063e+15
3.28851e+15
3.32673e+15
3.36513e+15
3.40282e+15
3.44003e+15
3.4761e+15
3.50831e+15
3.53842e+15
3.56592e+15
3.58969e+15
3.60951e+15
3.62928e+15
3.64822e+15
3.66181e+15
3.67034e+15
3.67862e+15
3.68621e+15
3.68818e+15
3.6852e+15
3.68123e+15
3.6774e+15
3.66861e+15
3.65432e+15
3.63752e+15
3.61944e+15
3.59719e+15
3.57214e+15
3.54458e+15
3.51503e+15
3.48484e+15
3.4562e+15
3.4302e+15
3.40087e+15
3.37009e+15
3.34569e+15
3.3275e+15
3.30646e+15
3.28267e+15
3.26347e+15
3.24727e+15
3.22842e+15
3.20486e+15
3.18237e+15
3.15955e+15
3.13432e+15
3.10864e+15
3.07998e+15
3.04609e+15
3.00712e+15
2.96919e+15
2.93076e+15
2.88425e+15
2.8301e+15
2.77827e+15
2.72806e+15
2.66958e+15
2.60291e+15
2.52974e+15
2.4595e+15
2.39194e+15
2.31823e+15
2.24011e+15
2.16361e+15
2.09053e+15
2.0149e+15
1.93786e+15
1.86126e+15
1.78582e+15
1.71165e+15
1.63981e+15
1.57085e+15
1.49962e+15
1.42669e+15
1.35815e+15
1.294e+15
1.228e+15
1.15962e+15
1.09489e+15
1.03355e+15
9.74314e+14
9.17182e+14
8.59717e+14
8.03302e+14
7.47633e+14
6.95805e+14
6.47945e+14
5.99704e+14
5.5071e+14
5.03015e+14
4.6123e+14
4.25183e+14
3.88642e+14
3.52413e+14
3.21291e+14
2.95343e+14
2.69748e+14
2.44708e+14
2.21173e+14
2.00278e+14
1.82476e+14
1.66208e+14
1.51683e+14
1.38559e+14
1.27034e+14
1.17238e+14
1.09084e+14
1.02552e+14
9.76108e+13
9.44808e+13
9.35099e+13
9.5147e+13
1.00521e+14
1.1743e+14
1.21428e+14
1.33612e+14
1.74367e+14
1.56698e+14
1.30825e+14
1.20903e+14
1.15957e+14
1.00076e+14
8.61436e+13
7.36299e+13
6.2568e+13
5.29948e+13
4.52977e+13
3.93196e+13
3.48753e+13
2.77896e+13
2.29336e+13
1.97259e+13
1.74036e+13
1.57437e+13
1.48734e+13
1.4123e+13
1.38664e+13
1.7627e+13
1.22141e+13
1.14066e+13
1.07686e+13
9.50729e+12
9.36424e+12
1.05394e+13
1.02586e+13
8.31527e+12
7.39214e+12
7.73676e+12
9.00716e+12
8.39819e+12
6.00469e+12
4.92097e+12
4.98364e+12
6.04085e+12
7.33742e+12
9.16555e+12
1.32461e+13
1.60424e+13
1.83578e+13
2.09578e+13
2.47297e+13
2.9659e+13
3.64923e+13
4.58992e+13
5.54743e+13
6.64848e+13
7.50529e+13
8.15431e+13
9.43733e+13
1.16098e+14
1.43641e+14
1.81326e+14
2.30479e+14
2.79391e+14
3.39911e+14
4.12218e+14
4.97742e+14
5.68261e+14
6.3115e+14
7.32057e+14
8.71263e+14
9.45443e+14
9.75454e+14
1.05931e+15
1.03752e+15
9.2231e+14
8.71242e+14
7.4544e+14
5.95294e+14
5.252e+14
5.01765e+14
5.09926e+14
5.12474e+14
5.10502e+14
5.62542e+14
6.38637e+14
6.63956e+14
7.27473e+14
8.21523e+14
8.44273e+14
8.90139e+14
9.49483e+14
9.27061e+14
9.06495e+14
8.89345e+14
8.11992e+14
7.11747e+14
6.19131e+14
4.90079e+14
3.81916e+14
3.54592e+14
3.01032e+14
2.67524e+14
3.78755e+14
5.52359e+14
7.47949e+14
1.08038e+15
1.55018e+15
2.01056e+15
2.27959e+15
2.52278e+15
2.77182e+15
2.74928e+15
2.70986e+15
2.67041e+15
2.39902e+15
1.97591e+15
1.57059e+15
1.20504e+15
8.59198e+14
5.44293e+14
3.11247e+14
1.94102e+14
1.65377e+14
1.32573e+14
1.09852e+14
1.48369e+14
2.07056e+14
2.6609e+14
3.43836e+14
4.50767e+14
5.42862e+14
5.43372e+14
4.42587e+14
3.47345e+14
2.60405e+14
1.41241e+14
4.58389e+13
5.21017e+12
1.40454e+16
1.38347e+16
1.36679e+16
1.35246e+16
1.33602e+16
1.31816e+16
1.30242e+16
1.28932e+16
1.27466e+16
1.25884e+16
1.24499e+16
1.23303e+16
1.21997e+16
1.20646e+16
1.19286e+16
1.18083e+16
1.16969e+16
1.15783e+16
1.14586e+16
1.13511e+16
1.12529e+16
1.11491e+16
1.10432e+16
1.09493e+16
1.0864e+16
1.07743e+16
1.06828e+16
1.06028e+16
1.05318e+16
1.04572e+16
1.03809e+16
1.0317e+16
1.02625e+16
1.02049e+16
1.01459e+16
1.01002e+16
1.00665e+16
1.00296e+16
9.99132e+15
9.97165e+15
9.96444e+15
9.95626e+15
9.94796e+15
9.95905e+15
9.99489e+15
1.00289e+16
1.00648e+16
1.01461e+16
1.02518e+16
1.03759e+16
1.05232e+16
1.07305e+16
1.10741e+16
1.15598e+16
1.18305e+16
1.19021e+16
1.16509e+16
1.10809e+16
1.06515e+16
1.03771e+16
1.00949e+16
9.91287e+15
9.86995e+15
9.71708e+15
9.51349e+15
9.25741e+15
8.93906e+15
8.62291e+15
8.30866e+15
8.05119e+15
7.81583e+15
7.59439e+15
7.38178e+15
7.19027e+15
7.01655e+15
6.84868e+15
6.68493e+15
6.53179e+15
6.38029e+15
6.23315e+15
6.07901e+15
5.92537e+15
5.77723e+15
5.62959e+15
5.48065e+15
5.33243e+15
5.19119e+15
5.05507e+15
4.92523e+15
4.80173e+15
4.68373e+15
4.56905e+15
4.45851e+15
4.35171e+15
4.24885e+15
4.14516e+15
4.0451e+15
3.94899e+15
3.85571e+15
3.76318e+15
3.67164e+15
3.58435e+15
3.50042e+15
3.41769e+15
3.33512e+15
3.25675e+15
3.17706e+15
3.09912e+15
3.02528e+15
2.95369e+15
2.88304e+15
2.81258e+15
2.74567e+15
2.6769e+15
2.61019e+15
2.54537e+15
2.48212e+15
2.41948e+15
2.35719e+15
2.29815e+15
2.23595e+15
2.17594e+15
2.11834e+15
2.06211e+15
2.00624e+15
1.951e+15
1.89803e+15
1.84514e+15
1.79468e+15
1.74678e+15
1.69686e+15
1.64576e+15
1.59431e+15
1.54434e+15
1.49389e+15
1.44246e+15
1.39227e+15
1.34307e+15
1.29449e+15
1.24853e+15
1.2016e+15
1.15549e+15
1.11085e+15
1.06668e+15
1.02234e+15
9.78294e+14
9.35367e+14
8.92911e+14
8.51017e+14
8.10366e+14
7.70015e+14
7.30003e+14
6.91241e+14
6.52656e+14
6.14465e+14
5.77529e+14
5.40733e+14
5.04102e+14
4.68526e+14
4.33049e+14
3.97989e+14
3.64686e+14
3.32791e+14
3.0209e+14
2.72407e+14
2.37405e+14
1.95211e+14
1.59839e+14
1.27322e+14
9.52775e+13
6.44104e+13
3.52389e+13
1.85923e+13
1.76002e+13
1.04792e+13
6.53009e+12
5.13784e+12
1.79677e+12
8.55722e+11
1.8944e+11
4.3578e+09
5.14523e+08
1.55021e+07
9.93355e+06
5.14204e+06
2.57659e+06
2.69328e+06
3.26889e+06
3.98569e+06
4.47846e+06
5.1648e+06
5.77818e+06
5.74151e+06
6.16753e+06
5.80269e+06
6.74928e+06
7.38507e+06
6.94942e+06
7.57491e+06
9.43219e+06
1.12794e+07
1.73428e+07
1.42288e+07
1.27576e+07
1.02266e+07
1.08836e+07
9.77378e+06
1.03704e+07
9.40444e+06
1.02177e+07
7.50678e+06
7.42349e+06
1.41212e+06
955483
42250.7
40307.1
16739.1
70354.7
19282.1
72728.7
22907.6
38642
18500.4
14897.3
189.807
196.791
1613.18
2118.34
992.334
9056.6
6208.2
20287.6
143.091
31187.8
17981.8
78196.5
157142
112768
72791.2
55902.1
21510.9
18992.8
12027.7
199391
200809
15696.2
23149.4
5198.34
60014.3
121949
53725.7
34400.9
51576
28782.2
138634
348753
152025
584928
516002
662.39
0.0289158
91.2559
74.5197
62.3172
15.0983
102954
0.242897
4.78414e+07
9.31368e+06
3.24239e+06
7130.47
10.2819
5.41952
0.563432
3.81533
52.7389
15.1101
523.924
1020.98
1050.5
1771.45
3650.44
2080.59
2291.84
4212.28
2661.88
3120.98
2724.08
687.754
3009.68
1412.18
1247.11
1491.38
274.758
667.895
1847.05
710
1513.85
933.055
4.52321
79.7405
13.424
69.2147
62.4331
2.02951
192.866
1.27714
3.18216
32.2876
14.3751
457.945
744294
3.75369e+10
1.56303e+11
4.28347e+11
1.5746e+12
3.77993e+12
7.45415e+12
1.27625e+13
1.9768e+13
2.84786e+13
3.87816e+13
5.0707e+13
6.4344e+13
7.95174e+13
9.60935e+13
1.13783e+14
1.32455e+14
1.52169e+14
1.72663e+14
1.93877e+14
2.15968e+14
2.38625e+14
2.61813e+14
2.8585e+14
3.10191e+14
3.34949e+14
3.6042e+14
3.86195e+14
4.12239e+14
4.3893e+14
4.66356e+14
4.93907e+14
5.21616e+14
5.501e+14
5.78531e+14
6.07023e+14
6.36261e+14
6.65426e+14
6.9454e+14
7.24317e+14
7.54928e+14
7.85291e+14
8.15503e+14
8.46632e+14
8.77346e+14
9.07694e+14
9.38984e+14
9.71267e+14
1.00308e+15
1.0344e+15
1.06692e+15
1.09883e+15
1.13016e+15
1.16247e+15
1.19591e+15
1.2287e+15
1.26087e+15
1.29433e+15
1.32708e+15
1.35911e+15
1.39208e+15
1.42602e+15
1.45945e+15
1.4921e+15
1.52574e+15
1.56012e+15
1.59398e+15
1.6272e+15
1.66119e+15
1.69475e+15
1.72759e+15
1.76089e+15
1.79469e+15
1.82801e+15
1.86062e+15
1.89345e+15
1.92647e+15
1.95895e+15
1.99077e+15
2.02275e+15
2.05498e+15
2.08603e+15
2.11673e+15
2.1472e+15
2.17705e+15
2.20626e+15
2.23531e+15
2.26424e+15
2.29232e+15
2.31961e+15
2.34699e+15
2.37451e+15
2.40088e+15
2.42623e+15
2.4522e+15
2.47887e+15
2.50413e+15
2.52823e+15
2.55369e+15
2.58043e+15
2.60575e+15
2.62978e+15
2.65598e+15
2.68145e+15
2.70535e+15
2.73153e+15
2.76102e+15
2.79009e+15
2.81804e+15
2.8489e+15
2.88334e+15
2.91757e+15
2.95062e+15
2.98593e+15
3.02383e+15
3.06137e+15
3.09727e+15
3.13482e+15
3.17418e+15
3.21292e+15
3.25063e+15
3.28852e+15
3.32673e+15
3.36513e+15
3.40282e+15
3.44003e+15
3.4761e+15
3.50831e+15
3.53842e+15
3.56592e+15
3.58969e+15
3.60951e+15
3.62928e+15
3.64822e+15
3.66181e+15
3.67034e+15
3.67862e+15
3.68622e+15
3.68819e+15
3.68522e+15
3.68125e+15
3.67743e+15
3.66865e+15
3.65436e+15
3.63756e+15
3.61949e+15
3.59721e+15
3.57217e+15
3.5446e+15
3.51503e+15
3.48484e+15
3.4562e+15
3.43022e+15
3.4009e+15
3.37013e+15
3.34576e+15
3.32757e+15
3.30654e+15
3.28267e+15
3.26347e+15
3.24727e+15
3.22843e+15
3.20487e+15
3.18238e+15
3.15955e+15
3.13433e+15
3.10868e+15
3.08002e+15
3.04611e+15
3.00713e+15
2.9692e+15
2.9308e+15
2.88429e+15
2.83012e+15
2.77829e+15
2.72812e+15
2.66963e+15
2.60296e+15
2.52976e+15
2.45952e+15
2.39198e+15
2.31827e+15
2.24013e+15
2.16362e+15
2.09054e+15
2.01492e+15
1.93787e+15
1.86126e+15
1.78582e+15
1.71165e+15
1.63981e+15
1.57085e+15
1.49962e+15
1.42669e+15
1.35815e+15
1.294e+15
1.228e+15
1.15962e+15
1.09489e+15
1.03355e+15
9.74314e+14
9.17182e+14
8.59719e+14
8.03307e+14
7.47633e+14
6.95805e+14
6.47953e+14
5.99717e+14
5.50732e+14
5.03015e+14
4.61231e+14
4.25192e+14
3.88653e+14
3.52419e+14
3.21291e+14
2.95346e+14
2.69754e+14
2.44716e+14
2.21175e+14
2.00278e+14
1.82476e+14
1.66209e+14
1.51685e+14
1.38559e+14
1.27034e+14
1.17238e+14
1.09084e+14
1.02552e+14
9.76101e+13
9.44802e+13
9.35098e+13
9.51465e+13
1.00517e+14
1.1723e+14
1.21442e+14
1.33614e+14
1.74301e+14
1.56654e+14
1.30824e+14
1.20902e+14
1.15953e+14
1.00076e+14
8.61436e+13
7.36299e+13
6.2568e+13
5.29948e+13
4.52976e+13
3.93194e+13
3.48756e+13
2.77897e+13
2.29336e+13
1.97257e+13
1.74035e+13
1.57434e+13
1.48731e+13
1.41224e+13
1.38641e+13
1.76285e+13
1.2214e+13
1.14065e+13
1.07686e+13
9.50722e+12
9.36376e+12
1.05392e+13
1.02585e+13
8.31539e+12
7.39212e+12
7.73585e+12
9.00722e+12
8.39827e+12
6.00473e+12
4.92096e+12
4.9829e+12
6.04071e+12
7.33715e+12
9.16177e+12
1.32347e+13
1.60304e+13
1.83453e+13
2.09443e+13
2.47146e+13
2.96424e+13
3.64733e+13
4.58716e+13
5.54434e+13
6.64524e+13
7.5023e+13
8.15282e+13
9.43561e+13
1.16077e+14
1.43617e+14
1.81295e+14
2.30444e+14
2.79353e+14
3.39864e+14
4.12164e+14
4.97709e+14
5.68235e+14
6.31121e+14
7.32014e+14
8.71228e+14
9.45424e+14
9.75432e+14
1.05931e+15
1.03752e+15
9.22309e+14
8.71242e+14
7.45439e+14
5.95294e+14
5.252e+14
5.01766e+14
5.09926e+14
5.12474e+14
5.10502e+14
5.62543e+14
6.38637e+14
6.63947e+14
7.27473e+14
8.21523e+14
8.4427e+14
8.90139e+14
9.49485e+14
9.27066e+14
9.06504e+14
8.89361e+14
8.12005e+14
7.11757e+14
6.19138e+14
4.9008e+14
3.81916e+14
3.54592e+14
3.01031e+14
2.6752e+14
3.78732e+14
5.52347e+14
7.47883e+14
1.08036e+15
1.55018e+15
2.01056e+15
2.27959e+15
2.52278e+15
2.77183e+15
2.74928e+15
2.70988e+15
2.67045e+15
2.39909e+15
1.97593e+15
1.57062e+15
1.20506e+15
8.59199e+14
5.44293e+14
3.11247e+14
1.94102e+14
1.65377e+14
1.32573e+14
1.0985e+14
1.48359e+14
2.07056e+14
2.66081e+14
3.43824e+14
4.50767e+14
5.42865e+14
5.43374e+14
4.42593e+14
3.47363e+14
2.6044e+14
1.41246e+14
4.58395e+13
5.21147e+12
1.40454e+16
1.38348e+16
1.3668e+16
1.35246e+16
1.33602e+16
1.31816e+16
1.30242e+16
1.28932e+16
1.27466e+16
1.25884e+16
1.24499e+16
1.23303e+16
1.21997e+16
1.20646e+16
1.19286e+16
1.18083e+16
1.16969e+16
1.15783e+16
1.14586e+16
1.13512e+16
1.12529e+16
1.11491e+16
1.10432e+16
1.09493e+16
1.0864e+16
1.07743e+16
1.06828e+16
1.06028e+16
1.05319e+16
1.04572e+16
1.03809e+16
1.0317e+16
1.02625e+16
1.02049e+16
1.01459e+16
1.01003e+16
1.00665e+16
1.00296e+16
9.99132e+15
9.97165e+15
9.96445e+15
9.95626e+15
9.94796e+15
9.95905e+15
9.9949e+15
1.00288e+16
1.00648e+16
1.0146e+16
1.02518e+16
1.03759e+16
1.05231e+16
1.07304e+16
1.10739e+16
1.15578e+16
1.18265e+16
1.18976e+16
1.16466e+16
1.1078e+16
1.06496e+16
1.03756e+16
1.00937e+16
9.91233e+15
9.86747e+15
9.71382e+15
9.50979e+15
9.2535e+15
8.93602e+15
8.62017e+15
8.30734e+15
8.05053e+15
7.81582e+15
7.5944e+15
7.38179e+15
7.19028e+15
7.01655e+15
6.84868e+15
6.68493e+15
6.53179e+15
6.3802e+15
6.23242e+15
6.07797e+15
5.92432e+15
5.7763e+15
5.62868e+15
5.47963e+15
5.33175e+15
5.19082e+15
5.05507e+15
4.92523e+15
4.80173e+15
4.68373e+15
4.56905e+15
4.45851e+15
4.35171e+15
4.24885e+15
4.14517e+15
4.0451e+15
3.94899e+15
3.85571e+15
3.76305e+15
3.67154e+15
3.58436e+15
3.50039e+15
3.41749e+15
3.33506e+15
3.25675e+15
3.17699e+15
3.09912e+15
3.02529e+15
2.9537e+15
2.88289e+15
2.81249e+15
2.74551e+15
2.67688e+15
2.6102e+15
2.54537e+15
2.48213e+15
2.41936e+15
2.35711e+15
2.2978e+15
2.23595e+15
2.17595e+15
2.11834e+15
2.06212e+15
2.00624e+15
1.95101e+15
1.89804e+15
1.84515e+15
1.7944e+15
1.74602e+15
1.69604e+15
1.64487e+15
1.59348e+15
1.54354e+15
1.49293e+15
1.44156e+15
1.39183e+15
1.34265e+15
1.29412e+15
1.24816e+15
1.20139e+15
1.15549e+15
1.11072e+15
1.06659e+15
1.02231e+15
9.78301e+14
9.35382e+14
8.9292e+14
8.51028e+14
8.10377e+14
7.70023e+14
7.30016e+14
6.91253e+14
6.52666e+14
6.14479e+14
5.77543e+14
5.4074e+14
5.04115e+14
4.68537e+14
4.33055e+14
3.97993e+14
3.64579e+14
3.32434e+14
3.01313e+14
2.70892e+14
2.35493e+14
1.94259e+14
1.59843e+14
1.27357e+14
9.53564e+13
6.45833e+13
3.58291e+13
1.90327e+13
1.6626e+13
1.09896e+13
6.48251e+12
4.9265e+12
2.04313e+12
8.10314e+11
2.31956e+11
2.49361e+10
7.10612e+09
1.36961e+09
7.42805e+08
4.18596e+08
1.90465e+08
2.46015e+07
4.30344e+06
1.7994e+06
888774
1.27981e+06
1.45277e+06
1.79784e+06
2.4112e+06
2.4087e+06
3.58903e+06
3.44893e+06
3.84123e+06
4.25657e+06
4.72214e+06
6.61526e+06
8.94108e+06
6.73017e+06
5.81415e+06
4.68112e+06
5.02322e+06
4.57893e+06
5.05586e+06
5.59583e+06
6.72088e+06
7.89177e+06
8.94507e+06
2.48203e+06
4.71156e+06
510520
618246
98601.8
122016
24585.7
26998.5
26418
17333.1
4706.64
5097.11
7935.77
5003.34
9239.65
7880.36
6737.34
10746.3
11026.7
15174.9
2128.03
48055.4
12266.3
51845.5
30495.6
19185.2
38118.8
29212.4
24692.6
11157.4
13239.5
63192.1
70777.3
9823.96
14818.6
5828.18
62134.8
125210
55793.6
35417.1
43293.3
22102.3
129033
300181
126173
512481
427888
5684.97
0.012067
0.000699453
108.067
0.0265734
42.8774
116737
3.32181
4.49277e+07
8.32136e+06
2.57788e+06
0.217989
0.335673
29.1227
363.597
284.642
462.048
231.163
353.484
1399.05
1424.75
2782.36
4840.25
2545.07
2974.61
4701.52
3084.2
4539.24
3031.71
604.794
6093.19
1607.6
1652.11
2842.25
839.891
1667.04
4019.35
810.434
1903.26
1148.71
13.9926
432.307
306.418
180.205
446.279
157.049
289.655
192.473
95.1409
98.8198
265.56
113.855
72454
3.80254e+10
1.58866e+11
4.25165e+11
1.56548e+12
3.76386e+12
7.42947e+12
1.27311e+13
1.97518e+13
2.84596e+13
3.87738e+13
5.06979e+13
6.43244e+13
7.95167e+13
9.60947e+13
1.13783e+14
1.32456e+14
1.5217e+14
1.72664e+14
1.93878e+14
2.15968e+14
2.38628e+14
2.61812e+14
2.85819e+14
3.10191e+14
3.34929e+14
3.60419e+14
3.86194e+14
4.12187e+14
4.38887e+14
4.6633e+14
4.93878e+14
5.21562e+14
5.5004e+14
5.78483e+14
6.06948e+14
6.36205e+14
6.65371e+14
6.94444e+14
7.2424e+14
7.54878e+14
7.85274e+14
8.15436e+14
8.46552e+14
8.77308e+14
9.07632e+14
9.38941e+14
9.71258e+14
1.00308e+15
1.03437e+15
1.06686e+15
1.09881e+15
1.1301e+15
1.16243e+15
1.19591e+15
1.2287e+15
1.26084e+15
1.29423e+15
1.327e+15
1.359e+15
1.39199e+15
1.42597e+15
1.4594e+15
1.49202e+15
1.52566e+15
1.56007e+15
1.59393e+15
1.62714e+15
1.66115e+15
1.69471e+15
1.72753e+15
1.76084e+15
1.79467e+15
1.82799e+15
1.86058e+15
1.89343e+15
1.92647e+15
1.95895e+15
1.99077e+15
2.02269e+15
2.05483e+15
2.08588e+15
2.11659e+15
2.14706e+15
2.1769e+15
2.20612e+15
2.23517e+15
2.2641e+15
2.29219e+15
2.31948e+15
2.34686e+15
2.37438e+15
2.40075e+15
2.4261e+15
2.45208e+15
2.47876e+15
2.50401e+15
2.52812e+15
2.55358e+15
2.58031e+15
2.60565e+15
2.62968e+15
2.65587e+15
2.68133e+15
2.70522e+15
2.73142e+15
2.76102e+15
2.7901e+15
2.81805e+15
2.8489e+15
2.88335e+15
2.91758e+15
2.95062e+15
2.98593e+15
3.02384e+15
3.06137e+15
3.09728e+15
3.13482e+15
3.17418e+15
3.21292e+15
3.25063e+15
3.28852e+15
3.32674e+15
3.36514e+15
3.40282e+15
3.44003e+15
3.4761e+15
3.50831e+15
3.53843e+15
3.56592e+15
3.58969e+15
3.60951e+15
3.62928e+15
3.64823e+15
3.66182e+15
3.67035e+15
3.67863e+15
3.68623e+15
3.68821e+15
3.68525e+15
3.68128e+15
3.67746e+15
3.6687e+15
3.65442e+15
3.63762e+15
3.61956e+15
3.59726e+15
3.57222e+15
3.54465e+15
3.51506e+15
3.48485e+15
3.4562e+15
3.43027e+15
3.40096e+15
3.3702e+15
3.34584e+15
3.32765e+15
3.30663e+15
3.28267e+15
3.26347e+15
3.24727e+15
3.22845e+15
3.20488e+15
3.18239e+15
3.15957e+15
3.13435e+15
3.10873e+15
3.08009e+15
3.04617e+15
3.00715e+15
2.96921e+15
2.93086e+15
2.88436e+15
2.83015e+15
2.77834e+15
2.72821e+15
2.66971e+15
2.60304e+15
2.5298e+15
2.45955e+15
2.39204e+15
2.31832e+15
2.24016e+15
2.16364e+15
2.09057e+15
2.01494e+15
1.93789e+15
1.86127e+15
1.78582e+15
1.71165e+15
1.63981e+15
1.57086e+15
1.49962e+15
1.42669e+15
1.35815e+15
1.294e+15
1.228e+15
1.15962e+15
1.09489e+15
1.03355e+15
9.74314e+14
9.17182e+14
8.59724e+14
8.03315e+14
7.47633e+14
6.95806e+14
6.47968e+14
5.99736e+14
5.5076e+14
5.03014e+14
4.61231e+14
4.25206e+14
3.88669e+14
3.52424e+14
3.21292e+14
2.95352e+14
2.69761e+14
2.44724e+14
2.21177e+14
2.00278e+14
1.82476e+14
1.66209e+14
1.51685e+14
1.38559e+14
1.27034e+14
1.17238e+14
1.09084e+14
1.02551e+14
9.76094e+13
9.44792e+13
9.35089e+13
9.51448e+13
1.00512e+14
1.17016e+14
1.21432e+14
1.33581e+14
1.74231e+14
1.56599e+14
1.30822e+14
1.20901e+14
1.15949e+14
1.00076e+14
8.61437e+13
7.363e+13
6.2568e+13
5.29947e+13
4.52974e+13
3.93192e+13
3.48762e+13
2.77898e+13
2.29336e+13
1.97255e+13
1.74033e+13
1.5743e+13
1.48727e+13
1.41215e+13
1.38616e+13
1.76296e+13
1.22138e+13
1.14066e+13
1.07686e+13
9.5071e+12
9.36311e+12
1.0539e+13
1.02584e+13
8.31546e+12
7.39204e+12
7.73482e+12
9.00732e+12
8.3984e+12
6.00476e+12
4.9209e+12
4.98206e+12
6.04044e+12
7.33658e+12
9.15732e+12
1.32212e+13
1.60159e+13
1.83302e+13
2.09281e+13
2.46967e+13
2.96229e+13
3.64512e+13
4.5839e+13
5.54067e+13
6.64142e+13
7.49896e+13
8.15111e+13
9.43365e+13
1.16053e+14
1.43589e+14
1.8126e+14
2.30405e+14
2.79309e+14
3.3981e+14
4.12103e+14
4.97672e+14
5.68207e+14
6.3109e+14
7.31968e+14
8.71187e+14
9.45403e+14
9.75408e+14
1.05931e+15
1.03752e+15
9.22309e+14
8.71242e+14
7.45439e+14
5.95293e+14
5.252e+14
5.01767e+14
5.09927e+14
5.12474e+14
5.10501e+14
5.62543e+14
6.38637e+14
6.63927e+14
7.27473e+14
8.21523e+14
8.44266e+14
8.90139e+14
9.49489e+14
9.27077e+14
9.06514e+14
8.89379e+14
8.12033e+14
7.11774e+14
6.19161e+14
4.90082e+14
3.81916e+14
3.54592e+14
3.01031e+14
2.67515e+14
3.78704e+14
5.52321e+14
7.47744e+14
1.08031e+15
1.55018e+15
2.01056e+15
2.27959e+15
2.52278e+15
2.77184e+15
2.7493e+15
2.7099e+15
2.67051e+15
2.39924e+15
1.97596e+15
1.57065e+15
1.20509e+15
8.5921e+14
5.44293e+14
3.11247e+14
1.94102e+14
1.65381e+14
1.32573e+14
1.09847e+14
1.48344e+14
2.07056e+14
2.66048e+14
3.43797e+14
4.50767e+14
5.4287e+14
5.4338e+14
4.42609e+14
3.47381e+14
2.60501e+14
1.41262e+14
4.58394e+13
5.21304e+12
1.40454e+16
1.38349e+16
1.36681e+16
1.35246e+16
1.33602e+16
1.31816e+16
1.30242e+16
1.28932e+16
1.27466e+16
1.25884e+16
1.24499e+16
1.23303e+16
1.21997e+16
1.20646e+16
1.19286e+16
1.18083e+16
1.16969e+16
1.15783e+16
1.14586e+16
1.13512e+16
1.12529e+16
1.11491e+16
1.10432e+16
1.09493e+16
1.0864e+16
1.07743e+16
1.06828e+16
1.06028e+16
1.05319e+16
1.04572e+16
1.03809e+16
1.0317e+16
1.02625e+16
1.02049e+16
1.01459e+16
1.01003e+16
1.00665e+16
1.00296e+16
9.99132e+15
9.97165e+15
9.96445e+15
9.95625e+15
9.94794e+15
9.95904e+15
9.99488e+15
1.00288e+16
1.00647e+16
1.0146e+16
1.02517e+16
1.03758e+16
1.0523e+16
1.07302e+16
1.10735e+16
1.15555e+16
1.18221e+16
1.18926e+16
1.16418e+16
1.1075e+16
1.06477e+16
1.0374e+16
1.00924e+16
9.91169e+15
9.86478e+15
9.71032e+15
9.50584e+15
9.24935e+15
8.93278e+15
8.61732e+15
8.3069e+15
8.04993e+15
7.81581e+15
7.5944e+15
7.3818e+15
7.19028e+15
7.01656e+15
6.84869e+15
6.68493e+15
6.53179e+15
6.38011e+15
6.23153e+15
6.07686e+15
5.92339e+15
5.77536e+15
5.62769e+15
5.47858e+15
5.3311e+15
5.19048e+15
5.05507e+15
4.92523e+15
4.80173e+15
4.68373e+15
4.56905e+15
4.45851e+15
4.35171e+15
4.24885e+15
4.14516e+15
4.0451e+15
3.94899e+15
3.85571e+15
3.76295e+15
3.6715e+15
3.58436e+15
3.50036e+15
3.41739e+15
3.33501e+15
3.25664e+15
3.17693e+15
3.09911e+15
3.02528e+15
2.95369e+15
2.8828e+15
2.81242e+15
2.74514e+15
2.67688e+15
2.6102e+15
2.54537e+15
2.48212e+15
2.41928e+15
2.35704e+15
2.29727e+15
2.23595e+15
2.17596e+15
2.11834e+15
2.06212e+15
2.00624e+15
1.95101e+15
1.89804e+15
1.84514e+15
1.79418e+15
1.74518e+15
1.69522e+15
1.64413e+15
1.59264e+15
1.5427e+15
1.49204e+15
1.44074e+15
1.39132e+15
1.34228e+15
1.29388e+15
1.24767e+15
1.20127e+15
1.15549e+15
1.11061e+15
1.06658e+15
1.02231e+15
9.78306e+14
9.35396e+14
8.92926e+14
8.51038e+14
8.10385e+14
7.70028e+14
7.30027e+14
6.91263e+14
6.52673e+14
6.14492e+14
5.77555e+14
5.40744e+14
5.04125e+14
4.68545e+14
4.33063e+14
3.97996e+14
3.64438e+14
3.32014e+14
3.00312e+14
2.69312e+14
2.33592e+14
1.93626e+14
1.59858e+14
1.2742e+14
9.5487e+13
6.48407e+13
3.6447e+13
1.95104e+13
1.58735e+13
1.15123e+13
6.52287e+12
4.68285e+12
2.33763e+12
8.32438e+11
2.60676e+11
6.98551e+10
2.6776e+10
9.56676e+09
4.13375e+09
3.09563e+09
2.04114e+09
1.08249e+09
6.20932e+08
2.74722e+08
1.09306e+08
5.56999e+07
4.88521e+07
2.5423e+07
1.36731e+07
3.99113e+06
2.74611e+06
3.8118e+06
966784
892269
785374
531953
1.13866e+06
7.80509e+06
1.43193e+08
1.2479e+08
1.02511e+08
5.13695e+07
3.38765e+07
1.06615e+06
956010
1.25319e+06
1.94415e+06
2.33209e+06
1.7288e+06
177583
224228
39244.1
46870.4
8617.42
15834.8
28510.7
4138.3
1735.03
1874.62
566.976
369.598
613.17
859.13
318.469
1500.95
1179.71
2959.03
242.701
43941.7
11400.6
39062.9
5194.35
7581.3
8209.73
4993.39
21040.1
5267.54
16578
16575.1
24464.2
4579.08
7545.39
5890.55
68889.2
133336
61094.3
38912.6
32354.5
13628.2
114409
236225
96427.7
434258
317136
10967.8
0.0036881
0.000102575
0.766293
4.20329
11.7933
71308.3
11.229
4.12908e+07
7.38325e+06
2.02088e+06
1.03442
0.0481864
5.7205
148.058
192.033
64.3602
132.953
9.46895
211.646
687.725
1015.54
1416.5
810.023
274.144
1926.74
1130.6
1339.38
1789.14
164.465
1417.69
845.601
681.596
776.723
521.211
721.365
1216.98
123.406
125.981
144.701
10.0106
92.4095
276.919
122.214
65.0386
70.0726
8.25324
17.3737
11.9761
2.19802
2.58115
367.128
59423.6
3.77873e+10
1.61661e+11
4.22285e+11
1.55541e+12
3.74625e+12
7.40269e+12
1.26963e+13
1.9727e+13
2.84369e+13
3.87591e+13
5.06896e+13
6.43114e+13
7.95165e+13
9.60965e+13
1.13785e+14
1.32456e+14
1.52172e+14
1.72665e+14
1.93879e+14
2.15969e+14
2.3863e+14
2.61812e+14
2.85798e+14
3.10192e+14
3.3493e+14
3.6042e+14
3.86196e+14
4.12178e+14
4.3887e+14
4.66329e+14
4.93879e+14
5.21536e+14
5.50001e+14
5.78483e+14
6.0691e+14
6.36175e+14
6.65361e+14
6.94398e+14
7.24197e+14
7.54868e+14
7.85274e+14
8.15411e+14
8.46493e+14
8.77309e+14
9.07623e+14
9.38938e+14
9.71259e+14
1.00308e+15
1.03437e+15
1.06683e+15
1.09881e+15
1.13009e+15
1.16243e+15
1.19591e+15
1.2287e+15
1.26084e+15
1.29417e+15
1.32699e+15
1.35895e+15
1.39195e+15
1.42596e+15
1.4594e+15
1.49199e+15
1.52562e+15
1.56007e+15
1.59393e+15
1.62712e+15
1.66114e+15
1.69471e+15
1.72752e+15
1.76083e+15
1.79467e+15
1.82799e+15
1.86058e+15
1.89342e+15
1.92647e+15
1.95895e+15
1.99077e+15
2.02265e+15
2.05468e+15
2.08573e+15
2.11643e+15
2.14691e+15
2.17676e+15
2.20597e+15
2.23503e+15
2.26396e+15
2.29205e+15
2.31935e+15
2.34672e+15
2.37425e+15
2.40063e+15
2.42598e+15
2.45195e+15
2.47864e+15
2.5039e+15
2.528e+15
2.55346e+15
2.58026e+15
2.6056e+15
2.62962e+15
2.65579e+15
2.6812e+15
2.70509e+15
2.73136e+15
2.76103e+15
2.7901e+15
2.81805e+15
2.84891e+15
2.88335e+15
2.91759e+15
2.95062e+15
2.98594e+15
3.02384e+15
3.06138e+15
3.09728e+15
3.13483e+15
3.17419e+15
3.21293e+15
3.25063e+15
3.28852e+15
3.32674e+15
3.36514e+15
3.40283e+15
3.44004e+15
3.4761e+15
3.50832e+15
3.53843e+15
3.56593e+15
3.5897e+15
3.60952e+15
3.62929e+15
3.64823e+15
3.66182e+15
3.67035e+15
3.67863e+15
3.68624e+15
3.68823e+15
3.68527e+15
3.6813e+15
3.6775e+15
3.66875e+15
3.65448e+15
3.63769e+15
3.61964e+15
3.59734e+15
3.57231e+15
3.54473e+15
3.51512e+15
3.48489e+15
3.45623e+15
3.43038e+15
3.40107e+15
3.37031e+15
3.34593e+15
3.32773e+15
3.30672e+15
3.28274e+15
3.26349e+15
3.24732e+15
3.22851e+15
3.20492e+15
3.18244e+15
3.15963e+15
3.13438e+15
3.10878e+15
3.08016e+15
3.04622e+15
3.00715e+15
2.96921e+15
2.9309e+15
2.88442e+15
2.83016e+15
2.77835e+15
2.72827e+15
2.66977e+15
2.60308e+15
2.52981e+15
2.45956e+15
2.39207e+15
2.31835e+15
2.24017e+15
2.16364e+15
2.09058e+15
2.01495e+15
1.93791e+15
1.86127e+15
1.78582e+15
1.71165e+15
1.63981e+15
1.57088e+15
1.49963e+15
1.42669e+15
1.35815e+15
1.29401e+15
1.22801e+15
1.15962e+15
1.09489e+15
1.03355e+15
9.74314e+14
9.17184e+14
8.59729e+14
8.0332e+14
7.47633e+14
6.95806e+14
6.47975e+14
5.99747e+14
5.50789e+14
5.03014e+14
4.61231e+14
4.2521e+14
3.88673e+14
3.52424e+14
3.21292e+14
2.95352e+14
2.69763e+14
2.44726e+14
2.21177e+14
2.00278e+14
1.82476e+14
1.66209e+14
1.51685e+14
1.38558e+14