/*--------------------------------*- C++ -*----------------------------------*\
| =========                 |                                                 |
| \\      /  F ield         | OpenFOAM: The Open Source CFD Toolbox           |
|  \\    /   O peration     | Version:  v2012                                 |
|   \\  /    A nd           | Website:  www.openfoam.com                      |
|    \\/     M anipulation  |                                                 |
\*---------------------------------------------------------------------------*/
FoamFile
{
    version     2.0;
    format      ascii;
    class       volScalarField;
    location    "1e-06";
    object      totalP;
}
// * * * * * * * * * * * * * * * * * * * * * * * * * * * * * * * * * * * * * //

dimensions      [1 -1 -2 0 0 0 0];


internalField   nonuniform List<scalar> 
102000
(
157986
107958
118323
117607
116606
112213
110974
115349
114775
110553
110425
114104
112587
112760
109925
110924
113158
112304
109975
110471
112839
112284
109736
110348
112626
112237
109680
110136
112589
112358
109466
110107
112620
112567
109471
109736
112988
113083
108716
110196
113031
113460
109472
108318
114422
114860
105388
111054
112353
113354
108227
97696.8
89375.7
145124
124772
143557
160663
89921.5
93812.9
126267
102858
91467.8
132656
115589
117969
121099
113829
114011
105785
108339
110729
111954
107581
106947
109282
109507
105890
108765
107437
107342
106063
106117
106312
105786
104914
104500
104520
103828
102629
102414
102568
101878
101095
100219
101704
99555.1
99492.3
99161.7
99444.4
98679.9
97525.8
97459.5
97489.9
96831.3
95117.5
96844.5
95318.4
94388
94200
94489.5
93941
92060.3
93309.3
90939.6
91649.3
90964.6
91363.9
90865.7
88713.6
90240.6
87723.4
88058.4
87681.7
88187.4
87473.3
85561.4
86797.5
85490.8
83892.5
84635.4
84541.9
83977.3
82142.4
83082
82587.8
80669.5
81426.3
80815.7
78470.4
79440.8
77457.8
77685.1
77157.7
77596.6
76789.2
75268.2
75918.2
75226.8
73360
74269.6
73639
71432
72517.2
71808.5
69550.9
70719.9
70199.1
67785.2
68995.3
68529
65919.7
65866.4
64661.9
59451.7
67422.4
75683
59059.8
64052.7
63884.9
61774.5
77124.6
63730.5
53809.5
57049.3
50720.7
50224.2
47231.3
44059.1
41352
34172.3
16147.2
-1830.92
-7293.42
-9244.06
-9087.81
-10921.4
-11755.8
-12274
-12715.2
-12890.7
-13978.5
-13773.4
-13753.9
-13912.7
-14601.1
-14758.4
-14746.3
-14898.5
-15399.8
-17584.5
-19088.9
-22325.7
-17871.1
-16316.8
-14820.5
-14707.8
-13462.8
-13315
-12916.7
-13103.7
-12179.7
-12045
-7071.39
-5193.92
-778.072
-143.538
-1011.28
-1387.08
-1796.3
-1931.06
-1641.94
-2172.62
-2376.2
-2237.96
-1943.86
-2119.2
-1976.81
-2067.14
-2044.77
-2046.79
-2026.83
-1936.28
-1815.92
-1253.93
-2213.78
-2449.49
-1070.65
-1026.77
-2161.98
-1830.11
-1734.91
-1993.31
-2146.27
-1018.79
-722.79
-1823.61
-1583.51
-1650.18
-2019.94
-2118.16
-2155.96
-2083.96
-1901.4
-1718.19
-1347.25
-1348.22
-1180.42
-727.298
-95.6733
2013.52
2013.58
2012.75
1943.9
2007.61
1949.34
2049.31
1965.81
2413.46
2014.37
2071.85
2027.06
2025.33
1956.34
2013.09
1972.15
2025.48
2017.74
2006.44
2008.57
2010.78
2025.53
2025.74
2026
2022.45
2020.1
2018.58
2015.8
2014.96
3325.36
2021.28
2021.43
2026.08
2042.32
2051.31
2077.31
2081.3
2095.92
2097.19
2073.63
2061.9
2011.6
2089.69
2267.96
2433.22
2379.91
2530.17
2546.9
2550.46
2718.22
2850.82
2882.14
4052.47
82337.5
129658
172831
209984
241720
266067
279965
287763
291207
291445
289747
287468
284248
281111
277470
273306
270218
266864
262992
260678
257912
254274
252938
250759
247899
246838
245136
242869
241306
240811
239554
237221
237399
236449
234320
234744
234101
232424
231789
232504
232120
229968
231379
231223
229672
229477
230790
230741
228756
230697
230865
229447
229584
231198
231412
229621
231728
232101
230941
231269
232834
233261
232172
232748
234108
234442
233513
235012
235575
235019
235543
236583
237120
236823
237390
238274
238776
238671
239433
240229
240333
240788
241594
242165
242374
242809
243872
244428
244454
244920
246469
247052
246761
247336
249474
250091
249408
250185
252729
253457
251670
254933
255985
254887
255385
258441
259505
258257
258972
261934
263151
262108
263174
265443
266905
265957
267043
269022
269897
270049
270952
271840
273077
273566
274423
276300
275837
276834
278047
278997
277752
278850
281478
281944
280468
281480
284484
284715
283907
284125
287539
288242
288017
288305
291308
291029
292572
293639
294445
295003
294958
300022
300464
298492
299985
305670
306918
304334
306885
310428
312804
310916
313490
315809
315625
318234
320365
322216
319826
321701
326761
327901
323478
324937
331763
331327
333228
328894
330418
337264
337004
335744
336085
341968
341522
343120
344414
346711
347782
348435
354745
356340
353965
356630
363691
366213
363101
366736
369957
371607
376031
376390
380087
378740
380857
387860
388987
392283
386086
388551
399074
399423
394416
395750
406755
406576
408496
408848
409887
416293
417475
421656
423831
426552
429930
433690
437649
441124
442666
447261
447238
453464
463826
464299
468637
473912
476101
485534
490129
493084
499576
514759
520766
530571
546094
557207
570714
587125
607102
642311
665739
681912
715788
770202
810201
839916
896983
950148
1.03756e+06
1.10796e+06
1.16493e+06
1.25688e+06
1.37845e+06
1.48172e+06
1.56552e+06
1.6888e+06
1.80683e+06
1.95936e+06
2.08304e+06
2.18094e+06
2.31242e+06
2.44112e+06
2.57797e+06
2.70235e+06
2.80818e+06
2.9479e+06
3.05396e+06
3.15849e+06
3.25987e+06
3.35679e+06
3.44481e+06
3.5254e+06
3.60312e+06
3.65706e+06
3.71589e+06
3.74465e+06
3.74622e+06
3.73622e+06
3.7143e+06
3.64917e+06
3.56318e+06
3.47394e+06
3.31653e+06
3.16184e+06
2.98126e+06
2.83975e+06
2.64582e+06
2.42639e+06
2.25244e+06
2.19128e+06
2.03036e+06
1.81248e+06
1.86461e+06
1.76374e+06
1.54088e+06
1.63712e+06
1.57893e+06
1.42434e+06
1.43211e+06
1.40626e+06
1.42001e+06
1.39574e+06
1.30472e+06
1.32526e+06
1.39422e+06
1.25997e+06
1.2513e+06
1.35672e+06
1.22171e+06
1.21117e+06
1.29499e+06
1.18846e+06
1.17198e+06
1.21452e+06
1.16584e+06
1.1178e+06
1.1615e+06
1.10192e+06
973273
1.11739e+06
1.05243e+06
816496
1.00056e+06
990738
848448
871507
909951
943853
801165
768726
903781
713811
679497
782052
723749
625594
606662
611560
588890
542021
458525
382013
515452
450038
286103
388190
374746
296290
266301
282953
301812
301254
165827
134372
224416
128166
60929.9
99989.4
159677
109676
120257
119077
117894
113636
112521
116593
115814
111764
111792
115230
113496
113847
111169
111993
114000
113307
111131
111503
113668
113220
110823
111351
113440
113118
110705
111110
113384
113186
110432
111047
113389
113342
110373
110632
113722
113797
109549
111034
113708
114108
110209
109064
115027
115405
106014
111680
112813
113783
108629
98070.1
89633.1
144597
124219
143240
160591
90076.3
94494.7
126956
103456
92125.4
133089
116066
118227
121357
114559
114799
106745
109416
112190
113331
108799
108269
110910
110967
107436
110216
109162
108803
107149
107639
108035
107272
106187
106210
106336
105442
104195
104370
104450
103533
102840
102357
103599
101025
101433
101325
101328
100349
99665.4
99593.3
99362.1
98753.6
97501.2
98961
96930.4
96591.4
96578.4
96569
95905.5
94539.2
95590.6
94757.3
94002.4
93556.1
93629.9
92945.9
91346.9
92699.6
90942.1
90591.6
90450.3
90609.4
89813.7
88483.6
89442.2
87557.7
86599.5
87299.7
86929.9
86407.5
85021
85571.4
84864.8
83642.1
84210.1
83056.5
81527.2
82424.8
82321.6
80826.9
80468.1
80583.5
79813.8
78802.5
79048.4
78337.8
77188.1
77634.9
76782.7
75497.8
76100.2
75027.9
73740.3
74526
73507.6
72118.5
72984.4
72001.9
70424
69922.1
68090.6
63743
70110.7
77456
63417.1
68562.7
69392
68838.5
87667.4
74124.3
63885.2
68316.3
61729.7
61390
61472.3
57146.4
53432.5
50084.4
33574.7
15625.5
12231
10442.7
8967.77
7638.83
6681.84
5709.43
5571.06
4538.97
4235.55
4615.17
4200.99
4496.38
3324.43
3630.16
4064.07
3284.77
3442.24
1894.19
2255.51
3718.14
6061.34
7933.91
7857.69
8519.77
8610.75
9232.67
7565.33
7656.78
4890.78
4728.31
2190.95
3102.56
2268.29
2848.54
552.431
294.834
-743.012
-812.964
-555.408
-1568.29
-1601.75
-1825.09
-1620.21
-1860.44
-1752.25
-1907.85
-1892.89
-1955.31
-1935.54
-1890.51
-1767.98
-1212.58
-2037.88
-2275.91
-1527.78
-1480.9
-2035.19
-2041.76
-1741.39
-2035.32
-2034.62
-1465.28
-1274.26
-1760.57
-1811.46
-1649.48
-2020.1
-2117.49
-2155.56
-2083.52
-1900.91
-1717.41
-1345.79
-1350.36
-1184.44
-744.878
-113.27
1935.95
2002.42
1976.73
1919.65
1975.78
1965.63
2070.85
1992.58
2429.91
2036.66
2076.68
2025.5
2017.39
1946.59
1876.91
1836.37
1806.15
1694.77
1764.84
1763.84
1799.67
1802.99
1603.18
1681.99
1595.24
1499.42
1698.1
1638.9
1599.22
1824
1657.15
1669.24
1756.16
1687.26
1784.91
1891.5
1795.77
1904.23
1959.28
1825.46
1920.88
1986.71
2075.43
2335.42
2536.2
2513.79
2641.07
2736.32
2757.64
2929.32
3151.03
3198.75
4294.56
82923.5
130329
173394
210671
242502
266687
280689
288561
291809
292104
290527
288052
284855
281828
278034
273828
270849
267403
263463
261231
258452
255146
253416
251266
248278
247258
245627
243240
241661
241236
239922
237553
237754
236810
234582
235040
234452
232688
232028
232789
232385
230411
231606
231476
229856
229658
231003
230928
229077
230855
231042
229572
229706
231340
231540
229837
231825
232218
231022
231340
232918
233341
232227
232807
234179
234499
233558
235063
235633
235060
235580
236629
237164
236855
237426
238318
238816
238746
239466
240262
240357
240806
241619
242192
242392
242823
243892
244450
244466
244930
246481
247066
246767
247338
249477
250096
249409
250178
252723
253455
251671
254918
255976
254878
255373
258426
259500
258254
258970
261932
263154
262112
263173
265445
266914
265968
267051
269032
269913
270065
270972
271861
273096
273586
274439
276312
275848
276846
278067
279018
277770
278863
281489
281955
280477
281484
284488
284721
283911
284127
287541
288243
288018
288305
291308
291029
292568
293636
294442
295002
294957
300021
300466
298495
299991
305682
306930
304346
306887
310438
312827
310938
313504
315835
315656
318261
320384
322236
319847
321710
326773
327911
323486
324945
331767
331329
333229
328894
330418
337265
337005
335744
336084
341970
341524
343122
344414
346710
347782
348437
354746
356340
353965
356619
363681
366212
363100
366730
369954
371603
376033
376390
380088
378740
380851
387859
388986
392283
386086
388541
399076
399427
394424
395757
406766
406588
408514
408872
409905
416311
417497
421682
423854
426568
429942
433710
437669
441141
442679
447277
447260
453490
463820
464487
468740
473936
476123
485565
490163
493122
499629
514804
520804
530618
546150
557256
570747
587160
607142
642350
665763
681925
715792
770217
810209
839915
896950
950131
1.03754e+06
1.10794e+06
1.1649e+06
1.25683e+06
1.37839e+06
1.48172e+06
1.56547e+06
1.68875e+06
1.80677e+06
1.95932e+06
2.08301e+06
2.18091e+06
2.31238e+06
2.44109e+06
2.57796e+06
2.70236e+06
2.8081e+06
2.94777e+06
3.05385e+06
3.15838e+06
3.25976e+06
3.35668e+06
3.4447e+06
3.52529e+06
3.603e+06
3.65694e+06
3.71577e+06
3.74454e+06
3.74619e+06
3.7362e+06
3.7143e+06
3.64916e+06
3.56316e+06
3.47393e+06
3.31652e+06
3.16183e+06
2.98125e+06
2.83976e+06
2.64584e+06
2.4264e+06
2.25246e+06
2.19133e+06
2.0304e+06
1.81253e+06
1.86471e+06
1.76386e+06
1.541e+06
1.63733e+06
1.57918e+06
1.42456e+06
1.43235e+06
1.40655e+06
1.42024e+06
1.39595e+06
1.30493e+06
1.32542e+06
1.39436e+06
1.26013e+06
1.25143e+06
1.35683e+06
1.22184e+06
1.21127e+06
1.29507e+06
1.18855e+06
1.17205e+06
1.21457e+06
1.16593e+06
1.11785e+06
1.16155e+06
1.102e+06
973337
1.11751e+06
1.05257e+06
816644
1.0008e+06
990979
848652
871720
910131
943986
801312
768858
903886
713941
679634
782149
723836
625685
606735
611608
588958
542127
458593
382118
515631
450185
286258
388387
374956
296471
266454
283134
301943
301380
166002
134509
224510
128271
61048.8
100076
162091
112229
122790
121443
120132
115727
114579
118560
117686
113576
113578
116971
115122
115510
112792
113614
115544
114877
112669
113037
115176
114720
112296
112819
114891
114557
112119
112517
114777
114565
111786
112392
114719
114656
111659
111906
114978
115030
110752
112222
114864
115242
111296
110129
116062
116382
106949
112579
113626
114565
109279
98655.4
90122.8
145841
125620
144825
161360
90199.6
95345.6
127819
104358
93260.6
134625
117717
120210
123171
116249
114957
108347
111162
114043
115202
110667
110262
112943
113028
109377
112376
111325
110996
109363
109955
110340
109616
108576
108650
108773
107897
106715
106916
107005
106004
105457
105003
106265
103631
104179
104068
104097
103156
102521
102446
102141
101669
100452
101921
99866.2
99640.2
99619.3
99607
99010.4
97697.2
98772.6
96890.5
97186.1
96788.4
96874.3
96250.8
94712.7
96037.8
94058.7
94002.9
93888
94009.8
93313.5
92032.3
92987.2
91110.2
90273.1
90951.3
90390.4
90158
88781.2
89299
88747.5
87542.2
88098.4
87013.3
85607.7
86567.7
85159.1
84892.4
84651.2
84581.4
84055.5
83074.9
83154.3
82648.6
81564.6
81961.6
81265.6
80055.7
80642
79697.3
78547.3
79295.1
78423.3
77164.5
78007.9
77179.5
75753.2
75171.3
73443.5
69069.6
75550.2
83400.6
70013
74685.8
76150.2
76082.2
93220.6
76982.4
66538.7
68730.1
61427.4
59469.3
54573.7
51607.1
47789.9
42774.2
26841.4
21505.1
19986.7
19854.7
19043.5
19675.1
20054.2
19562.1
19496
17319.1
17777.7
17700.2
17194.7
17587.3
15706.6
16536.7
16757.7
15867.4
16351.5
14870.3
16379.8
19718.4
22827.5
24605.6
24157.4
24742.6
24359.5
24984.9
22886.1
23022.7
18606.6
18273.1
10410.2
11378.3
6637.83
6986.62
3211.45
2995.43
1014.32
1046.99
888.372
-465.496
-823.748
-1045.84
-938.987
-1307.17
-1248.2
-1530.77
-1532.63
-1715.33
-1694.64
-1752.72
-1617.31
-1132.22
-1979.75
-2219.04
-1567.88
-1538.29
-2028.95
-2035.63
-1727.69
-2046.77
-2039.76
-1504.4
-1322.86
-1763.58
-1816.08
-1649.17
-2018.1
-2116.26
-2156.02
-2083.38
-1900.37
-1716.72
-1343.15
-1350.22
-1183.2
-743.406
-127.74
1795.78
2003.44
2003.62
1948.75
2009.11
2009.23
2113.98
2041.25
2453.12
2064.52
2088.78
2029.45
2019.4
1967.79
1934.44
1888.82
1873.35
1748.51
1828.87
1829.9
1868.96
1861.44
1667.7
1720.95
1835.32
1573.81
1751.3
1711.75
1668.77
1884.78
1741.21
1755.63
1854.83
1837.65
1905.35
2034.25
1970.46
2051.76
2140.56
2043.17
2126.59
2277.19
2366.61
2627.06
2812.44
2766.61
2922.64
3078.76
3104.91
3303.4
3559.68
3617.05
4511.67
83590.8
130986
174174
211470
243338
267531
281505
289358
292605
292858
291281
288801
285551
282492
278717
274459
271457
268010
264038
261788
259000
255501
253952
251788
248776
247728
246087
243691
242089
241646
240337
237933
238124
237184
234935
235370
234780
233002
232321
233066
232658
230575
231857
231717
230083
229867
231198
231119
229192
231026
231207
229726
229846
231468
231665
229909
231937
232326
231121
231427
232998
233424
232305
232872
234242
234565
233616
235114
235687
235111
235624
236670
237209
236898
237464
238357
238855
238769
239506
240303
240403
240845
241655
242231
242431
242856
243922
244484
244498
244954
246503
247090
246789
247352
249488
250110
249420
250177
252726
253458
251667
254919
255976
254876
255366
258412
259493
258247
258957
261915
263147
262105
263160
265433
266911
265965
267043
269026
269913
270067
270968
271855
273096
273586
274436
276330
275865
276858
278061
279019
277772
278855
281483
281956
280479
281476
284486
284722
283912
284128
287540
288244
288019
288304
291309
291029
292564
293633
294440
295002
294957
300020
300468
298499
299986
305693
306930
304361
306899
310456
312856
310971
313532
315872
315691
318291
320418
322269
319872
321734
326794
327928
323497
324953
331774
331332
333232
328894
330417
337266
337007
335746
336085
341973
341527
343123
344413
346713
347782
348435
354740
356340
353963
356608
363670
366211
363100
366724
369951
371599
376035
376392
380090
378740
380852
387860
388985
392282
386086
388543
399080
399435
394435
395770
406786
406611
408539
408900
409936
416344
417526
421709
423883
426599
429966
433732
437691
441169
442707
447305
447290
453524
463841
464295
468661
473954
476166
485617
490219
493180
499691
514871
520873
530675
546204
557315
570798
587204
607170
642371
665795
681948
715787
770206
810207
839916
896963
950093
1.03749e+06
1.1079e+06
1.16486e+06
1.25677e+06
1.37832e+06
1.48167e+06
1.5654e+06
1.68869e+06
1.8067e+06
1.95926e+06
2.08297e+06
2.18088e+06
2.31235e+06
2.44106e+06
2.57794e+06
2.70237e+06
2.80816e+06
2.94786e+06
3.05396e+06
3.15849e+06
3.25987e+06
3.35679e+06
3.44481e+06
3.5254e+06
3.60316e+06
3.65711e+06
3.71595e+06
3.7447e+06
3.74627e+06
3.73627e+06
3.71438e+06
3.64926e+06
3.56327e+06
3.47404e+06
3.31664e+06
3.16196e+06
2.98137e+06
2.83985e+06
2.64586e+06
2.42643e+06
2.2525e+06
2.19139e+06
2.03046e+06
1.81262e+06
1.86485e+06
1.76402e+06
1.54122e+06
1.63762e+06
1.5795e+06
1.42495e+06
1.43275e+06
1.40693e+06
1.42063e+06
1.39631e+06
1.30523e+06
1.32571e+06
1.39461e+06
1.26036e+06
1.25165e+06
1.35704e+06
1.22202e+06
1.21144e+06
1.29521e+06
1.18868e+06
1.17217e+06
1.21467e+06
1.16603e+06
1.11794e+06
1.16164e+06
1.1021e+06
973455
1.11771e+06
1.05278e+06
816947
1.00115e+06
991340
849033
872036
910442
944239
801568
769076
904101
714185
679831
782326
724025
625820
606844
611696
589053
542226
458719
382288
515852
450425
286546
388675
375254
296766
266714
283384
302173
301612
166258
134718
224706
128436
61211.9
100236
162233
112388
122946
121580
120266
115840
114691
118665
117822
113671
113673
117061
115496
115597
112875
113696
115811
114959
112746
113115
115295
114796
112369
112892
114983
114630
112188
112586
114857
114635
111851
112457
114792
114724
111720
111966
115045
115096
110808
112277
114924
115305
111345
110178
116114
116437
106991
112617
113667
114611
109305
98680
90174.1
145045
124846
144100
161081
90762.4
95422
127829
104354
93343.1
134330
117435
119825
122822
116058
116387
108527
111265
114147
115299
110944
110382
113055
113144
110074
112511
111457
111122
109863
110108
110487
109775
108801
108809
108935
108124
106918
107092
107186
106512
105661
105194
106471
104468
104395
104273
104358
103444
102750
102674
102695
101913
100695
102182
100601
99904.7
99873.2
100002
99316.6
97987.7
99028.1
98149
97500.2
97072.7
97296.5
96616
95055.8
96351.9
95462.4
94353.6
94210
94560.3
93715.6
92368.1
93376.4
91954.1
90709.3
91361.6
91597.2
90580.3
89190.1
89917.9
89269
87950.5
88585.9
87855.3
86111.5
86982.4
86767.9
85414.2
85125.3
85937
84598.3
83525.1
84104.1
83228.7
82039.3
82765
81928.5
80557.7
81405.8
80465.5
79073
80075.4
79289.6
77723
78839.6
78032
76316.9
76224.9
74494.5
70015.1
76885
84060.5
71115.5
76483.1
77132.8
77190.6
95136.3
79413
68410.9
72549.3
66564.8
64281.1
61427.2
57601.5
54025.1
45083.9
30053.2
23762.9
21775.6
21999.7
21940.4
22524
23238.7
22781
23355.7
23296.1
23478.2
24114.6
23748.2
24358.2
24084.4
23881
24601.3
23088
23582.6
23270.3
24212
29391.7
31150.2
32224.5
31503.9
32280.6
31800.2
32626.9
31063.7
31222.3
26053.5
25084.2
19927.4
15675.2
8354.95
8074.74
4202.23
3515.98
1775.86
1343.44
1002.39
-346.82
-412.441
-945.171
-731.063
-1237.04
-1152.87
-1470.24
-1484.19
-1652.21
-1670.22
-1688.18
-1602.78
-1095.38
-1962.75
-2191.59
-1577.45
-1541.1
-2024.95
-2035.74
-1718.71
-2045.6
-2035.02
-1506.71
-1325.4
-1761.11
-1816.53
-1646.12
-2015.69
-2114.7
-2155.64
-2082.67
-1899.9
-1716.18
-1339.62
-1352.03
-1182.88
-755.056
-151.056
1724.65
2003.3
2003.51
1947.06
2004.59
2024.21
2112.85
2051.85
2447.68
2067.31
2088.5
2025.01
2019.89
1971.3
1942.38
1903.62
1889.66
1766.33
1869.34
1851.04
1902.8
1919.4
1709.28
1747.21
1845.41
1621.42
1789.87
1743.23
1725.89
1909.02
1780.89
1790.49
1912.42
1881.37
1937.33
2080.57
2032.71
2083.14
2159.77
2074.3
2161.78
2313.46
2396.99
2676.49
2822
2776.23
2926.63
3059.92
3094.98
3366.38
3572.42
3640.11
4480.72
83665
131063
174341
211565
243452
267735
281615
289440
292741
292958
291370
288912
285653
282554
278792
274556
271517
268075
264175
261844
259075
255698
254002
251850
248861
247781
246133
243746
242151
241689
240391
238040
238162
237232
234998
235410
234816
233039
232364
233097
232694
230665
231881
231746
230110
229892
231218
231141
229249
231039
231225
229742
229859
231479
231680
229947
231941
232339
231129
231435
233005
233433
232316
232874
234249
234571
233625
235116
235692
235114
235626
236671
237213
236904
237464
238357
238859
238777
239507
240301
240403
240844
241653
242231
242429
242852
243919
244484
244498
244949
246499
247091
246789
247346
249489
250110
249419
250168
252727
253459
251662
254919
255974
254873
255358
258412
259491
258245
258951
261915
263148
262102
263152
265435
266912
265966
267047
269028
269915
270069
270975
271861
273100
273591
274446
276332
275867
276857
278073
279028
277775
278857
281487
281959
280480
281477
284487
284723
283913
284129
287541
288244
288019
288303
291310
291029
292563
293630
294438
295002
294956
300020
300467
298499
299977
305681
306947
304364
306890
310457
312858
310971
313531
315875
315693
318290
320417
322272
319873
321726
326795
327930
323497
324946
331776
331333
333233
328894
330418
337266
337007
335747
336084
341974
341527
343124
344409
346714
347781
348431
354741
356340
353962
356597
363661
366211
363099
366718
369947
371594
376035
376391
380091
378740
380847
387860
388981
392283
386084
388532
399081
399435
394436
395767
406787
406612
408540
408900
409936
416345
417527
421707
423880
426597
429963
433727
437687
441168
442704
447305
447290
453528
463884
464478
468743
473946
476168
485611
490220
493182
499687
514872
520877
530669
546206
557309
570786
587203
607149
642367
665787
681937
715757
770194
810187
839909
896978
950055
1.03745e+06
1.10786e+06
1.16483e+06
1.25672e+06
1.37825e+06
1.48164e+06
1.56534e+06
1.68863e+06
1.80663e+06
1.95919e+06
2.08293e+06
2.18084e+06
2.3123e+06
2.44102e+06
2.5779e+06
2.70236e+06
2.80806e+06
2.94771e+06
3.0538e+06
3.15834e+06
3.25972e+06
3.35665e+06
3.44467e+06
3.52528e+06
3.60301e+06
3.65695e+06
3.7158e+06
3.74461e+06
3.74623e+06
3.73625e+06
3.71436e+06
3.64924e+06
3.56324e+06
3.47402e+06
3.31662e+06
3.16194e+06
2.98135e+06
2.83987e+06
2.64586e+06
2.42643e+06
2.2525e+06
2.19139e+06
2.03046e+06
1.81262e+06
1.86485e+06
1.76402e+06
1.54123e+06
1.63763e+06
1.57951e+06
1.42495e+06
1.43276e+06
1.40694e+06
1.42063e+06
1.39631e+06
1.30523e+06
1.32571e+06
1.39462e+06
1.26036e+06
1.25165e+06
1.35704e+06
1.22202e+06
1.21144e+06
1.29522e+06
1.18868e+06
1.17217e+06
1.21467e+06
1.16604e+06
1.11794e+06
1.16164e+06
1.10211e+06
973457
1.11771e+06
1.05279e+06
816962
1.00116e+06
991344
849037
872041
910447
944241
801570
769079
904110
714201
679831
782329
724056
625820
606844
611698
589053
542265
458769
382290
515854
450427
286547
388679
375275
296770
266717
283387
302178
301616
166296
134717
224718
128434
61214
100241
163999
114668
125245
123820
122368
117816
116639
120519
119576
115379
115362
118699
116965
117156
114401
115216
117215
116425
114188
114551
116691
116193
113746
114264
116329
115969
113509
113900
116151
115918
113115
113714
116028
115946
112921
113158
116214
116244
111934
113389
116007
116364
112368
111183
117086
117358
107878
113471
114450
115355
109943
99264.6
90691.4
145917
125676
145161
161675
91218.3
96113.2
128471
105126
94282.9
135348
118590
121180
124137
117459
117624
109829
112684
115716
116892
112533
112115
114848
114956
111683
114413
113383
113076
111720
112157
112548
111876
110891
110994
111128
110339
109175
109399
109501
108711
108019
107603
108892
106700
106870
106763
106870
105960
105337
105268
105172
104528
103379
104881
103138
102663
102641
102758
102100
100875
101919
101048
100430
100027
100248
99574.1
98150
99424.5
98553.5
97485.4
97353.2
97651.3
96874.8
95610
96618.3
95051
94057.4
94719.3
94568.2
93915.6
92611.8
93310.9
92728.4
91491.6
92155.1
91260.9
89827.4
90725.2
90504.1
89181.3
88915.8
89333.9
88381.8
87405.5
87796.6
87090.3
86018.2
86662.2
85906.2
84687.1
85497.4
84574.3
83386.5
84339.1
83540
82229
83306.1
82477.7
81028.4
80986.8
79301.7
75161.6
81942.7
88615.4
76994.6
81913.6
82967.1
83634.1
100304
84223.5
73414.4
77557.5
71112.1
67627.6
65396.9
61364.8
55968.5
48101
34061.2
28184.1
25736.2
25567.9
25601.2
26151.8
27049.7
26551.7
27253.5
27357.4
27383.7
28071.8
27710.3
28358.6
28625.3
28563.6
29222.6
28291.1
28891.7
29010.1
30325.5
34663.3
36421.9
37469.6
36960.1
37770.3
37465.4
38341.3
37668.9
38339.3
34402.5
33056.4
24604.7
21969.1
12505.9
12034.3
7057.98
6438.42
3813.13
3440.04
2639.72
954.55
821.647
45.7643
152.79
-508.64
-475.573
-938.577
-972.34
-1281.74
-1306.87
-1447.93
-1365.71
-918.458
-1824.19
-2066.24
-1572.39
-1525.8
-1978.08
-1991.64
-1682.57
-2027.57
-2018.16
-1557.72
-1373.98
-1756.14
-1815.25
-1643.27
-2014.37
-2113.11
-2156.9
-2083.08
-1900.27
-1716.44
-1335.04
-1353.77
-1182.25
-758.621
-187.662
1429.53
2003.75
2004.91
1939.87
1997
2054.08
2127.66
2078.81
2464.91
2103.56
2112.42
2044.43
2038.3
1973.74
1949.36
1917.72
1926.05
1802.08
1924.72
1883.99
1932.36
1981.93
1791.63
1814.61
1907.15
1720.58
1880.53
1856.71
1851.46
2028.12
1921.09
1929.17
2048.7
2049.55
2086.72
2239.08
2217.52
2240.57
2317.98
2266.64
2385.49
2520.37
2597.53
2828.89
2942.94
2910.26
3037.18
3244.7
3285.41
3566.52
3803.86
3886.53
4788.2
84034.3
131501
174768
212074
243991
268243
282090
289925
293204
293407
291821
289343
286061
282936
279172
274908
271867
268423
264480
262165
259394
255983
254296
252156
249129
248046
246395
243999
242385
241919
240619
238228
238368
237444
235178
235592
234999
233206
232516
233247
232846
230785
232010
231875
230225
229997
231319
231242
229327
231124
231310
229815
229924
231542
231744
229994
231989
232393
231172
231471
233044
233470
232346
232898
234277
234599
233644
235140
235715
235134
235641
236689
237231
236918
237478
238374
238875
238790
239524
240310
240417
240853
241662
242243
242439
242858
243928
244493
244504
244950
246505
247096
246790
247340
249490
250111
249415
250157
252725
253457
251651
254916
255968
254868
255347
258408
259486
258241
258943
261911
263150
262101
263146
265434
266918
265973
267048
269032
269926
270080
270984
271870
273110
273603
274454
276346
275879
276864
278078
279037
277782
278855
281488
281963
280482
281471
284486
284724
283912
284127
287534
288242
288018
288300
291309
291027
292559
293627
294438
295003
294957
300024
300472
298505
299986
305694
306961
304380
306910
310480
312884
310998
313557
315903
315717
318308
320433
322294
319888
321730
326801
327939
323500
324941
331779
331333
333232
328891
330408
337266
337007
335746
336081
341975
341527
343125
344405
346715
347782
348432
354741
356342
353962
356598
363663
366214
363101
366720
369950
371595
376037
376391
380092
378739
380838
387855
388974
392281
386084
388520
399081
399438
394440
395767
406797
406623
408553
408914
409949
416362
417543
421724
423897
426615
429974
433743
437703
441184
442719
447321
447308
453547
463825
464408
468759
473952
476197
485634
490251
493214
499714
514904
520912
530699
546246
557348
570822
587237
607179
642393
665811
681957
715774
770207
810199
839919
896894
950060
1.03745e+06
1.10786e+06
1.16483e+06
1.25672e+06
1.37825e+06
1.48164e+06
1.56533e+06
1.68864e+06
1.80663e+06
1.9592e+06
2.08294e+06
2.18086e+06
2.31232e+06
2.44104e+06
2.57793e+06
2.70238e+06
2.80808e+06
2.94776e+06
3.05386e+06
3.1584e+06
3.25978e+06
3.3567e+06
3.44472e+06
3.52532e+06
3.60308e+06
3.65703e+06
3.71588e+06
3.74465e+06
3.74627e+06
3.73629e+06
3.71441e+06
3.6493e+06
3.56332e+06
3.4741e+06
3.31671e+06
3.16203e+06
2.98144e+06
2.83988e+06
2.64592e+06
2.4265e+06
2.25255e+06
2.19145e+06
2.03057e+06
1.8127e+06
1.86497e+06
1.76419e+06
1.54141e+06
1.63787e+06
1.5798e+06
1.42528e+06
1.4331e+06
1.40727e+06
1.42097e+06
1.39663e+06
1.30549e+06
1.32594e+06
1.39484e+06
1.26056e+06
1.25184e+06
1.35721e+06
1.22217e+06
1.21158e+06
1.29533e+06
1.18877e+06
1.17225e+06
1.21474e+06
1.16611e+06
1.118e+06
1.1617e+06
1.10223e+06
973556
1.11788e+06
1.05305e+06
817223
1.00148e+06
991682
849379
872317
910713
944468
801770
769275
904298
714374
679994
782466
724162
625904
606920
611763
589147
542383
458925
382438
516053
450716
286809
388942
375559
297033
266952
283603
302379
301819
166481
134891
224878
128562
61343.8
100373
165380
116756
127381
125985
124400
119730
118527
122311
121259
117023
116989
120274
118343
118646
115860
116667
118527
117820
115560
115916
118007
117518
115053
115565
117599
117236
114760
115145
117372
117130
114312
114904
117196
117101
114060
114289
117322
117332
113005
114448
117037
117371
113348
112148
118018
118245
108739
114304
115221
116088
110590
99866.7
91251.4
146002
125926
145534
161954
91288.7
96581.1
128901
105606
95043.1
136008
119369
122066
125062
118471
118642
110897
113856
117015
118225
113845
113599
116397
116524
113106
116086
115083
114792
113351
113991
114390
113735
112756
112956
113099
112299
111204
111480
111592
110642
110147
109785
111081
108657
109109
109021
109128
108220
107679
107627
107369
106897
105818
107308
105386
105160
105157
105223
104618
103493
104524
103076
103071
102709
102893
102251
100954
102215
100687
100294
100206
100396
99729.1
98554
99545
97857.3
97101.8
97740.5
97283.6
96960.8
95726.7
96328.1
95827.8
94686.3
95338.2
94326.1
93190.1
94058.2
93136.2
92516.4
92320.8
92403.1
91794.7
90899.6
91048.3
90555.1
89595.4
90089.6
89464.4
88385
89091
88227.3
87229.9
88079.4
87315
86241.3
87208.1
86418.5
85223.6
85267.1
83758.1
79984.9
86620.9
92452.1
81951.7
86538.6
88037.6
89273.6
104435
88965.4
78866.8
81192.4
75239.3
72207.5
69401.8
64333
59478.1
52262.5
37761.2
32779.2
30425.6
30138.3
29775.8
30608.9
31101.3
31001.7
31941.1
31601.4
32139.6
32520.3
32273.7
32998.3
32333
32983.7
33241
32750.4
33311
33127.1
34714
38329
40531.8
41512.5
41269.5
41899.2
41909.9
42832.7
42618.7
43447.5
41951.7
41751
31235.8
29534.1
18104.5
17547.1
10834.2
10381.3
6442.3
6278.96
4527.58
2763.33
2222.25
1430.18
1328.46
547.443
485.517
-140.019
-196.166
-704.77
-711.215
-1056.52
-936.882
-644.378
-1568.2
-1845.51
-1442.59
-1387.77
-1875.38
-1883.11
-1608.64
-1976.06
-1976.79
-1556.83
-1373.25
-1741.97
-1803.29
-1631.2
-2007.24
-2110.49
-2155.82
-2081.09
-1900.58
-1716.56
-1329.07
-1356.64
-1182.72
-765.275
-201.642
1305.01
1897.56
2005.03
1974.12
2022.44
2091.62
2147.72
2105.98
2458.98
2118.04
2115.84
2060.58
2057.39
2014.12
2020.87
1981.75
1996.53
1871.71
1984.77
1934.43
1975.32
2052.85
1887.1
1894.76
1971.42
1825.81
1963.13
1954
1950.62
2075.7
2040.66
2046.19
2163.44
2189.29
2220.16
2357.67
2360.86
2367.66
2455.77
2436.66
2582.28
2740.19
2815.64
3004.1
3126.81
3115.08
3218.69
3471.07
3513.26
3760.82
4012.21
4102.57
5007.02
84339.7
131479
175036
212415
244361
268567
282415
290239