/*--------------------------------*- C++ -*----------------------------------*\
| =========                 |                                                 |
| \\      /  F ield         | OpenFOAM: The Open Source CFD Toolbox           |
|  \\    /   O peration     | Version:  v2012                                 |
|   \\  /    A nd           | Website:  www.openfoam.com                      |
|    \\/     M anipulation  |                                                 |
\*---------------------------------------------------------------------------*/
FoamFile
{
    version     2.0;
    format      ascii;
    class       volScalarField;
    location    "1e-06";
    object      totalPMean;
}
// * * * * * * * * * * * * * * * * * * * * * * * * * * * * * * * * * * * * * //

dimensions      [1 -1 -2 0 0 0 0];


internalField   nonuniform List<scalar> 
102000
(
4.66537e+07
4.62522e+07
4.59932e+07
4.57621e+07
4.54932e+07
4.51947e+07
4.49335e+07
4.47223e+07
4.44771e+07
4.42062e+07
4.39724e+07
4.37745e+07
4.35501e+07
4.33183e+07
4.30802e+07
4.2873e+07
4.26819e+07
4.24732e+07
4.22597e+07
4.20704e+07
4.18993e+07
4.17136e+07
4.15208e+07
4.13527e+07
4.12019e+07
4.1039e+07
4.08692e+07
4.07237e+07
4.05971e+07
4.04596e+07
4.03152e+07
4.01977e+07
4.01001e+07
3.9993e+07
3.9879e+07
3.97943e+07
3.97358e+07
3.96669e+07
3.95897e+07
3.9555e+07
3.95459e+07
3.95315e+07
3.95111e+07
3.95314e+07
3.96079e+07
3.96729e+07
3.97293e+07
3.98898e+07
4.00906e+07
4.03232e+07
4.05883e+07
4.0953e+07
4.15666e+07
4.25153e+07
4.29707e+07
4.31234e+07
4.27062e+07
4.15902e+07
4.08146e+07
4.0353e+07
3.97955e+07
3.94382e+07
3.94178e+07
3.91093e+07
3.87209e+07
3.82268e+07
3.75858e+07
3.69482e+07
3.6289e+07
3.57548e+07
3.52593e+07
3.47854e+07
3.43165e+07
3.38932e+07
3.35085e+07
3.31296e+07
3.2751e+07
3.24006e+07
3.20449e+07
3.16978e+07
3.13285e+07
3.09564e+07
3.05926e+07
3.02245e+07
2.98487e+07
2.94691e+07
2.9103e+07
2.87443e+07
2.83982e+07
2.80661e+07
2.77454e+07
2.74288e+07
2.712e+07
2.68182e+07
2.65269e+07
2.62251e+07
2.59329e+07
2.56484e+07
2.53698e+07
2.50894e+07
2.48079e+07
2.45373e+07
2.42746e+07
2.40126e+07
2.37457e+07
2.34939e+07
2.3231e+07
2.29714e+07
2.27231e+07
2.24807e+07
2.22381e+07
2.19912e+07
2.17589e+07
2.15107e+07
2.12712e+07
2.10347e+07
2.08022e+07
2.05686e+07
2.03308e+07
2.01081e+07
1.9863e+07
1.96276e+07
1.93984e+07
1.91728e+07
1.89441e+07
1.8714e+07
1.84938e+07
1.82681e+07
1.80511e+07
1.78461e+07
1.76261e+07
1.73971e+07
1.71605e+07
1.69305e+07
1.66942e+07
1.64465e+07
1.62003e+07
1.59568e+07
1.57097e+07
1.54767e+07
1.52277e+07
1.49805e+07
1.47392e+07
1.44951e+07
1.4244e+07
1.39874e+07
1.37351e+07
1.34786e+07
1.32179e+07
1.29622e+07
1.26999e+07
1.24315e+07
1.21682e+07
1.18966e+07
1.16185e+07
1.13451e+07
1.10623e+07
1.07687e+07
1.04776e+07
1.01748e+07
9.8591e+06
9.55005e+06
9.24163e+06
8.92601e+06
8.63092e+06
8.24484e+06
7.68058e+06
7.17526e+06
6.66327e+06
6.07836e+06
5.40874e+06
4.46985e+06
3.56583e+06
2.77586e+06
2.20321e+06
1.64972e+06
1.18598e+06
796742
428749
182496
1295.3
-11952.3
-15933.6
-16797.9
-15527.6
-16747.9
-16887.5
-17024
-17340.9
-17238.2
-18396
-18182.5
-18048.1
-18194.5
-18690
-18962.1
-19033.8
-19093.9
-19698.7
-22167.8
-23808.5
-27678.7
-23093.1
-21822.5
-19973.9
-19848.9
-18248.3
-18169
-17894
-18220
-17922.2
-17882.3
-11886.1
-9991.78
-2133.07
-1624.86
-1619.52
-2158.96
-2189.85
-2427.44
-1853.96
-2501.38
-2602.74
-2437.91
-1959.64
-2136.6
-1943.4
-2021.9
-2018.08
-1959.21
-1954.39
-1821.3
-1805.4
-1075.47
-2394.98
-2777.69
-315.325
-361.856
-1981.16
-1680.61
-1655.23
-2076.19
-2304.89
-146.466
195.615
-1846.93
-1601.05
-1732.91
-2334.88
-2544.57
-2474.6
-2338.65
-1977.91
-1720.78
-1128.37
-1039.69
-993.074
-196.375
566.884
2017.43
2012.96
2012.16
1924.42
1996.7
1945.18
2194.5
1965.29
5283.71
3246.93
2878.34
2095.08
2071.7
1947.67
1994.89
1951.6
2025.37
2017.7
2006.13
2006.06
2010.09
2024.99
2025.22
2025.71
2022.4
2019.57
2018.28
2015.49
2014.49
3371.11
2020.9
2021.2
2025.03
2040.81
2047.86
2075.44
2080.89
2095.94
2097.25
2073.42
2067.4
1979.93
2063.81
2248.08
2415.91
2373.68
2532.02
2549.01
2552.54
2716.17
2845.33
2849.72
4464.91
165311
380832
693907
1.02152e+06
1.37827e+06
1.76419e+06
2.15449e+06
2.54527e+06
2.93249e+06
3.31147e+06
3.68686e+06
4.06173e+06
4.43071e+06
4.79477e+06
5.14923e+06
5.49279e+06
5.83127e+06
6.16018e+06
6.4796e+06
6.7956e+06
7.10295e+06
7.40195e+06
7.70131e+06
7.98965e+06
8.27188e+06
8.55277e+06
8.82736e+06
9.09543e+06
9.36147e+06
9.62794e+06
9.88733e+06
1.01398e+07
1.03952e+07
1.06427e+07
1.08837e+07
1.11273e+07
1.13646e+07
1.15953e+07
1.18269e+07
1.20614e+07
1.22882e+07
1.25087e+07
1.27352e+07
1.29523e+07
1.31626e+07
1.33765e+07
1.35951e+07
1.38056e+07
1.40084e+07
1.42198e+07
1.4422e+07
1.46166e+07
1.48159e+07
1.50206e+07
1.52173e+07
1.54064e+07
1.56051e+07
1.57947e+07
1.59772e+07
1.61638e+07
1.6355e+07
1.65403e+07
1.67181e+07
1.69006e+07
1.70862e+07
1.72662e+07
1.74399e+07
1.76183e+07
1.77923e+07
1.796e+07
1.81295e+07
1.83005e+07
1.84675e+07
1.86289e+07
1.8791e+07
1.89531e+07
1.91112e+07
1.92649e+07
1.94193e+07
1.95742e+07
1.97217e+07
1.98674e+07
2.00117e+07
2.01522e+07
2.02891e+07
2.04247e+07
2.05599e+07
2.06903e+07
2.08164e+07
2.09428e+07
2.10704e+07
2.11918e+07
2.13078e+07
2.14267e+07
2.15497e+07
2.16649e+07
2.17737e+07
2.1889e+07
2.20108e+07
2.21245e+07
2.22303e+07
2.23494e+07
2.2463e+07
2.25674e+07
2.26821e+07
2.28115e+07
2.29364e+07
2.30531e+07
2.31825e+07
2.33284e+07
2.34697e+07
2.3602e+07
2.37451e+07
2.38987e+07
2.40488e+07
2.41892e+07
2.43372e+07
2.44918e+07
2.46423e+07
2.47876e+07
2.49337e+07
2.50804e+07
2.52275e+07
2.5371e+07
2.55131e+07
2.56524e+07
2.57762e+07
2.58947e+07
2.60051e+07
2.61033e+07
2.61865e+07
2.62725e+07
2.63582e+07
2.64243e+07
2.64722e+07
2.65229e+07
2.65745e+07
2.66051e+07
2.6619e+07
2.66317e+07
2.66497e+07
2.66488e+07
2.66291e+07
2.66026e+07
2.65768e+07
2.65328e+07
2.64823e+07
2.64235e+07
2.63579e+07
2.62897e+07
2.62262e+07
2.61772e+07
2.61114e+07
2.60371e+07
2.59886e+07
2.59662e+07
2.59285e+07
2.5877e+07
2.58471e+07
2.58291e+07
2.58009e+07
2.57518e+07
2.57118e+07
2.56709e+07
2.5619e+07
2.55688e+07
2.55081e+07
2.54286e+07
2.53264e+07
2.52326e+07
2.51409e+07
2.50148e+07
2.48534e+07
2.47065e+07
2.45714e+07
2.43957e+07
2.4189e+07
2.39473e+07
2.37211e+07
2.35097e+07
2.32614e+07
2.29851e+07
2.27159e+07
2.24641e+07
2.21866e+07
2.18989e+07
2.1607e+07
2.13148e+07
2.10201e+07
2.07295e+07
2.04537e+07
2.01531e+07
1.9826e+07
1.95225e+07
1.92398e+07
1.89318e+07
1.85931e+07
1.82721e+07
1.79598e+07
1.76474e+07
1.73396e+07
1.70126e+07
1.66823e+07
1.63369e+07
1.60081e+07
1.57006e+07
1.53674e+07
1.50101e+07
1.46272e+07
1.42904e+07
1.40015e+07
1.36714e+07
1.3314e+07
1.3e+07
1.27391e+07
1.24484e+07
1.21422e+07
1.18278e+07
1.15259e+07
1.12526e+07
1.09712e+07
1.06955e+07
1.04129e+07
1.01303e+07
9.85096e+06
9.57225e+06
9.29151e+06
9.00215e+06
8.70253e+06
8.40551e+06
8.0967e+06
7.80734e+06
7.45837e+06
7.16163e+06
6.85531e+06
6.4285e+06
6.16338e+06
5.97034e+06
5.72977e+06
5.48552e+06
5.31966e+06
5.20713e+06
5.08453e+06
4.98206e+06
4.90379e+06
4.8116e+06
4.72499e+06
4.65832e+06
4.67239e+06
4.72666e+06
4.69612e+06
4.5905e+06
4.5526e+06
4.5779e+06
4.49738e+06
4.30698e+06
4.17601e+06
4.21032e+06
4.32308e+06
4.29998e+06
4.16899e+06
4.18272e+06
4.33781e+06
4.33219e+06
4.18041e+06
4.15918e+06
4.25382e+06
4.46649e+06
4.53111e+06
4.43809e+06
4.49892e+06
4.67498e+06
4.96379e+06
5.2501e+06
5.55809e+06
6.04058e+06
6.40373e+06
6.73872e+06
7.0784e+06
7.45592e+06
7.84786e+06
8.27624e+06
8.74592e+06
9.15364e+06
9.56542e+06
9.85461e+06
1.00389e+07
1.03422e+07
1.07815e+07
1.12344e+07
1.17805e+07
1.24361e+07
1.29592e+07
1.35854e+07
1.42669e+07
1.50755e+07
1.56534e+07
1.61218e+07
1.69192e+07
1.80611e+07
1.85875e+07
1.87409e+07
1.95214e+07
1.94268e+07
1.85346e+07
1.83535e+07
1.73945e+07
1.59987e+07
1.53413e+07
1.50231e+07
1.50184e+07
1.49071e+07
1.46722e+07
1.50385e+07
1.56268e+07
1.55545e+07
1.59149e+07
1.65994e+07
1.64923e+07
1.66836e+07
1.70678e+07
1.67044e+07
1.64586e+07
1.63117e+07
1.56525e+07
1.4806e+07
1.40783e+07
1.2849e+07
1.15985e+07
1.14169e+07
1.06661e+07
9.89828e+06
1.12521e+07
1.27219e+07
1.39293e+07
1.59711e+07
1.84236e+07
2.04582e+07
2.12956e+07
2.21154e+07
2.31169e+07
2.27183e+07
2.24492e+07
2.23598e+07
2.11904e+07
1.9265e+07
1.7335e+07
1.54024e+07
1.32556e+07
1.08441e+07
8.49015e+06
6.91656e+06
6.61192e+06
5.94669e+06
5.27583e+06
5.98016e+06
6.74005e+06
7.30073e+06
8.03145e+06
9.00277e+06
9.7461e+06
9.66738e+06
8.55798e+06
7.53811e+06
6.62973e+06
4.83149e+06
2.72851e+06
1.00077e+06
4.66555e+07
4.6254e+07
4.59952e+07
4.57635e+07
4.54945e+07
4.51961e+07
4.49351e+07
4.47235e+07
4.44782e+07
4.42074e+07
4.39738e+07
4.37756e+07
4.3551e+07
4.33194e+07
4.30814e+07
4.2874e+07
4.26828e+07
4.24742e+07
4.22608e+07
4.20715e+07
4.19001e+07
4.17146e+07
4.15219e+07
4.13537e+07
4.12027e+07
4.10398e+07
4.08702e+07
4.07247e+07
4.05979e+07
4.04604e+07
4.03161e+07
4.01987e+07
4.01009e+07
3.99937e+07
3.98799e+07
3.97952e+07
3.97366e+07
3.96676e+07
3.95905e+07
3.95558e+07
3.95466e+07
3.95321e+07
3.95118e+07
3.95321e+07
3.96085e+07
3.96735e+07
3.97299e+07
3.98904e+07
4.0091e+07
4.03235e+07
4.05886e+07
4.09532e+07
4.15666e+07
4.25107e+07
4.29627e+07
4.31152e+07
4.26987e+07
4.15851e+07
4.08121e+07
4.0351e+07
3.97947e+07
3.9438e+07
3.94132e+07
3.91032e+07
3.87137e+07
3.82191e+07
3.75804e+07
3.69433e+07
3.62881e+07
3.57548e+07
3.52607e+07
3.47868e+07
3.43178e+07
3.38946e+07
3.35102e+07
3.31311e+07
3.27526e+07
3.24019e+07
3.20464e+07
3.16981e+07
3.13272e+07
3.09553e+07
3.05922e+07
3.02241e+07
2.98476e+07
2.94691e+07
2.91039e+07
2.87458e+07
2.83997e+07
2.80681e+07
2.77473e+07
2.74304e+07
2.71217e+07
2.68204e+07
2.65288e+07
2.62266e+07
2.59346e+07
2.56505e+07
2.53716e+07
2.50906e+07
2.48096e+07
2.45394e+07
2.42765e+07
2.40138e+07
2.37478e+07
2.3496e+07
2.32323e+07
2.29731e+07
2.27255e+07
2.24827e+07
2.22395e+07
2.19932e+07
2.17599e+07
2.15145e+07
2.12735e+07
2.10372e+07
2.08044e+07
2.057e+07
2.03329e+07
2.01093e+07
1.98662e+07
1.96301e+07
1.94012e+07
1.91753e+07
1.89464e+07
1.87169e+07
1.84965e+07
1.82701e+07
1.80522e+07
1.78454e+07
1.76248e+07
1.73952e+07
1.71595e+07
1.69295e+07
1.66918e+07
1.64446e+07
1.62014e+07
1.59568e+07
1.57103e+07
1.54762e+07
1.52312e+07
1.49835e+07
1.47413e+07
1.44972e+07
1.42459e+07
1.39909e+07
1.37384e+07
1.34818e+07
1.32219e+07
1.29658e+07
1.27032e+07
1.24357e+07
1.2172e+07
1.19e+07
1.16227e+07
1.13491e+07
1.10654e+07
1.07729e+07
1.04814e+07
1.01769e+07
9.86284e+06
9.55326e+06
9.24173e+06
8.92488e+06
8.61617e+06
8.22144e+06
7.66793e+06
7.17941e+06
6.66969e+06
6.08747e+06
5.42411e+06
4.50954e+06
3.62171e+06
2.84344e+06
2.25696e+06
1.71529e+06
1.23836e+06
851368
489692
236090
55433.6
22042.9
11833.7
9747.31
8731.1
7972.02
7370.16
6638.2
6834.36
6061.62
6038.86
6616.05
6255.27
6714.4
5528.85
6084.01
6628.47
5795.86
6099.46
4864.44
5615.59
8016.41
9781.62
11419
10929.9
11741.5
11668.1
12419
10472
10741.9
7225.33
7079.07
2511.73
3336.59
2111.44
2573.48
361.682
-54.2128
-932.019
-1127.18
-681.691
-1782.22
-1757.24
-1952.02
-1611.94
-1869.17
-1712.6
-1863.58
-1864.07
-1876.9
-1871.74
-1790.4
-1761.55
-1019.46
-2206.48
-2586.11
-1130.36
-1130.37
-1891.79
-1946.93
-1659.23
-2076.14
-2204.44
-1060.43
-839.51
-1750.29
-1856.74
-1730.81
-2336.09
-2545.41
-2479.68
-2344.43
-1985.01
-1728.1
-1131.13
-1054.39
-1009.25
-239.429
512.019
1993.45
2002.65
1998.06
1928.06
1982.86
1961.59
2220.27
1992.04
5261.58
3243.71
2838.66
2063.99
2019.18
1948.89
1876.29
1833.94
1815.64
1700.22
1789.37
1806.23
1844.09
1852.88
1667.61
1729.48
1636.89
1563.89
1752.31
1702.53
1662.52
1856.35
1713.93
1711.21
1802.78
1738.64
1804.18
1927.78
1839.33
1934.71
2002.42
1859.43
1923.87
1993.87
2077.67
2343.31
2544.64
2515.6
2657.44
2738.02
2756.1
2935.6
3155.19
3165.47
4295.88
165625
381070
693914
1.0213e+06
1.37759e+06
1.76329e+06
2.15467e+06
2.54555e+06
2.9325e+06
3.3121e+06
3.68728e+06
4.06164e+06
4.43126e+06
4.79546e+06
5.14936e+06
5.49328e+06
5.83183e+06
6.16041e+06
6.47994e+06
6.79611e+06
7.10347e+06
7.40258e+06
7.70075e+06
7.98977e+06
8.27173e+06
8.55313e+06
8.82754e+06
9.095e+06
9.36135e+06
9.62793e+06
9.88706e+06
1.01396e+07
1.0395e+07
1.06424e+07
1.08832e+07
1.11272e+07
1.13644e+07
1.15947e+07
1.18266e+07
1.20613e+07
1.22885e+07
1.25086e+07
1.27345e+07
1.29521e+07
1.31622e+07
1.33763e+07
1.35952e+07
1.38057e+07
1.40085e+07
1.42192e+07
1.44218e+07
1.46162e+07
1.48157e+07
1.50205e+07
1.52175e+07
1.54064e+07
1.56044e+07
1.57943e+07
1.59766e+07
1.61633e+07
1.63547e+07
1.65399e+07
1.67177e+07
1.69003e+07
1.70859e+07
1.72658e+07
1.74396e+07
1.7618e+07
1.7792e+07
1.79597e+07
1.81293e+07
1.83004e+07
1.84673e+07
1.86287e+07
1.87908e+07
1.8953e+07
1.91112e+07
1.92649e+07
1.94189e+07
1.95735e+07
1.97211e+07
1.98667e+07
2.0011e+07
2.01516e+07
2.02884e+07
2.04241e+07
2.05593e+07
2.06898e+07
2.08159e+07
2.09422e+07
2.10698e+07
2.11913e+07
2.13072e+07
2.14262e+07
2.15492e+07
2.16644e+07
2.17732e+07
2.18886e+07
2.20103e+07
2.21241e+07
2.22298e+07
2.23489e+07
2.24625e+07
2.25668e+07
2.26815e+07
2.28114e+07
2.29364e+07
2.30531e+07
2.31825e+07
2.33284e+07
2.34697e+07
2.3602e+07
2.37451e+07
2.38987e+07
2.40488e+07
2.41892e+07
2.43372e+07
2.44919e+07
2.46423e+07
2.47876e+07
2.49338e+07
2.50804e+07
2.52276e+07
2.53711e+07
2.55131e+07
2.56524e+07
2.57762e+07
2.58947e+07
2.60052e+07
2.61034e+07
2.61865e+07
2.62725e+07
2.63583e+07
2.64244e+07
2.64723e+07
2.65229e+07
2.65745e+07
2.66052e+07
2.66191e+07
2.66318e+07
2.66498e+07
2.66489e+07
2.66292e+07
2.66028e+07
2.65769e+07
2.65328e+07
2.64824e+07
2.64235e+07
2.63579e+07
2.62897e+07
2.62262e+07
2.61772e+07
2.61114e+07
2.60372e+07
2.59889e+07
2.59664e+07
2.59288e+07
2.5877e+07
2.5847e+07
2.58291e+07
2.58009e+07
2.57519e+07
2.57118e+07
2.56709e+07
2.5619e+07
2.55689e+07
2.55083e+07
2.54287e+07
2.53265e+07
2.52326e+07
2.5141e+07
2.50149e+07
2.48534e+07
2.47066e+07
2.45716e+07
2.43959e+07
2.41892e+07
2.39474e+07
2.37211e+07
2.35098e+07
2.32616e+07
2.29852e+07
2.27159e+07
2.24642e+07
2.21867e+07
2.1899e+07
2.1607e+07
2.13148e+07
2.10201e+07
2.07295e+07
2.04537e+07
2.01531e+07
1.9826e+07
1.95224e+07
1.92398e+07
1.89318e+07
1.85931e+07
1.8272e+07
1.79598e+07
1.76474e+07
1.73396e+07
1.70126e+07
1.66824e+07
1.63369e+07
1.60081e+07
1.57007e+07
1.53675e+07
1.50103e+07
1.46272e+07
1.42904e+07
1.40015e+07
1.36716e+07
1.33141e+07
1.3e+07
1.27391e+07
1.24485e+07
1.21424e+07
1.18279e+07
1.15259e+07
1.12526e+07
1.09712e+07
1.06955e+07
1.04129e+07
1.01303e+07
9.85097e+06
9.57231e+06
9.29152e+06
9.00214e+06
8.70252e+06
8.40556e+06
8.09677e+06
7.80741e+06
7.45943e+06
7.16278e+06
6.85666e+06
6.42879e+06
6.16388e+06
5.97039e+06
5.72985e+06
5.48572e+06
5.31972e+06
5.20716e+06
5.08457e+06
4.98211e+06
4.90384e+06
4.81163e+06
4.725e+06
4.65835e+06
4.67241e+06
4.7267e+06
4.69613e+06
4.59049e+06
4.55257e+06
4.5779e+06
4.49735e+06
4.30683e+06
4.17608e+06
4.21027e+06
4.32307e+06
4.29997e+06
4.16897e+06
4.18264e+06
4.33778e+06
4.33218e+06
4.18041e+06
4.15914e+06
4.25371e+06
4.46647e+06
4.5311e+06
4.43808e+06
4.49888e+06
4.67487e+06
4.96376e+06
5.25008e+06
5.55767e+06
6.03958e+06
6.40275e+06
6.73776e+06
7.07744e+06
7.45494e+06
7.84688e+06
8.27525e+06
8.74466e+06
9.15238e+06
9.56421e+06
9.85353e+06
1.00385e+07
1.03417e+07
1.07809e+07
1.12339e+07
1.17799e+07
1.24355e+07
1.29587e+07
1.35848e+07
1.42662e+07
1.50752e+07
1.56532e+07
1.61216e+07
1.69189e+07
1.80609e+07
1.85874e+07
1.87408e+07
1.95215e+07
1.94269e+07
1.85347e+07
1.83537e+07
1.73947e+07
1.5999e+07
1.53416e+07
1.50234e+07
1.50186e+07
1.49073e+07
1.46724e+07
1.50386e+07
1.56269e+07
1.55546e+07
1.5915e+07
1.65995e+07
1.64924e+07
1.66837e+07
1.70679e+07
1.67045e+07
1.64587e+07
1.63118e+07
1.56527e+07
1.48061e+07
1.40784e+07
1.28491e+07
1.15986e+07
1.1417e+07
1.06662e+07
9.89838e+06
1.12521e+07
1.27221e+07
1.3929e+07
1.59712e+07
1.84238e+07
2.04584e+07
2.12958e+07
2.21155e+07
2.3117e+07
2.27184e+07
2.24494e+07
2.236e+07
2.11908e+07
1.92652e+07
1.73353e+07
1.54026e+07
1.32556e+07
1.08442e+07
8.49022e+06
6.91666e+06
6.6121e+06
5.94684e+06
5.27595e+06
5.9802e+06
6.74027e+06
7.30081e+06
8.03148e+06
9.00296e+06
9.7463e+06
9.66757e+06
8.55828e+06
7.53846e+06
6.63027e+06
4.83173e+06
2.72867e+06
1.001e+06
4.66579e+07
4.62567e+07
4.5998e+07
4.5766e+07
4.54968e+07
4.51982e+07
4.49372e+07
4.47256e+07
4.44801e+07
4.42093e+07
4.39756e+07
4.37774e+07
4.35527e+07
4.33211e+07
4.30831e+07
4.28757e+07
4.26844e+07
4.24758e+07
4.22624e+07
4.20731e+07
4.19017e+07
4.17161e+07
4.15234e+07
4.13552e+07
4.12042e+07
4.10413e+07
4.08717e+07
4.07261e+07
4.05993e+07
4.04618e+07
4.03175e+07
4.02001e+07
4.01023e+07
3.99951e+07
3.98812e+07
3.97965e+07
3.97379e+07
3.96688e+07
3.95917e+07
3.9557e+07
3.95477e+07
3.95332e+07
3.95129e+07
3.95332e+07
3.96095e+07
3.96744e+07
3.97308e+07
3.98912e+07
4.00918e+07
4.03242e+07
4.05891e+07
4.09536e+07
4.15667e+07
4.25086e+07
4.29575e+07
4.31092e+07
4.2692e+07
4.15801e+07
4.08095e+07
4.03491e+07
3.97933e+07
3.94381e+07
3.94102e+07
3.90988e+07
3.87087e+07
3.82135e+07
3.75762e+07
3.69379e+07
3.6287e+07
3.57552e+07
3.52626e+07
3.47887e+07
3.43197e+07
3.38966e+07
3.35122e+07
3.31332e+07
3.27545e+07
3.24041e+07
3.20484e+07
3.16986e+07
3.1327e+07
3.09551e+07
3.05923e+07
3.02242e+07
2.98474e+07
2.94698e+07
2.91054e+07
2.87484e+07
2.84023e+07
2.80707e+07
2.77499e+07
2.7433e+07
2.71244e+07
2.68231e+07
2.65315e+07
2.62292e+07
2.59374e+07
2.56533e+07
2.53745e+07
2.50931e+07
2.48122e+07
2.45423e+07
2.42792e+07
2.40162e+07
2.37507e+07
2.34991e+07
2.3235e+07
2.29762e+07
2.27286e+07
2.24859e+07
2.22421e+07
2.19961e+07
2.17626e+07
2.15166e+07
2.12768e+07
2.10405e+07
2.08077e+07
2.05729e+07
2.0336e+07
2.01114e+07
1.98694e+07
1.96337e+07
1.94047e+07
1.91788e+07
1.895e+07
1.87206e+07
1.85001e+07
1.82738e+07
1.80547e+07
1.78457e+07
1.76246e+07
1.73949e+07
1.71595e+07
1.69295e+07
1.66911e+07
1.64441e+07
1.62032e+07
1.59587e+07
1.57126e+07
1.54787e+07
1.52329e+07
1.49877e+07
1.47448e+07
1.45007e+07
1.42502e+07
1.39953e+07
1.37427e+07
1.34863e+07
1.32265e+07
1.29703e+07
1.27079e+07
1.24405e+07
1.21767e+07
1.19049e+07
1.16278e+07
1.13541e+07
1.10706e+07
1.07782e+07
1.04866e+07
1.01823e+07
9.86835e+06
9.55758e+06
9.24346e+06
8.92175e+06
8.60421e+06
8.20352e+06
7.66221e+06
7.18638e+06
6.67781e+06
6.09715e+06
5.43407e+06
4.53486e+06
3.66228e+06
2.89084e+06
2.29381e+06
1.76126e+06
1.28672e+06
890517
536929
278892
97347.5
57562.5
39373.9
31887.8
27781.4
25828
21984.7
20437.1
20439.1
18275.4
19206.4
19331.6
18967.5
19585.7
17584.4
18954.2
19163.2
18384.8
19010.6
17721.6
19783.1
23744.9
26531.2
28401.8
27577.6
28252.3
27639.2
28401.9
26134
26551.5
22194.8
22088
12248.7
13755.7
7229.08
7607.33
3360.79
3132.56
1020.84
1030.28
967.795
-493.281
-884.657
-1066.84
-886.106
-1269.68
-1178.09
-1465.3
-1477.6
-1636.48
-1620.03
-1668.37
-1591.73
-916.23
-2133.32
-2496.77
-1359.91
-1356.68
-1931.43
-1978.86
-1640.73
-2109.99
-2214.91
-1254.33
-1033.81
-1769.72
-1878.96
-1725.62
-2336.62
-2546.53
-2489.2
-2354.44
-1996.87
-1740
-1135.68
-1078.45
-1028.83
-278.237
442.366
1948.19
2003.61
2003.68
1961.5
2009.35
2016.77
2272.84
2043.62
5199.86
3206
2774.6
2029.98
2018.68
1974.44
1956.14
1907.92
1896.13
1764.82
1851.51
1877.89
1920.71
1930.09
1742.81
1775.25
1894.8
1648.44
1813.58
1782.19
1730.78
1914.49
1833.41
1805.55
1906.73
1902.55
1938.45
2083.59
2052.5
2085.8
2190.97
2082.54
2130.61
2301.73
2388.09
2644.51
2838.38
2782.27
2944.17
3095.23
3117.06
3316.46
3580.35
3599.09
4159.11
165728
381173
693391
1.02045e+06
1.37676e+06
1.76241e+06
2.15383e+06
2.54568e+06
2.93264e+06
3.31263e+06
3.6878e+06
4.06192e+06
4.43194e+06
4.79616e+06
5.15004e+06
5.49389e+06
5.83243e+06
6.16101e+06
6.48049e+06
6.79667e+06
7.10399e+06
7.40292e+06
7.70095e+06
7.99029e+06
8.27199e+06
8.55358e+06
8.828e+06
9.09495e+06
9.36136e+06
9.62809e+06
9.88723e+06
1.01395e+07
1.03948e+07
1.06424e+07
1.08829e+07
1.11271e+07
1.13643e+07
1.15943e+07
1.18263e+07
1.20612e+07
1.22886e+07
1.25082e+07
1.27342e+07
1.29521e+07
1.3162e+07
1.33762e+07
1.35952e+07
1.38059e+07
1.40084e+07
1.4219e+07
1.44218e+07
1.4616e+07
1.48155e+07
1.50206e+07
1.52175e+07
1.54063e+07
1.56039e+07
1.57939e+07
1.59761e+07
1.61629e+07
1.63545e+07
1.65397e+07
1.67173e+07
1.69e+07
1.70857e+07
1.72656e+07
1.74393e+07
1.76179e+07
1.77918e+07
1.79594e+07
1.81291e+07
1.83003e+07
1.84672e+07
1.86285e+07
1.87907e+07
1.8953e+07
1.91112e+07
1.92648e+07
1.94187e+07
1.95729e+07
1.97205e+07
1.98662e+07
2.00105e+07
2.01511e+07
2.02879e+07
2.04236e+07
2.05588e+07
2.06893e+07
2.08154e+07
2.09417e+07
2.10694e+07
2.11908e+07
2.13068e+07
2.14257e+07
2.15487e+07
2.1664e+07
2.17728e+07
2.18881e+07
2.20099e+07
2.21237e+07
2.22294e+07
2.23484e+07
2.2462e+07
2.25663e+07
2.2681e+07
2.28114e+07
2.29364e+07
2.3053e+07
2.31825e+07
2.33283e+07
2.34696e+07
2.3602e+07
2.37451e+07
2.38987e+07
2.40488e+07
2.41892e+07
2.43371e+07
2.44918e+07
2.46423e+07
2.47876e+07
2.49337e+07
2.50803e+07
2.52275e+07
2.5371e+07
2.55131e+07
2.56524e+07
2.57762e+07
2.58947e+07
2.60051e+07
2.61033e+07
2.61865e+07
2.62725e+07
2.63582e+07
2.64243e+07
2.64722e+07
2.65229e+07
2.65745e+07
2.66052e+07
2.66191e+07
2.66319e+07
2.66498e+07
2.6649e+07
2.66294e+07
2.6603e+07
2.65771e+07
2.6533e+07
2.64825e+07
2.64237e+07
2.63579e+07
2.62897e+07
2.62262e+07
2.61774e+07
2.61116e+07
2.60374e+07
2.59891e+07
2.59667e+07
2.59291e+07
2.58769e+07
2.5847e+07
2.58291e+07
2.5801e+07
2.57519e+07
2.57119e+07
2.5671e+07
2.56191e+07
2.55691e+07
2.55086e+07
2.54289e+07
2.53265e+07
2.52327e+07
2.51413e+07
2.50152e+07
2.48536e+07
2.47068e+07
2.45719e+07
2.43961e+07
2.41895e+07
2.39475e+07
2.37213e+07
2.351e+07
2.32618e+07
2.29853e+07
2.2716e+07
2.24642e+07
2.21868e+07
2.18991e+07
2.16071e+07
2.13148e+07
2.102e+07
2.07295e+07
2.04537e+07
2.01531e+07
1.9826e+07
1.95224e+07
1.92397e+07
1.89318e+07
1.85931e+07
1.8272e+07
1.79598e+07
1.76474e+07
1.73396e+07
1.70127e+07
1.66824e+07
1.63369e+07
1.60081e+07
1.57008e+07
1.53677e+07
1.50105e+07
1.46272e+07
1.42904e+07
1.40017e+07
1.36717e+07
1.33141e+07
1.3e+07
1.27392e+07
1.24486e+07
1.21425e+07
1.18279e+07
1.15259e+07
1.12526e+07
1.09713e+07
1.06956e+07
1.04129e+07
1.01303e+07
9.85098e+06
9.57234e+06
9.29153e+06
9.00215e+06
8.70252e+06
8.4056e+06
8.09686e+06
7.80767e+06
7.46034e+06
7.16288e+06
6.85714e+06
6.42902e+06
6.1644e+06
5.97046e+06
5.72999e+06
5.48593e+06
5.31979e+06
5.20721e+06
5.08463e+06
4.98215e+06
4.90388e+06
4.81167e+06
4.72502e+06
4.65839e+06
4.67243e+06
4.72673e+06
4.69615e+06
4.59049e+06
4.55252e+06
4.57786e+06
4.49729e+06
4.3067e+06
4.17611e+06
4.2102e+06
4.32304e+06
4.29995e+06
4.16893e+06
4.18254e+06
4.33771e+06
4.33215e+06
4.18039e+06
4.15909e+06
4.25356e+06
4.46642e+06
4.53106e+06
4.43804e+06
4.49884e+06
4.67476e+06
4.9637e+06
5.25002e+06
5.55743e+06
6.03895e+06
6.40214e+06
6.73715e+06
7.07681e+06
7.45431e+06
7.84629e+06
8.27464e+06
8.74386e+06
9.15156e+06
9.56349e+06
9.85297e+06
1.00382e+07
1.03414e+07
1.07806e+07
1.12335e+07
1.17795e+07
1.24351e+07
1.29583e+07
1.35843e+07
1.42657e+07
1.50749e+07
1.56529e+07
1.61213e+07
1.69185e+07
1.80606e+07
1.85873e+07
1.87407e+07
1.95216e+07
1.94271e+07
1.85349e+07
1.8354e+07
1.73951e+07
1.59994e+07
1.5342e+07
1.50238e+07
1.5019e+07
1.49077e+07
1.46727e+07
1.50389e+07
1.56272e+07
1.55547e+07
1.59153e+07
1.65998e+07
1.64925e+07
1.66838e+07
1.70681e+07
1.67047e+07
1.64589e+07
1.6312e+07
1.5653e+07
1.48063e+07
1.40786e+07
1.28492e+07
1.15987e+07
1.14172e+07
1.06664e+07
9.89862e+06
1.12522e+07
1.27222e+07
1.39284e+07
1.59712e+07
1.84242e+07
2.04586e+07
2.1296e+07
2.21157e+07
2.31173e+07
2.27187e+07
2.24497e+07
2.23604e+07
2.11916e+07
1.92656e+07
1.73356e+07
1.54029e+07
1.32558e+07
1.08443e+07
8.49034e+06
6.91683e+06
6.6124e+06
5.94707e+06
5.27618e+06
5.98025e+06
6.74058e+06
7.30073e+06
8.03148e+06
9.00323e+06
9.7466e+06
9.66789e+06
8.55874e+06
7.53888e+06
6.63122e+06
4.83223e+06
2.72884e+06
1.00133e+06
4.66579e+07
4.6257e+07
4.59982e+07
4.5766e+07
4.54969e+07
4.51983e+07
4.49373e+07
4.47256e+07
4.44802e+07
4.42093e+07
4.39757e+07
4.37775e+07
4.3553e+07
4.33212e+07
4.30831e+07
4.28758e+07
4.26846e+07
4.24759e+07
4.22625e+07
4.20731e+07
4.19018e+07
4.17161e+07
4.15234e+07
4.13553e+07
4.12043e+07
4.10413e+07
4.08717e+07
4.07262e+07
4.05994e+07
4.04619e+07
4.03175e+07
4.02001e+07
4.01024e+07
3.99951e+07
3.98813e+07
3.97966e+07
3.97379e+07
3.96689e+07
3.95917e+07
3.95571e+07
3.95478e+07
3.95333e+07
3.95129e+07
3.95332e+07
3.96095e+07
3.96744e+07
3.97308e+07
3.98912e+07
4.00917e+07
4.03241e+07
4.05889e+07
4.09533e+07
4.15662e+07
4.25039e+07
4.29492e+07
4.31001e+07
4.26834e+07
4.15753e+07
4.0806e+07
4.0346e+07
3.97908e+07
3.9437e+07
3.94049e+07
3.90919e+07
3.87008e+07
3.82051e+07
3.75695e+07
3.69335e+07
3.62862e+07
3.5754e+07
3.52627e+07
3.47888e+07
3.43199e+07
3.38967e+07
3.35123e+07
3.31332e+07
3.27552e+07
3.24042e+07
3.20483e+07
3.16965e+07
3.13247e+07
3.09529e+07
3.059e+07
3.02218e+07
2.98449e+07
2.94682e+07
2.91046e+07
2.87485e+07
2.84025e+07
2.80708e+07
2.775e+07
2.74334e+07
2.71245e+07
2.68232e+07
2.65317e+07
2.623e+07
2.59375e+07
2.56535e+07
2.53747e+07
2.5093e+07
2.48122e+07
2.45424e+07
2.42796e+07
2.4016e+07
2.37507e+07
2.34989e+07
2.32355e+07
2.29764e+07
2.27288e+07
2.24862e+07
2.2242e+07
2.19962e+07
2.17614e+07
2.15178e+07
2.12771e+07
2.10407e+07
2.0808e+07
2.05729e+07
2.03361e+07
2.01095e+07
1.98708e+07
1.9634e+07
1.94049e+07
1.91792e+07
1.89503e+07
1.87208e+07
1.85004e+07
1.82745e+07
1.80542e+07
1.78421e+07
1.7622e+07
1.73918e+07
1.71558e+07
1.6926e+07
1.66872e+07
1.64403e+07
1.6201e+07
1.59575e+07
1.57118e+07
1.54763e+07
1.52338e+07
1.49881e+07
1.47446e+07
1.4502e+07
1.42506e+07
1.39956e+07
1.37436e+07
1.34868e+07
1.32269e+07
1.2971e+07
1.27084e+07
1.24409e+07
1.21774e+07
1.19055e+07
1.16282e+07
1.13548e+07
1.10713e+07
1.07787e+07
1.04873e+07
1.0183e+07
9.86874e+06
9.55703e+06
9.23991e+06
8.91144e+06
8.58686e+06
8.17981e+06
7.65501e+06
7.18874e+06
6.68011e+06
6.10116e+06
5.44243e+06
4.56214e+06
3.70458e+06
2.9468e+06
2.33771e+06
1.81121e+06
1.34047e+06
938162
592451
331123
143002
92877.9
68519.9
53342.7
46756.8
42536
37907.6
33794.5
31958
28929.8
27717.4
27786.6
26261.9
26089.7
24463.1
24409.3
25358
23544.8
24113.9
24023.5
25274.1
31041.5
33846.6
37980.2
36710.7
37161.4
35540.7
36221.2
32625.4
32864.1
27744.5
27115.8
21979.2
17376.6
8781.9
8520.68
4314.42
3610.96
1784.53
1340.08
1103.41
-385.204
-469.998
-970.388
-717.912
-1234.54
-1130.61
-1445.99
-1471.71
-1618.73
-1644.56
-1650.8
-1602.08
-887.135
-2114.6
-2449.11
-1506.89
-1473.32
-1993.42
-2040.66
-1638.48
-2140.38
-2223.21
-1350.98
-1123.49
-1789.2
-1905.25
-1719.4
-2342.59
-2550.93
-2504.1
-2369.9
-2015.53
-1758.65
-1143.46
-1115.75
-1057.75
-333.986
333.082
1946.21
2003.4
2003.5
1948.29
2007.62
2028.08
2240.83
2055.72
5086.41
3146.79
2704.88
2023.72
2019.58
1973.97
1955.47
1918.4
1897.67
1775.7
1874.81
1872.11
1937.25
1965.79
1759.33
1784.15
1870.18
1676.91
1833.57
1790.24
1774.16
1926.24
1833.45
1826.62
1947.12
1919.53
1962.1
2113.84
2080.51
2097.34
2175.51
2089.22
2157.52
2323.17
2413.57
2687.63
2830.28
2782.94
2921.97
3052.92
3093.78
3365.36
3569.58
3608.12
4218.31
165721
380893
692274
1.01869e+06
1.37502e+06
1.76072e+06
2.15208e+06
2.5447e+06
2.93196e+06
3.31226e+06
3.68764e+06
4.06171e+06
4.43201e+06
4.79623e+06
5.15012e+06
5.49396e+06
5.83248e+06
6.16107e+06
6.48061e+06
6.7967e+06
7.10407e+06
7.40312e+06
7.70069e+06
7.99034e+06
8.27204e+06
8.55361e+06
8.82804e+06
9.09488e+06
9.36123e+06
9.62811e+06
9.88728e+06
1.01393e+07
1.03945e+07
1.06424e+07
1.08827e+07
1.11269e+07
1.13643e+07
1.1594e+07
1.1826e+07
1.20611e+07
1.22886e+07
1.25081e+07
1.27338e+07
1.29521e+07
1.31619e+07
1.33762e+07
1.35953e+07
1.38059e+07
1.40084e+07
1.42188e+07
1.44219e+07
1.4616e+07
1.48155e+07
1.50206e+07
1.52176e+07
1.54063e+07
1.56035e+07
1.57939e+07
1.59758e+07
1.61627e+07
1.63544e+07
1.65397e+07
1.67171e+07
1.68997e+07
1.70857e+07
1.72656e+07
1.74392e+07
1.76178e+07
1.77918e+07
1.79593e+07
1.8129e+07
1.83003e+07
1.84672e+07
1.86285e+07
1.87907e+07
1.8953e+07
1.91112e+07
1.92648e+07
1.94185e+07
1.95722e+07
1.97198e+07
1.98655e+07
2.00098e+07
2.01504e+07
2.02873e+07
2.0423e+07
2.05582e+07
2.06887e+07
2.08148e+07
2.09412e+07
2.10688e+07
2.11903e+07
2.13063e+07
2.14252e+07
2.15482e+07
2.16635e+07
2.17723e+07
2.18876e+07
2.20097e+07
2.21235e+07
2.22291e+07
2.23481e+07
2.24615e+07
2.25658e+07
2.26808e+07
2.28114e+07
2.29364e+07
2.3053e+07
2.31824e+07
2.33284e+07
2.34696e+07
2.3602e+07
2.37451e+07
2.38987e+07
2.40487e+07
2.41892e+07
2.43371e+07
2.44918e+07
2.46423e+07
2.47876e+07
2.49337e+07
2.50803e+07
2.52275e+07
2.5371e+07
2.55131e+07
2.56524e+07
2.57762e+07
2.58946e+07
2.60051e+07
2.61033e+07
2.61865e+07
2.62725e+07
2.63582e+07
2.64243e+07
2.64722e+07
2.65229e+07
2.65745e+07
2.66053e+07
2.66192e+07
2.66319e+07
2.66499e+07
2.66492e+07
2.66296e+07
2.66032e+07
2.65773e+07
2.65332e+07
2.64828e+07
2.64239e+07
2.63581e+07
2.62898e+07
2.62262e+07
2.61777e+07
2.6112e+07
2.60378e+07
2.59894e+07
2.59669e+07
2.59294e+07
2.58772e+07
2.58471e+07
2.58293e+07
2.58012e+07
2.57521e+07
2.57121e+07
2.56711e+07
2.56192e+07
2.55693e+07
2.55088e+07
2.54291e+07
2.53265e+07
2.52327e+07
2.51414e+07
2.50154e+07
2.48536e+07
2.47068e+07
2.45722e+07
2.43964e+07
2.41897e+07
2.39475e+07
2.37213e+07
2.35102e+07
2.32619e+07
2.29854e+07
2.2716e+07
2.24643e+07
2.21868e+07
2.18991e+07
2.16071e+07
2.13148e+07
2.102e+07
2.07295e+07
2.04538e+07
2.01532e+07
1.9826e+07
1.95224e+07
1.92398e+07
1.89319e+07
1.8593e+07
1.8272e+07
1.79598e+07
1.76474e+07
1.73396e+07
1.70127e+07
1.66824e+07
1.63369e+07
1.60081e+07
1.57008e+07
1.53677e+07
1.50108e+07
1.46272e+07
1.42903e+07
1.40017e+07
1.36718e+07
1.33141e+07
1.3e+07
1.27392e+07
1.24486e+07
1.21425e+07
1.18279e+07
1.15259e+07
1.12526e+07
1.09713e+07
1.06956e+07
1.04129e+07
1.01303e+07
9.85098e+06
9.57234e+06
9.29152e+06
9.00213e+06
8.70249e+06
8.4056e+06
8.09692e+06
7.80807e+06
7.46156e+06
7.16315e+06
6.8577e+06
6.42925e+06
6.1649e+06
5.97048e+06
5.7301e+06
5.48609e+06
5.31979e+06
5.20719e+06
5.0846e+06
4.98211e+06
4.90384e+06
4.81162e+06
4.72496e+06
4.65838e+06
4.67243e+06
4.72674e+06
4.69612e+06
4.59047e+06
4.55246e+06
4.57781e+06
4.49723e+06
4.30657e+06
4.17616e+06
4.21018e+06
4.32303e+06
4.29993e+06
4.1689e+06
4.18246e+06
4.33766e+06
4.33213e+06
4.18039e+06
4.15903e+06
4.25343e+06
4.46637e+06
4.53103e+06
4.438e+06