/*--------------------------------*- C++ -*----------------------------------*\
| =========                 |                                                 |
| \\      /  F ield         | OpenFOAM: The Open Source CFD Toolbox           |
|  \\    /   O peration     | Version:  v2012                                 |
|   \\  /    A nd           | Website:  www.openfoam.com                      |
|    \\/     M anipulation  |                                                 |
\*---------------------------------------------------------------------------*/
FoamFile
{
    version     2.0;
    format      ascii;
    class       volVectorField;
    location    "1e-06";
    object      U;
}
// * * * * * * * * * * * * * * * * * * * * * * * * * * * * * * * * * * * * * //

dimensions      [0 1 -1 0 0 0 0];


internalField   nonuniform List<vector> 
102000
(
(5.7938 0.0127217 0)
(4.95237 0.00423379 0)
(4.73995 0.0027935 0)
(4.29261 0.00222903 9.43196e-34)
(4.01948 0.00167403 -2.34239e-33)
(3.75995 0.00114738 1.5046e-43)
(3.67856 0.000665383 0)
(3.59739 0.000479548 -6.29989e-33)
(3.52662 0.000699718 6.25892e-33)
(3.38935 0.000721241 0)
(3.31615 0.000355465 1.85123e-43)
(3.30104 9.59356e-05 -7.09145e-33)
(3.26783 0.00040282 3.3344e-33)
(3.19488 0.000589895 7.23609e-33)
(3.09805 0.000271598 5.49436e-33)
(3.12728 -0.0001052 0)
(3.12237 0.000246767 1.37318e-43)
(3.06386 0.000540029 0)
(2.97793 0.00027057 0)
(2.99736 -0.000142144 0)
(3.01666 0.00015163 0)
(2.96083 0.000525967 0)
(2.88059 0.000302945 0)
(2.88969 -0.000129569 0)
(2.91249 8.06156e-05 0)
(2.86911 0.000505191 0)
(2.78978 0.000359376 0)
(2.78844 -9.86863e-05 0)
(2.8112 3.69654e-05 0)
(2.77553 0.000513349 0)
(2.69412 0.000445269 0)
(2.68212 -4.96009e-05 6.0559e-44)
(2.70012 2.76933e-05 -2.25696e-32)
(2.66991 0.000559046 2.72545e-32)
(2.58112 0.000563886 2.43643e-32)
(2.55752 5.61222e-05 -6.9158e-32)
(2.57013 8.07007e-05 -3.32845e-32)
(2.53442 0.000653557 0)
(2.43816 0.000741843 2.61176e-32)
(2.40096 0.000240179 -4.62147e-32)
(2.3934 0.000199046 -3.53743e-32)
(2.35987 0.000862279 1.90756e-37)
(2.23444 0.00100963 -5.23747e-32)
(2.17852 0.000508973 -5.79916e-32)
(2.16078 0.000546569 -7.66308e-32)
(2.07667 0.00121338 1.01435e-31)
(1.93795 0.0015372 2.74387e-37)
(1.84741 0.00108271 8.79068e-32)
(1.73973 0.00110551 0)
(1.66745 0.00221565 -4.55566e-32)
(1.3755 0.00265294 -1.92071e-31)
(1.19014 0.00263042 0)
(0.91435 0.00402498 0)
(0.628658 0.0588773 1.56561e-26)
(0.885485 0.16112 1.57749e-25)
(1.20889 0.244702 -5.95359e-31)
(1.35158 0.29601 7.74236e-31)
(1.71672 0.412521 0)
(2.09409 0.509799 0)
(2.09189 0.509815 0)
(2.18543 0.535218 5.47107e-31)
(2.17149 0.533953 1.81097e-28)
(2.09867 0.646036 -7.60427e-31)
(2.30555 0.719931 1.72833e-26)
(2.55803 0.801011 1.37029e-31)
(2.59559 0.817009 -2.27177e-26)
(2.73547 0.880574 -5.39232e-27)
(2.82836 0.912114 8.37925e-32)
(3.11492 1.01387 5.66496e-29)
(3.12972 1.02129 4.44706e-32)
(3.15437 1.02722 8.77615e-29)
(3.20727 1.03827 1.87191e-32)
(3.32359 1.07657 -3.73368e-28)
(3.30494 1.07199 4.1459e-28)
(3.28817 1.06538 3.06225e-28)
(3.36055 1.08859 -2.36719e-28)
(3.36505 1.08945 2.71622e-33)
(3.44215 1.11397 0)
(3.40614 1.10216 -1.6395e-31)
(3.52174 1.14196 0)
(3.56781 1.16031 -4.13536e-33)
(3.59645 1.17072 -2.93224e-28)
(3.58586 1.16568 0)
(3.70708 1.20415 7.77437e-28)
(3.75616 1.22217 0)
(3.74415 1.21943 0)
(3.75191 1.22029 2.1769e-28)
(3.8586 1.25515 -6.00849e-36)
(3.85833 1.25443 1.66035e-32)
(3.82011 1.24162 0)
(3.85617 1.25169 0)
(3.95476 1.28426 0)
(3.92852 1.2776 0)
(3.88879 1.26324 -6.12804e-29)
(3.97799 1.29094 9.17838e-29)
(3.98251 1.29351 4.51119e-29)
(4.01553 1.3046 -1.32486e-32)
(3.99489 1.29655 5.79348e-30)
(4.10028 1.32994 0)
(4.12225 1.33888 5.8506e-32)
(4.0919 1.32933 4.02829e-29)
(4.11324 1.33437 7.55445e-30)
(4.2134 1.36728 4.68847e-30)
(4.19639 1.36355 -5.54814e-29)
(4.15466 1.34908 6.2097e-33)
(4.24808 1.37749 2.35716e-32)
(4.27086 1.38675 1.09407e-29)
(4.27509 1.38913 -1.33482e-29)
(4.26537 1.3839 -1.36542e-32)
(4.37595 1.4195 8.61257e-30)
(4.37614 1.42174 -3.11194e-29)
(4.33153 1.40692 -5.82291e-32)
(4.40602 1.4341 -1.62997e-32)
(4.17348 1.35487 1.51797e-31)
(4.46039 1.44394 8.9095e-29)
(4.449 1.44344 -2.07371e-29)
(4.56337 1.48 -2.8909e-32)
(4.56894 1.48433 0)
(4.52169 1.46873 0)
(4.60687 1.49801 -1.01905e-28)
(4.36974 1.41727 -2.2955e-31)
(4.65797 1.504 9.01097e-29)
(4.65184 1.50436 -3.83261e-29)
(4.77333 1.54321 6.26763e-29)
(4.76657 1.54441 1.19272e-31)
(4.71936 1.52755 1.57127e-29)
(4.81616 1.55642 0)
(4.8172 1.56044 0)
(4.77594 1.55485 0)
(4.80884 1.5722 -1.77431e-28)
(4.90352 1.60376 -9.94473e-29)
(4.94804 1.62091 -6.5712e-29)
(4.94346 1.61781 2.09901e-28)
(5.0735 1.65818 1.16917e-28)
(5.10315 1.67223 1.17527e-28)
(5.09523 1.66738 2.82743e-35)
(5.21413 1.6924 3.1715e-29)
(5.22138 1.69647 -5.08964e-29)
(5.19149 1.68763 -2.83415e-29)
(5.2596 1.71382 -2.25984e-28)
(5.04721 1.63797 -2.35073e-35)
(5.34435 1.72821 1.41411e-31)
(5.37289 1.74212 -1.08345e-28)
(5.47476 1.77427 -6.65978e-29)
(5.49768 1.78362 7.06321e-31)
(5.51571 1.7875 2.63008e-31)
(5.66078 1.83652 3.09688e-29)
(5.69228 1.85096 4.12222e-31)
(5.68219 1.84569 -3.31479e-29)
(5.83855 1.89388 4.07429e-29)
(5.87497 1.91091 -3.11766e-29)
(5.86042 1.90646 -2.96712e-31)
(6.02993 1.95776 3.40152e-29)
(6.08186 1.97988 -2.72588e-29)
(6.0831 1.97834 -2.25347e-29)
(6.25026 2.0287 -1.48382e-31)
(6.3095 2.05079 -6.1702e-35)
(6.30935 2.05074 4.26152e-31)
(6.48373 2.10947 6.23829e-29)
(6.56044 2.14006 0)
(6.57163 2.14357 0)
(6.70829 2.18573 3.00883e-29)
(6.71081 2.19269 0)
(6.60744 2.16186 -1.24878e-31)
(6.93292 2.55079 4.28984e-34)
(7.82821 3.10368 -4.28987e-30)
(8.38413 2.8288 4.96946e-28)
(8.58286 2.80098 0)
(8.93987 2.76597 2.25046e-30)
(9.47909 2.62816 -2.73124e-34)
(10.364 2.33812 1.36064e-27)
(11.1901 0.403432 -2.55874e-34)
(10.1833 -0.723147 3.83715e-30)
(8.74408 -0.77904 1.71084e-27)
(8.39765 -0.644596 4.21327e-31)
(7.94374 -0.611059 0)
(7.57152 -0.454842 2.34525e-32)
(7.19609 -0.524277 4.24259e-32)
(6.82533 -0.544497 -2.68704e-34)
(6.25649 -0.396372 2.81169e-30)
(5.45404 -0.246788 7.55192e-27)
(4.64919 0.461854 1.80998e-30)
(4.94193 0.708883 -1.91885e-26)
(5.01668 0.788926 -5.41394e-32)
(5.00062 0.852052 -8.98499e-27)
(4.98397 0.868971 0)
(5.10508 0.909272 8.92915e-27)
(5.07437 0.921433 -8.69822e-27)
(5.10632 0.930974 -8.54649e-34)
(5.05268 0.929687 -8.41634e-27)
(5.10846 0.928861 -8.59276e-27)
(5.23265 0.947919 -8.79406e-27)
(5.20758 0.951344 1.72624e-26)
(5.22777 0.960829 8.60448e-27)
(4.91065 0.907471 7.99516e-27)
(5.20383 0.951973 -1.71356e-26)
(5.33496 0.964296 -1.56552e-31)
(5.21209 0.966985 0)
(5.2569 0.978568 -8.90312e-27)
(5.28008 1.12747 0)
(5.46092 1.1796 0)
(5.71155 1.29354 0)
(6.25852 1.2088 -1.17719e-26)
(6.40798 1.19577 1.18736e-26)
(6.30667 1.10893 -8.26002e-31)
(6.37113 1.11394 1.06846e-30)
(6.34583 1.0522 -2.09521e-26)
(6.4188 1.05364 -1.04949e-26)
(6.40677 0.940446 -4.57863e-31)
(6.47087 0.927921 -1.9878e-26)
(6.60293 0.674479 0)
(6.624 0.614827 -2.35608e-30)
(6.67833 0.0173127 -8.34973e-30)
(6.57671 -0.0682404 -8.59635e-30)
(6.05807 -0.461411 -8.37811e-30)
(5.8999 -0.465893 -1.73251e-27)
(5.00443 -0.464421 9.72176e-31)
(4.87294 -0.462371 0)
(4.26519 -0.428255 6.50275e-28)
(4.17715 -0.414318 -2.64267e-28)
(3.44523 -0.367154 0)
(3.41368 -0.361215 0)
(3.04631 -0.330589 0)
(2.99 -0.332761 0)
(2.95858 -0.32148 0)
(2.55397 -0.285433 1.83704e-29)
(2.49799 -0.279569 3.69329e-29)
(2.08369 -0.231053 0)
(2.01026 -0.224396 -9.61136e-30)
(1.68372 -0.186984 -8.76323e-32)
(1.60984 -0.180192 -1.03713e-29)
(1.34053 -0.150145 3.03301e-31)
(1.27389 -0.138306 -9.7356e-31)
(0.972693 -0.101643 4.54554e-29)
(0.505771 -0.0149726 -2.66403e-29)
(0.3448 0.00545529 -6.63932e-29)
(0.0669939 0.0297711 5.64347e-28)
(0.0734276 0.0222163 0)
(0.206251 -0.0160226 6.20331e-31)
(0.200314 -0.0134996 2.9731e-31)
(0.207501 -0.0188507 0)
(0.0514747 0.0118368 0)
(-0.0534692 0.0225424 -1.42435e-29)
(-0.0201848 0.0300734 5.83195e-28)
(0.0084133 0.0255392 0)
(0.0614525 0.00332407 -2.08834e-32)
(0.0101496 0.0109078 4.63373e-31)
(-0.136632 0.0212801 -9.21566e-31)
(-0.225556 0.036948 5.39505e-32)
(-0.299941 0.0458336 1.05336e-29)
(-0.338406 0.0484313 -1.07506e-30)
(-0.353312 0.0501584 1.04159e-29)
(-0.355073 0.0488735 -1.28289e-30)
(-0.350646 0.0486716 3.98645e-30)
(-0.303764 0.0398987 2.31492e-30)
(-0.232844 0.0316369 4.26474e-31)
(-0.247281 0.0305031 0)
(0.00804838 -0.00667429 -1.86995e-30)
(0.046708 -0.0154144 6.17987e-29)
(0.272576 -0.0735624 -1.64566e-31)
(0.157153 -0.0623905 -2.24706e-28)
(0.144382 -0.0584336 2.33657e-28)
(0.143387 -0.0128188 0)
(0.107479 -0.0096918 2.76846e-34)
(-0.0232019 0.00907076 -7.45093e-30)
(-0.178974 0.026615 1.09206e-33)
(-0.20084 0.0288453 -4.56811e-32)
(-0.201628 0.0245025 0)
(-0.163654 0.0197199 -4.25781e-32)
(-0.120801 0.0132454 2.52607e-33)
(-0.0627691 0.00749224 -2.20611e-30)
(-0.0602453 0.00808022 -7.57594e-33)
(-0.0363698 0.00887685 -8.80847e-37)
(-0.159796 0.021769 -6.61328e-32)
(-0.191318 0.0262055 7.02507e-29)
(-0.237814 0.0182915 -1.23085e-28)
(-0.193612 0.0133576 0)
(-0.0946535 -0.00231461 4.03179e-33)
(-0.119422 0.0107125 3.50739e-33)
(-0.134639 0.0124697 0)
(-0.238563 0.023187 -1.63474e-31)
(-0.242976 0.0141005 5.24288e-28)
(-0.255389 0.0177173 0)
(-0.241388 0.0145479 -1.5238e-28)
(-0.209616 0.00480964 5.16293e-28)
(-0.211289 0.0108042 -6.14418e-32)
(-0.191517 0.0129319 -4.29802e-28)
(-0.182513 0.0111409 0)
(-0.0908784 0.00980833 5.76991e-30)
(-0.219385 0.0178797 -1.64733e-33)
(-0.225309 0.0215832 1.08033e-32)
(-0.249189 0.0271617 -3.4816e-28)
(-0.312721 0.0337631 4.37299e-28)
(-0.354273 0.0430809 0)
(-0.443655 0.0523276 -6.13799e-28)
(-0.433531 0.0444719 5.17628e-28)
(-0.48918 0.057521 -6.01682e-36)
(-0.489838 0.0502228 4.82471e-28)
(-0.411042 0.0402793 -5.45656e-28)
(-0.412441 0.0519129 0)
(-0.482746 0.0675315 0)
(-0.494488 0.0692239 2.43703e-28)
(-0.743113 0.105726 -1.11516e-33)
(-0.9361 0.124259 -1.06226e-28)
(-0.926573 0.122983 7.53068e-29)
(-1.02683 0.124422 2.22968e-32)
(-1.06909 0.13571 0)
(-1.06779 0.137128 6.3404e-29)
(-1.19228 0.160167 7.55536e-29)
(-1.32271 0.175878 4.85956e-29)
(-1.32629 0.176746 6.24536e-32)
(-1.69156 0.238547 1.87422e-28)
(-2.15011 0.287726 0)
(-2.38631 0.319769 0)
(-2.6705 0.353268 0)
(-2.8191 0.369639 -6.77587e-30)
(-2.89879 0.380011 -6.36415e-29)
(-3.02786 0.395517 0)
(-3.06785 0.398169 3.94199e-29)
(-3.03691 0.394385 1.79278e-29)
(-3.07117 0.398987 0)
(-3.06095 0.396113 0)
(-3.01507 0.391137 8.53542e-30)
(-3.04399 0.395269 -5.26377e-31)
(-3.02925 0.391607 0)
(-2.96176 0.383007 5.55875e-30)
(-2.95638 0.383251 -8.47223e-30)
(-2.93273 0.378995 -6.46776e-30)
(-2.86533 0.370196 7.87438e-30)
(-2.84766 0.368769 0)
(-2.82067 0.364652 0)
(-2.77037 0.357831 7.49816e-30)
(-2.74087 0.352486 -2.3026e-30)
(-2.60439 0.337029 -4.33468e-31)
(-2.67676 0.348108 -2.11253e-29)
(-2.63288 0.340657 0)
(-2.62274 0.339473 -1.47992e-29)
(-2.58462 0.333412 -1.14339e-29)
(-2.52912 0.326866 0)
(-2.51996 0.326829 2.50016e-29)
(-2.49567 0.322786 2.49355e-29)
(-2.43092 0.314416 -1.20188e-31)
(-2.41493 0.312797 2.6415e-31)
(-2.37089 0.306922 -1.87729e-31)
(-2.33447 0.301921 -9.81875e-32)
(-2.30015 0.297949 2.31156e-29)
(-2.27741 0.295032 -3.45281e-29)
(-2.23401 0.288446 2.01715e-29)
(-2.18263 0.282369 2.34134e-29)
(-2.16345 0.280497 2.93792e-29)
(-2.13603 0.276015 2.20142e-32)
(-2.07056 0.267401 -2.47142e-29)
(-2.04753 0.263552 4.49444e-37)
(-1.93038 0.249888 -4.72394e-32)
(-1.96136 0.254944 0)
(-1.91716 0.248046 -1.26542e-31)
(-1.89043 0.244926 2.65886e-29)
(-1.85739 0.239961 -1.14396e-31)
(-1.79167 0.231426 1.66215e-29)
(-1.76865 0.227695 6.35411e-30)
(-1.65811 0.214647 -4.0109e-29)
(-1.67605 0.217638 3.33735e-31)
(-1.63488 0.211376 -1.7589e-31)
(-1.60301 0.207494 1.39981e-37)
(-1.56975 0.202671 -1.44768e-31)
(-1.50873 0.194744 -1.4484e-29)
(-1.48446 0.191009 0)
(-1.38849 0.179832 1.79737e-29)
(-1.39848 0.18247 0)
(-1.35833 0.176508 -5.21216e-32)
(-1.32736 0.172791 2.78744e-29)
(-1.29861 0.168632 2.38198e-29)
(-1.24748 0.161917 1.76922e-29)
(-1.22306 0.159025 2.2024e-29)
(-1.18932 0.154719 -3.31505e-32)
(-1.16157 0.150834 0)
(-1.11797 0.145337 1.55815e-29)
(-1.10403 0.143711 -4.42706e-32)
(-1.07447 0.139777 2.02005e-29)
(-1.04288 0.135521 -1.1832e-29)
(-1.01976 0.132726 2.95333e-29)
(-0.999762 0.130329 3.30189e-29)
(-0.982318 0.12782 -1.11225e-31)
(-0.95257 0.123946 1.09331e-29)
(-0.937968 0.122243 2.66427e-29)
(-0.920172 0.119889 1.42294e-29)
(-0.900358 0.117071 -8.96785e-32)
(-0.872462 0.113638 0)
(-0.864506 0.112281 -2.93858e-32)
(-0.816659 0.106648 -4.47834e-32)
(-0.840972 0.11037 -8.31417e-30)
(-0.824254 0.112384 -3.16361e-29)
(-0.814794 0.111529 3.65029e-32)
(-0.807497 0.110231 0)
(-0.788094 0.107437 -2.72332e-29)
(-0.775482 0.106017 -4.98926e-32)
(-0.769991 0.105335 -4.54419e-32)
(-0.760369 0.103678 9.61372e-32)
(-0.738236 0.100565 7.45549e-37)
(-0.726224 0.0991716 4.97335e-29)
(-0.715917 0.0977171 -5.2861e-29)
(-0.70096 0.0953717 2.55069e-31)
(-0.672697 0.0914388 1.34462e-31)
(-0.657988 0.0895831 0)
(-0.637584 0.0867488 5.34391e-29)
(-0.617478 0.0837959 -5.7133e-29)
(-0.582397 0.0789191 1.70507e-31)
(-0.563288 0.0763526 -3.62384e-33)
(-0.530354 0.0719906 5.00206e-29)
(-0.509192 0.0690098 2.01596e-31)
(-0.46935 0.0634233 -4.21409e-29)
(-0.445189 0.0599737 6.26679e-32)
(-0.403139 0.0547233 -4.68361e-29)
(-0.372101 0.0517117 1.93835e-31)
(-0.345207 0.0512289 -6.74972e-29)
(-0.305418 0.0455471 -3.52607e-32)
(-0.281721 0.042252 2.08042e-31)
(-0.244965 0.0366881 0)
(-0.222133 0.0332037 1.07144e-32)
(-0.179271 0.0271391 3.09249e-32)
(-0.16008 0.0245694 -3.98585e-29)
(-0.122861 0.0189521 0)
(-0.10268 0.0157593 0)
(-0.0588311 0.00923527 7.63233e-29)
(-0.0432694 0.00700923 5.65125e-29)
(-0.0121218 0.00238362 4.99911e-29)
(0.00144004 0.000194134 2.86136e-32)
(0.0380696 -0.00527747 5.4648e-29)
(0.0528727 -0.00733281 5.62901e-29)
(0.075932 -0.0107553 5.84189e-29)
(0.0825144 -0.0118965 5.60622e-32)
(0.116371 -0.0165253 5.70091e-29)
(0.0855596 -0.0124005 0)
(0.142215 -0.0211141 -9.56264e-29)
(0.14008 -0.0204704 -9.29472e-32)
(0.157242 -0.0231861 -7.10774e-32)
(0.17127 -0.0252787 -1.44632e-28)
(0.178669 -0.0271853 6.04915e-30)
(0.170079 -0.0260215 -6.7769e-33)
(0.184884 -0.0285146 -2.89258e-30)
(0.191443 -0.0312325 -2.18081e-28)
(0.182899 -0.029834 -1.28892e-32)
(0.160823 -0.0260929 0)
(0.157419 -0.0257281 1.24258e-28)
(0.145933 -0.023875 1.2413e-28)
(0.1372 -0.0222696 4.51904e-32)
(0.110002 -0.0176446 2.14364e-32)
(0.100754 -0.0162196 0)
(0.0814543 -0.0131425 1.21177e-28)
(0.0723993 -0.0116007 -5.21475e-29)
(0.0466507 -0.0073147 -4.14487e-29)
(0.0366662 -0.00570134 7.6991e-29)
(0.0208735 -0.00319781 2.13012e-29)
(0.0119231 -0.00174974 -9.64727e-30)
(-0.00322009 0.000763224 7.29496e-30)
(-0.00523771 0.00108666 1.26464e-31)
(-0.013878 0.00249828 -3.66354e-30)
(-0.0168684 0.00292089 -1.74585e-30)
(-0.00796951 0.00124813 -9.58526e-32)
(0.0011208 -0.000315261 6.73723e-32)
(0.0110691 -0.00209579 -8.03347e-30)
(0.0263643 -0.00480892 1.6199e-29)
(0.0423166 -0.00799393 0)
(0.0719157 -0.0136823 -1.8989e-31)
(0.0942848 -0.0177704 -1.3538e-29)
(0.129223 -0.0239215 1.53027e-29)
(0.145142 -0.026693 2.3493e-31)
(0.184262 -0.0339641 -5.73212e-29)
(0.210448 -0.0387941 5.32792e-29)
(0.256902 -0.0476231 -3.62077e-33)
(0.277618 -0.051365 0)
(0.305489 -0.0564437 -2.6331e-29)
(0.322143 -0.0596167 -2.74925e-32)
(0.361039 -0.066706 -7.77628e-30)
(0.385957 -0.0711243 0)
(0.392873 -0.0721802 -1.98506e-31)
(0.387898 -0.0712447 -1.35264e-31)
(0.399591 -0.0735418 -2.63264e-31)
(0.409032 -0.0751153 -2.17924e-31)
(0.403998 -0.0739693 3.0403e-30)
(0.372417 -0.0680038 0)
(0.361015 -0.0658491 0)
(0.345531 -0.0630032 0)
(0.328727 -0.0597231 0)
(0.286172 -0.0518102 0)
(0.260614 -0.0472092 4.51401e-31)
(0.225693 -0.0409021 5.67215e-29)
(0.201255 -0.0363621 -4.58625e-29)
(0.171473 -0.0309441 -4.70379e-29)
(0.132496 -0.0237891 -2.80726e-31)
(0.105835 -0.0188676 2.2697e-29)
(0.0618942 -0.0109216 -4.87546e-29)
(0.0410188 -0.00719675 0)
(0.0146311 -0.00239098 5.52601e-29)
(-0.0044491 0.00113233 -1.26521e-29)
(-0.0366151 0.00696601 -3.50051e-29)
(-0.0539155 0.00999538 -9.14679e-32)
(-0.0555561 0.0101518 -1.18181e-31)
(-0.0541386 0.0099596 -4.58834e-30)
(-0.064352 0.0117939 -2.61557e-31)
(-0.0585884 0.0106257 -1.33031e-31)
(-0.0522452 0.00935107 -2.68406e-31)
(-0.0229788 0.00393111 2.55704e-29)
(-0.00497299 0.000682552 -2.97501e-32)
(0.0189274 -0.00364109 1.43414e-32)
(0.0388927 -0.00728578 -4.13271e-29)
(0.0729186 -0.0134247 3.42637e-36)
(0.0946925 -0.0173228 -4.40727e-32)
(0.125036 -0.022733 -2.74489e-37)
(0.14478 -0.0262563 -4.05972e-29)
(0.161437 -0.029204 -1.97687e-29)
(0.171017 -0.031923 -2.00263e-31)
(0.175982 -0.0329577 2.84397e-31)
(0.181544 -0.0339239 -2.00029e-29)
(0.182389 -0.0340085 7.50312e-32)
(0.162649 -0.0302271 -4.66046e-30)
(0.146927 -0.0272875 -6.0396e-31)
(0.127497 -0.0236436 -2.14078e-29)
(0.103259 -0.0190694 -2.2317e-29)
(0.0843813 -0.0155484 6.94899e-32)
(0.0454054 -0.00882872 -4.28664e-29)
(0.00823982 -0.00130894 9.90815e-29)
(-0.0403501 0.00833788 -7.11538e-29)
(-0.0682886 0.0138259 -1.31037e-31)
(-0.104029 0.0209375 2.6767e-29)
(-0.133729 0.0269008 -9.28296e-36)
(-0.184652 0.0369927 3.29365e-29)
(-0.219459 0.04382 -6.99607e-29)
(-0.233317 0.0464396 0)
(-0.244587 0.0487175 -3.39932e-32)
(-0.268298 0.0535293 -1.8512e-31)
(-0.300109 0.0597496 7.24182e-30)
(-0.307578 0.0610797 -3.83095e-29)
(-0.296235 0.0587764 0)
(-0.292075 0.0580447 -2.92479e-29)
(-0.301714 0.0599764 -5.58775e-31)
(-0.302552 0.0600358 -1.64348e-29)
(-0.286352 0.0567554 9.32403e-36)
(-0.267967 0.053175 3.28584e-31)
(-0.271289 0.0539236 6.44975e-31)
(-0.275926 0.0548313 -3.36536e-29)
(-0.274701 0.0545371 6.91655e-29)
(-0.273885 0.0544276 2.57654e-31)
(-0.277128 0.0552065 6.82565e-31)
(-0.296948 0.053298 0)
(-0.302291 0.049103 0)
(-0.349669 0.0544748 -2.87891e-26)
(-0.363722 0.0542138 3.79685e-31)
(-0.396543 0.0591082 0)
(-0.449226 0.0668056 -6.66907e-31)
(-0.482147 0.0716008 -9.56499e-29)
(-0.509066 0.0754516 -8.59291e-28)
(-0.525906 0.0780951 7.72936e-31)
(-0.572584 0.0850317 -5.33027e-29)
(-0.607621 0.0901534 -3.68022e-29)
(-0.622917 0.0922639 4.82914e-29)
(-0.615901 0.0911684 0)
(-0.617162 0.0914344 0)
(-0.628975 0.0931644 -1.05481e-28)
(-0.629645 0.0931547 1.17344e-30)
(-0.608363 0.089912 1.75427e-30)
(-0.566837 0.0837501 -4.15759e-29)
(-0.549865 0.0812755 2.35987e-28)
(-0.524912 0.0775631 -2.29352e-28)
(-0.497366 0.0734145 2.63931e-30)
(-0.445151 0.0656407 3.26214e-35)
(-0.409895 0.0604608 1.88368e-28)
(-0.371658 0.0548487 2.47495e-30)
(-0.341758 0.0501223 3.10091e-30)
(-0.312393 0.0460169 0)
(-0.253752 0.0372767 1.64533e-28)
(-0.217391 0.0319151 0)
(-0.169074 0.0247792 0)
(-0.133256 0.0194377 2.2041e-28)
(-0.0697111 0.00999309 0)
(-0.0239458 0.00326323 0)
(0.0382832 -0.00596851 -3.16992e-28)
(0.0795111 -0.0120814 -5.93111e-30)
(0.123522 -0.0185741 1.73898e-28)
(0.175607 -0.0263005 1.68839e-29)
(0.215859 -0.0322901 -6.43794e-35)
(0.274628 -0.0409467 5.69058e-29)
(0.301986 -0.0449822 4.36517e-28)
(0.317933 -0.0472712 2.15849e-28)
(0.327325 -0.0486683 -2.99664e-29)
(0.338712 -0.0503869 -6.17065e-35)
(0.357428 -0.0511368 5.25511e-30)
(0.361171 -0.0446357 8.6695e-30)
(0.375482 -0.0461821 3.84e-26)
(0.367224 -0.0450895 7.43608e-26)
(0.365609 -0.0449183 0)
(0.371058 -0.04564 3.7624e-26)
(0.363429 -0.0447124 3.74568e-26)
(0.348955 -0.0429068 3.61138e-26)
(0.320766 -0.035548 -2.33377e-34)
(0.314029 -0.03434 -5.03743e-26)
(0.312599 -0.0341651 5.03969e-26)
(0.306408 -0.0328926 1.0887e-30)
(0.287327 -0.0294936 1.70993e-26)
(0.273278 -0.0279126 5.70014e-31)
(0.264252 -0.0270509 1.51531e-30)
(0.244632 -0.0251133 1.48215e-26)
(0.255534 -0.0262525 0)
(0.24391 -0.0250937 1.54041e-26)
(0.250526 -0.0257968 9.9072e-30)
(0.283063 -0.0291796 -3.42188e-26)
(0.28413 -0.0292568 -1.55911e-26)
(0.34429 -0.0344739 3.62292e-27)
(0.384902 -0.0383137 -1.48581e-27)
(0.463893 -0.0459208 -5.79142e-28)
(0.515495 -0.0510166 -3.52908e-30)
(0.632296 -0.0626372 4.85816e-28)
(0.736022 -0.072891 5.91909e-28)
(0.867971 -0.0857862 -9.25006e-28)
(1.00045 -0.09889 0)
(1.12457 -0.111131 -5.53083e-28)
(1.28815 -0.127081 -6.84268e-30)
(1.40384 -0.138447 0)
(1.48572 -0.146482 -5.56524e-29)
(1.57977 -0.155374 -2.34299e-30)
(1.50644 -0.147847 -2.86944e-31)
(1.37834 -0.135288 2.34397e-28)
(1.38713 -0.136221 6.8384e-28)
(1.28318 -0.125643 1.83848e-30)
(1.08804 -0.106487 0)
(1.02823 -0.100805 0)
(0.961914 -0.0943716 -1.04744e-30)
(0.878875 -0.086149 8.2107e-29)
(0.836413 -0.0820947 0)
(0.82549 -0.0811223 -4.797e-31)
(0.769761 -0.0754967 -1.57675e-28)
(0.746245 -0.0732647 0)
(0.729613 -0.07169 2.64432e-28)
(0.690402 -0.0677726 0)
(0.685968 -0.0673757 -2.0787e-31)
(0.662576 -0.0651357 -3.53517e-28)
(0.662913 -0.0652204 0)
(0.681949 -0.0670918 -3.46405e-32)
(0.709541 -0.0699519 -2.58443e-31)
(0.746438 -0.0735744 -3.01135e-30)
(0.78577 -0.0776656 4.5593e-36)
(1.00155 -0.0992399 -1.25361e-30)
(1.08674 -0.107597 1.8494e-28)
(1.30231 -0.128426 -4.13182e-31)
(1.30121 -0.128178 0)
(1.34243 -0.132298 0)
(1.37489 -0.134718 -5.76806e-29)
(1.09468 -0.107099 -4.55029e-28)
(1.08913 -0.106743 1.80474e-35)
(0.943866 -0.0924017 2.90349e-35)
(0.860255 -0.0843217 -4.63922e-35)
(0.837661 -0.0822715 5.70942e-28)
(0.878834 -0.0865432 -2.06147e-28)
(0.864282 -0.0847717 0)
(0.819006 -0.0803955 5.46163e-31)
(0.829039 -0.0815749 3.50865e-31)
(0.837834 -0.0822844 -4.40307e-28)
(0.79288 -0.0778418 -9.36541e-31)
(0.792818 -0.0778678 0)
(0.748994 -0.0736254 0)
(0.778853 -0.0767147 -2.32336e-28)
(0.800724 -0.0789038 5.21347e-31)
(0.845639 -0.0834931 -6.40398e-31)
(0.929672 -0.0917683 2.27414e-31)
(1.03746 -0.102567 2.69528e-31)
(1.13979 -0.112632 -9.19182e-31)
(1.23784 -0.121736 0)
(1.16394 -0.114439 2.75098e-30)
(1.18053 -0.116211 0)
(1.19845 -0.117554 -3.36228e-30)
(1.03394 -0.101197 -4.06385e-31)
(0.980221 -0.0962018 1.03136e-30)
(0.962859 -0.0946769 -3.62193e-32)
(1.00403 -0.0987146 -1.38849e-28)
(0.962244 -0.0944123 -5.68726e-30)
(0.940506 -0.0923617 -1.51141e-28)
(0.937106 -0.0921132 1.31286e-32)
(0.906906 -0.0890609 7.54795e-28)
(0.886536 -0.0870867 2.08974e-28)
(0.895252 -0.0881238 0)
(6.07016 0.0181891 0)
(5.28634 0.00474358 -1.11523e-32)
(5.13051 0.0027069 4.22455e-33)
(4.6216 0.00374468 0)
(4.32773 0.00272905 0)
(4.12127 0.00167452 -6.19782e-33)
(4.07767 0.000860447 5.41034e-33)
(3.92807 0.000859516 0)
(3.80995 0.00111583 6.23865e-33)
(3.73017 0.00108633 5.57503e-33)
(3.70574 0.000531207 0)
(3.62637 0.000314554 7.06542e-33)
(3.53508 0.000658887 -3.32626e-33)
(3.51934 0.00086604 0)
(3.47711 0.000438485 0)
(3.45282 -6.47187e-05 0)
(3.38167 0.000381779 5.22443e-33)
(3.37612 0.000791205 -9.22961e-39)
(3.34425 0.000441478 1.18536e-32)
(3.32415 -0.000162172 1.40828e-38)
(3.28051 0.00023306 6.91204e-33)
(3.26263 0.000807977 0)
(3.23657 0.000500516 0)
(3.21841 -0.000136886 2.17957e-32)
(3.18029 0.000138131 1.51015e-32)
(3.16187 0.000783705 -2.15871e-32)
(3.13643 0.000598808 -1.56061e-32)
(3.11851 -7.50441e-05 0)
(3.0817 9.05553e-05 0)
(3.05983 0.000805893 0)
(3.03218 0.000747167 0)
(3.01278 2.85594e-05 0)
(2.97181 9.80937e-05 -2.2493e-32)
(2.94643 0.000891392 5.43444e-32)
(2.91049 0.000965904 2.42786e-32)
(2.88692 0.000208736 0)
(2.84149 0.000206587 0)
(2.80257 0.00106563 -4.046e-32)
(2.75929 0.00128601 -2.60251e-32)
(2.72796 0.000544823 0)
(2.66098 0.000432068 -3.52609e-32)
(2.62027 0.0014398 3.52866e-32)
(2.54317 0.00182571 -5.21931e-32)
(2.49715 0.0010458 5.78452e-32)
(2.42392 0.00107361 0)
(2.32426 0.0021284 0)
(2.23748 0.00283913 0)
(2.15927 0.00231548 0)
(1.98527 0.00226918 0)
(1.90609 0.00420199 -4.54287e-32)
(1.64036 0.00569205 -1.91513e-31)
(1.46667 0.00612575 -4.74682e-31)
(1.14976 0.00951685 1.27349e-30)
(0.818635 0.155327 4.77385e-27)
(1.13091 0.316876 -1.52294e-26)
(1.4652 0.39475 -4.90652e-31)
(1.47909 0.378724 8.03036e-31)
(1.84135 0.446172 -1.48631e-27)
(2.38376 0.582843 -5.40566e-31)
(2.3862 0.583628 -1.33519e-31)
(2.42948 0.596654 0)
(2.43724 0.602734 5.14548e-28)
(2.4098 0.79551 0)
(2.59389 0.866454 0)
(2.79337 0.934583 -7.12021e-27)
(2.817 0.940478 1.79603e-27)
(3.02592 0.994028 1.76161e-27)
(3.10003 1.0102 7.43631e-29)
(3.38176 1.1019 -2.74053e-28)
(3.42864 1.11864 2.97784e-28)
(3.54583 1.1533 -1.13188e-29)
(3.57281 1.15284 0)
(3.63963 1.17617 0)
(3.64641 1.18024 9.33156e-33)
(3.70823 1.19831 1.1839e-32)
(3.73266 1.20587 -3.00345e-29)
(3.758 1.21529 -2.72902e-33)
(3.80554 1.23097 0)
(3.83829 1.24151 3.51698e-28)
(3.88393 1.26089 1.30309e-33)
(3.83641 1.24968 0)
(3.96345 1.29165 3.34366e-28)
(3.99975 1.30183 -1.13865e-28)
(4.05882 1.3204 -2.32868e-31)
(4.05616 1.32169 -7.48497e-29)
(4.13891 1.34877 -2.54575e-29)
(4.16898 1.35625 9.71631e-29)
(4.22035 1.37223 8.72394e-30)
(4.20958 1.36751 -2.99873e-29)
(4.2581 1.38241 1.666e-33)
(4.27536 1.3853 -3.67972e-29)
(4.31749 1.40052 0)
(4.31252 1.40139 1.23782e-29)
(4.35841 1.4141 7.49364e-30)
(4.38771 1.42283 -3.4086e-30)
(4.30404 1.39706 0)
(4.43309 1.43883 0)
(4.45971 1.44649 2.00227e-29)
(4.49756 1.45825 2.6158e-29)
(4.47688 1.45399 -5.6305e-32)
(4.54255 1.47528 -1.19977e-29)
(4.56045 1.47838 1.82392e-32)
(4.59959 1.49217 6.37151e-36)
(4.596 1.49353 -2.69277e-28)
(4.64588 1.50805 4.27261e-33)
(4.67817 1.51662 2.21281e-32)
(4.60378 1.49471 1.32829e-29)
(4.72052 1.53275 3.62066e-32)
(4.74517 1.53841 1.88748e-29)
(4.78756 1.55249 -7.62676e-30)
(4.76924 1.54952 -1.60781e-31)
(4.82248 1.56598 -7.46724e-29)
(4.85805 1.57866 -3.20435e-32)
(4.93372 1.60088 1.26942e-32)
(4.91468 1.59042 -1.09617e-28)
(4.95076 1.60486 -6.345e-29)
(4.99346 1.61889 -9.10681e-30)
(4.96808 1.61407 0)
(5.0219 1.63069 0)
(5.06963 1.64914 0)
(4.99344 1.61818 0)
(5.12837 1.64998 -6.47528e-30)
(5.16434 1.66617 -2.01443e-32)
(5.21354 1.68252 -2.13683e-29)
(5.19262 1.68047 0)
(5.25125 1.69667 -5.82623e-30)
(5.29039 1.70765 -3.2851e-29)
(5.19192 1.68106 1.41334e-31)
(5.26532 1.71508 -1.01768e-29)
(5.29308 1.73369 -2.68676e-28)
(5.33132 1.74741 -3.86827e-29)
(5.37986 1.76609 4.2087e-31)
(5.44831 1.7863 2.30046e-29)
(5.50319 1.80291 -9.50731e-32)
(5.49962 1.80613 -3.50929e-31)
(5.60315 1.83676 -2.00187e-31)
(5.678 1.84549 1.8221e-29)
(5.60257 1.8225 1.59042e-29)
(5.70103 1.85402 0)
(5.76023 1.87326 0)
(5.86211 1.90205 -2.71654e-31)
(5.85291 1.8939 -5.3265e-31)
(5.91033 1.9161 -7.78246e-29)
(5.95255 1.92905 2.71414e-35)
(5.98135 1.93922 1.4518e-29)
(6.07321 1.96391 -1.32444e-29)
(6.14303 1.98402 -3.96641e-30)
(6.16799 1.99745 0)
(6.26452 2.02461 -1.26095e-29)
(6.34051 2.04667 1.7544e-35)
(6.34195 2.05406 1.18843e-29)
(6.4601 2.09118 -1.0684e-29)
(6.5474 2.11568 -6.22943e-30)
(6.54522 2.12178 3.91213e-30)
(6.67982 2.16177 -1.83056e-29)
(6.7811 2.19116 0)
(6.7766 2.19772 0)
(6.90805 2.23945 0)
(7.02391 2.28211 -7.77627e-29)
(7.03458 2.2927 6.34779e-31)
(7.17626 2.33841 6.36132e-31)
(7.24064 2.36179 -1.11688e-29)
(7.16873 2.34716 -1.91646e-29)
(7.17158 2.34305 -1.27334e-28)
(7.33032 2.75775 -1.63688e-27)
(8.09416 3.29604 3.98282e-30)
(8.79802 2.95964 3.39484e-30)
(9.04986 2.9248 1.66357e-31)
(9.49432 2.85626 5.37451e-28)
(10.1224 2.63995 -6.53306e-32)
(11.2489 2.23878 1.42261e-27)
(11.6885 -0.0825637 2.66508e-29)
(10.6899 -1.42691 0)
(9.52298 -1.34085 -3.36041e-30)
(8.84622 -1.3183 -6.67717e-31)
(8.39257 -1.30888 0)
(7.90404 -1.30853 -4.66994e-28)
(7.63001 -1.2943 -5.72261e-31)
(7.16207 -1.35795 9.66482e-33)
(6.57828 -1.25787 0)
(5.93402 -1.11095 1.71461e-27)
(5.50578 -0.119138 2.06288e-30)
(5.44385 0.245091 -2.13127e-26)
(5.52466 0.450732 7.82886e-34)
(5.41244 0.58445 -1.1147e-26)
(5.55942 0.703159 5.16614e-33)
(5.59133 0.799368 1.26891e-26)
(5.5506 0.841728 0)
(5.64446 0.879874 4.28494e-33)
(5.51181 0.888711 -1.15226e-33)
(5.65669 0.90459 -1.21058e-26)
(5.73011 0.917444 1.21221e-26)
(5.67848 0.920719 -5.94409e-32)
(5.78409 0.950122 1.17616e-26)
(5.61201 0.950756 -5.04957e-32)
(5.77168 0.958127 -1.15505e-26)
(5.84331 0.956712 -2.97656e-32)
(5.69522 0.9553 -1.64025e-32)
(5.79285 0.983568 -1.17948e-26)
(5.66632 1.08472 -1.26739e-26)
(5.98963 1.1678 1.06745e-33)
(6.57718 1.35453 1.56518e-26)
(6.81279 1.16084 9.05607e-31)
(6.95519 1.12231 1.54519e-26)
(6.81414 1.04887 0)
(6.9373 1.06404 -1.4456e-26)
(6.87165 1.00964 5.91523e-32)
(6.9983 1.01223 1.37152e-26)
(6.91893 0.906999 0)
(7.0359 0.894658 -2.61884e-26)
(7.08927 0.633427 0)
(7.19432 0.580547 -2.3304e-26)
(7.26449 -0.0146007 1.7508e-30)
(7.21984 -0.112782 2.78725e-30)
(6.68213 -0.478224 -3.42925e-27)
(6.60042 -0.483583 -2.81599e-27)
(5.64549 -0.470569 9.64765e-31)
(5.6138 -0.483104 4.55917e-31)
(4.93508 -0.44542 5.7755e-28)
(4.92159 -0.444679 6.09802e-28)
(4.48816 -0.430737 0)
(4.08211 -0.401623 0)
(4.01665 -0.388385 -2.61151e-31)
(3.59823 -0.366845 1.85248e-28)
(3.46289 -0.343103 0)
(3.08689 -0.312238 8.35061e-29)
(2.98313 -0.302327 6.00302e-29)
(2.55498 -0.25308 4.74695e-29)
(2.48213 -0.249909 -6.43288e-29)
(2.082 -0.203917 1.51876e-31)
(2.04009 -0.203354 4.64469e-29)
(1.67263 -0.161457 3.63727e-31)
(1.65008 -0.159058 -1.00288e-30)
(1.38429 -0.109935 1.26051e-28)
(0.86136 -0.0244817 -8.38392e-29)
(0.65438 -0.0132862 1.73976e-30)
(0.442479 0.0443621 9.59378e-28)
(0.443806 0.0258293 8.96475e-28)
(0.5164 -0.0210637 0)
(0.422023 -0.00724018 0)
(0.459371 -0.0376035 9.66671e-29)
(0.245447 0.0265917 0)
(0.0702912 0.0251385 -1.35632e-28)
(0.127299 0.0548087 9.02427e-28)
(0.151642 0.0486812 8.72629e-31)
(0.284169 0.00233197 1.87391e-28)
(0.0953425 0.0361769 1.13363e-36)
(-0.0264774 0.0231055 -1.14164e-30)
(-0.201444 0.0480083 3.43116e-29)
(-0.285777 0.0533745 4.64615e-29)
(-0.349474 0.0601536 0)
(-0.369035 0.0618364 2.63066e-32)
(-0.3829 0.0614142 0)
(-0.390821 0.0624126 4.53841e-29)
(-0.347814 0.0484027 -1.21863e-30)
(-0.300044 0.0508339 -3.42633e-29)
(-0.318062 0.0448187 1.77939e-30)
(-0.0620044 0.0119917 2.72973e-29)
(-0.0742386 0.0246263 1.1664e-28)
(0.0610514 -0.0163567 0)
(0.0335564 -0.0542012 -5.99115e-33)
(0.0377525 -0.053895 5.22981e-28)
(0.0413647 0.00139954 -4.68074e-33)
(0.0108394 0.00554832 9.07077e-29)
(-0.131031 0.0356963 -2.75533e-29)
(-0.274954 0.0432638 0)
(-0.29001 0.0432924 0)
(-0.278776 0.0342965 -6.2392e-33)
(-0.259633 0.0305348 4.33272e-32)
(-0.178589 0.0184455 1.10115e-29)
(-0.109813 0.0106836 8.53061e-33)
(-0.0992656 0.0103339 -6.9102e-37)
(-0.0485185 0.01456 -2.94573e-32)