/*--------------------------------*- C++ -*----------------------------------*\
| =========                 |                                                 |
| \\      /  F ield         | OpenFOAM: The Open Source CFD Toolbox           |
|  \\    /   O peration     | Version:  v2012                                 |
|   \\  /    A nd           | Website:  www.openfoam.com                      |
|    \\/     M anipulation  |                                                 |
\*---------------------------------------------------------------------------*/
FoamFile
{
    version     2.0;
    format      ascii;
    class       volVectorField;
    location    "1e-06";
    object      UMean;
}
// * * * * * * * * * * * * * * * * * * * * * * * * * * * * * * * * * * * * * //

dimensions      [0 1 -1 0 0 0 0];


internalField   nonuniform List<vector> 
102000
(
(5.79554 0.0129789 0)
(4.95421 0.00448871 0)
(4.74514 0.00297853 0)
(4.29707 0.00229482 -2.57227e-31)
(4.02361 0.00170869 -2.98446e-31)
(3.76303 0.00114923 7.3579e-43)
(3.682 0.000694712 0)
(3.60152 0.000524847 5.06589e-31)
(3.53031 0.000709069 5.8473e-31)
(3.39223 0.000708622 0)
(3.31922 0.000367412 1.31789e-42)
(3.30465 0.000131668 1.0084e-30)
(3.27164 0.000412503 1.1095e-30)
(3.19782 0.000569423 1.16361e-30)
(3.10037 0.000275559 1.12236e-30)
(3.13079 -6.61078e-05 0)
(3.12635 0.000257271 7.63574e-43)
(3.06667 0.000517231 0)
(2.98021 0.000270118 0)
(3.00066 -0.000104562 0)
(3.02051 0.000165818 0)
(2.9636 0.000503907 0)
(2.88284 0.000299358 0)
(2.89286 -9.53032e-05 0)
(2.91617 9.75617e-05 0)
(2.87184 0.000485404 0)
(2.79198 0.000352099 0)
(2.79151 -6.74956e-05 0)
(2.81479 5.84618e-05 0)
(2.77816 0.000496549 0)
(2.69623 0.000434691 0)
(2.68511 -1.76478e-05 2.02431e-42)
(2.70359 5.49905e-05 1.42033e-30)
(2.67242 0.000545882 1.56604e-30)
(2.58306 0.000550802 1.43018e-30)
(2.56045 8.43003e-05 2.08734e-30)
(2.57359 0.000113018 9.47079e-31)
(2.53659 0.000643734 0)
(2.43994 0.00072779 8.63822e-31)
(2.40387 0.000270835 3.36094e-31)
(2.39664 0.000240368 1.83457e-31)
(2.36191 0.000857379 6.10719e-37)
(2.23557 0.000995612 -1.34231e-33)
(2.18136 0.000539193 -8.3163e-31)
(2.16433 0.000595836 -1.22936e-30)
(2.07725 0.00121053 -1.05396e-30)
(1.9389 0.00152831 -5.92192e-36)
(1.85026 0.00111241 3.29838e-30)
(1.74195 0.00116086 0)
(1.66819 0.00222635 4.68565e-30)
(1.37279 0.00263449 6.02203e-30)
(1.18666 0.0026457 0)
(0.926481 0.00422735 0)
(0.639127 0.0455412 1.15777e-25)
(0.889705 0.141205 1.35899e-24)
(1.22158 0.228589 2.25956e-30)
(1.34013 0.284958 1.63312e-29)
(1.70222 0.406664 0)
(2.10656 0.512654 0)
(2.09756 0.511042 0)
(2.18045 0.534033 1.06258e-29)
(2.18355 0.536907 -2.30334e-27)
(2.10918 0.638179 7.03305e-30)
(2.30639 0.708489 1.82014e-25)
(2.56553 0.789951 -1.01969e-29)
(2.6002 0.806265 -1.78906e-25)
(2.73839 0.876139 -3.7537e-26)
(2.83097 0.909711 8.42532e-30)
(3.11944 1.01534 -1.86882e-27)
(3.13725 1.02359 -7.16307e-30)
(3.16069 1.02934 2.57322e-28)
(3.21168 1.04015 3.44931e-30)
(3.32837 1.07863 -3.65531e-27)
(3.3116 1.07453 2.87574e-27)
(3.29416 1.06776 3.5053e-27)
(3.36544 1.09059 -3.5564e-27)
(3.37055 1.0914 1.45656e-30)
(3.44915 1.11622 0)
(3.41105 1.10379 -5.1652e-29)
(3.52805 1.14385 0)
(3.57558 1.1624 -1.54235e-30)
(3.60371 1.17254 -4.38002e-27)
(3.59211 1.16737 0)
(3.71432 1.2062 5.4579e-27)
(3.76444 1.2243 0)
(3.75147 1.22145 0)
(3.75868 1.22233 1.3458e-27)
(3.86618 1.2577 -1.44921e-33)
(3.86638 1.25714 6.72102e-30)
(3.82733 1.2441 0)
(3.86354 1.25434 0)
(3.96311 1.28722 0)
(3.93654 1.28028 0)
(3.89636 1.2659 -7.15709e-28)
(3.9864 1.29401 1.10469e-27)
(3.99159 1.29659 4.05103e-28)
(4.02429 1.30734 -1.31665e-29)
(4.0028 1.29914 -7.09899e-29)
(4.10972 1.33311 0)
(4.13193 1.34193 1.34917e-29)
(4.10026 1.33193 4.27713e-28)
(4.12229 1.33736 -2.14854e-28)
(4.22388 1.37073 -3.96998e-29)
(4.20582 1.36645 -5.4234e-28)
(4.16356 1.35195 1.36313e-29)
(4.25874 1.3811 2.76524e-29)
(4.28189 1.3903 1.21681e-28)
(4.28514 1.39222 -2.77713e-28)
(4.27526 1.38714 -1.39e-29)
(4.38767 1.42341 1.70547e-28)
(4.38714 1.42516 -2.54877e-28)
(4.34158 1.41014 -2.83709e-29)
(4.41787 1.43725 -1.4446e-29)
(4.1764 1.35584 -1.11587e-29)
(4.47304 1.4485 6.06879e-28)
(4.45979 1.44698 3.77532e-29)
(4.57666 1.48446 -1.52422e-29)
(4.58137 1.48822 0)
(4.53325 1.47244 0)
(4.62054 1.50209 -4.79449e-28)
(4.37663 1.41964 -3.37292e-29)
(4.67221 1.50913 1.12839e-27)
(4.66441 1.5088 -7.17273e-28)
(4.78834 1.54853 8.50575e-28)
(4.78023 1.54899 1.73471e-29)
(4.73185 1.53184 2.73586e-28)
(4.83131 1.56185 0)
(4.83241 1.56568 0)
(4.7904 1.55923 0)
(4.82501 1.57653 -8.32888e-28)
(4.92069 1.60861 -8.67983e-28)
(4.96423 1.62513 -1.06821e-27)
(4.95894 1.62196 1.81711e-27)
(5.09328 1.6639 7.86051e-28)
(5.12147 1.6769 1.20937e-27)
(5.11195 1.67148 3.10046e-33)
(5.23439 1.69873 3.16853e-28)
(5.24056 1.7021 -5.3534e-28)
(5.20913 1.69275 -5.88303e-28)
(5.28029 1.71886 -1.01288e-27)
(5.05516 1.64012 -3.1128e-33)
(5.36569 1.73542 2.49291e-29)
(5.39268 1.74813 -3.2195e-28)
(5.49715 1.78129 -1.80089e-28)
(5.51806 1.78992 1.08925e-28)
(5.53538 1.79392 5.59563e-29)
(5.68492 1.84549 4.65306e-28)
(5.71409 1.85903 5.91626e-29)
(5.70245 1.85321 -4.55774e-28)
(5.86465 1.90369 7.04437e-28)
(5.89874 1.91955 -4.4248e-28)
(5.88221 1.91433 -5.61341e-29)
(6.05851 1.9683 5.23196e-28)
(6.1085 1.98928 -3.74408e-28)
(6.10851 1.98721 -3.82421e-28)
(6.2829 2.04039 -7.33572e-29)
(6.34044 2.06081 -7.83204e-33)
(6.33882 2.06006 7.96901e-29)
(6.5208 2.12149 2.54164e-29)
(6.59548 2.1508 0)
(6.60402 2.15346 0)
(6.74815 2.19863 1.67772e-28)
(6.74662 2.20361 0)
(6.65272 2.17469 8.21557e-29)
(7.00477 2.56203 1.69024e-32)
(7.87692 3.09632 -1.40512e-28)
(8.43247 2.83791 -5.05973e-28)
(8.65426 2.82352 0)
(9.00035 2.78848 1.87183e-28)
(9.56834 2.66703 9.58156e-33)
(10.4284 2.37566 1.00739e-26)
(11.3048 0.500035 -1.28957e-33)
(10.424 -0.629101 -2.50673e-28)
(8.70863 -0.813215 2.27901e-26)
(8.12886 -0.257344 -1.65648e-28)
(7.62118 -0.306182 0)
(7.05936 0.118374 1.75086e-30)
(6.66909 0.0754331 -1.12977e-28)
(6.30735 0.0402188 -1.55785e-33)
(5.76211 0.37011 1.29409e-28)
(5.25758 0.493557 2.3034e-26)
(4.65889 0.863776 8.72389e-31)
(4.97851 1.0711 -2.37283e-26)
(5.05348 1.12893 -4.30974e-31)
(5.03585 1.1608 -1.03884e-26)
(5.01625 1.16311 0)
(5.14014 1.19903 1.00062e-26)
(5.10714 1.20132 -9.72966e-27)
(5.14059 1.21014 -9.63206e-34)
(5.08577 1.20239 -9.57441e-27)
(5.14299 1.2084 -9.83011e-27)
(5.2692 1.2354 -1.01064e-26)
(5.2421 1.23382 1.99016e-26)
(5.26502 1.24239 9.96737e-27)
(4.94207 1.16863 9.32037e-27)
(5.24239 1.23523 -1.9987e-26)
(5.37334 1.25922 -1.7642e-31)
(5.24663 1.25432 0)
(5.29177 1.27455 -1.0396e-26)
(5.31704 1.4542 0)
(5.50201 1.5241 0)
(5.76774 1.6867 0)
(6.31934 1.59714 -1.37322e-26)
(6.46404 1.58769 1.38569e-26)
(6.35473 1.47337 -8.51513e-31)
(6.4206 1.47864 1.15444e-30)
(6.39234 1.39735 -2.43936e-26)
(6.46642 1.40005 -1.227e-26)
(6.45132 1.27234 -4.04879e-31)
(6.5196 1.26058 -2.40874e-26)
(6.65097 0.983328 0)
(6.68255 0.914368 -2.42054e-30)
(6.74474 0.189172 -8.52627e-30)
(6.64002 0.0906715 -9.57672e-30)
(6.1049 -0.432187 -1.01969e-29)
(5.92853 -0.43313 -3.79726e-27)
(5.01445 -0.454268 1.31985e-30)
(4.88816 -0.451945 0)
(4.27338 -0.423472 1.81179e-27)
(4.19185 -0.411038 -7.79084e-28)
(3.44572 -0.36604 0)
(3.41878 -0.359102 0)
(3.04774 -0.32955 0)
(2.99981 -0.332014 0)
(2.96812 -0.322136 0)
(2.55793 -0.286251 7.3184e-29)
(2.50477 -0.28075 1.29107e-28)
(2.08752 -0.232064 0)
(2.01586 -0.225567 -3.23664e-29)
(1.68728 -0.188107 -1.22929e-31)
(1.6141 -0.181628 -5.75632e-29)
(1.34379 -0.1514 1.99943e-31)
(1.28255 -0.14032 -9.3389e-31)
(0.966973 -0.101005 1.59563e-28)
(0.49801 -0.0137926 -5.25614e-29)
(0.347801 0.0063876 -1.39423e-28)
(0.0653317 0.0168191 1.16938e-27)
(0.0703274 0.0104133 0)
(0.207989 -0.0179022 1.05565e-31)
(0.202062 -0.0154043 1.99238e-31)
(0.200054 -0.0177794 0)
(0.0488706 0.0114909 0)
(-0.0507297 0.022215 7.43635e-29)
(-0.0207413 0.0149104 1.49296e-27)
(0.00715514 0.00872195 0)
(0.0627668 0.00266543 4.42546e-33)
(0.0131106 0.00987056 3.55675e-31)
(-0.147276 0.0230827 -1.87162e-30)
(-0.24437 0.0393272 7.81673e-32)
(-0.306337 0.0468237 -2.06164e-29)
(-0.338022 0.048253 -1.03914e-28)
(-0.346232 0.0492249 -2.13934e-28)
(-0.345023 0.0473915 -1.80172e-30)
(-0.335603 0.0465195 -1.17742e-28)
(-0.295326 0.0390022 3.58382e-30)
(-0.231391 0.0306515 2.92103e-31)
(-0.235765 0.0283603 0)
(0.0244317 -0.0109272 -2.36287e-30)
(0.0696433 -0.021684 3.76568e-28)
(0.274635 -0.0793712 2.08878e-31)
(0.155736 -0.0592943 -1.9505e-28)
(0.143398 -0.0548974 2.28971e-28)
(0.143055 -0.0119601 0)
(0.108208 -0.00882801 2.41316e-34)
(-0.0230014 0.00916949 -6.69403e-30)
(-0.179427 0.0266679 2.08836e-34)
(-0.200991 0.0289339 -3.03407e-31)
(-0.202127 0.0245205 0)
(-0.164365 0.0198455 -2.38255e-31)
(-0.121095 0.0132133 -1.15299e-31)
(-0.0629278 0.00747652 -2.43951e-29)
(-0.0603924 0.00795151 -2.47382e-32)
(-0.0360916 0.00916567 -1.27202e-36)
(-0.15984 0.0224327 -5.74034e-32)
(-0.191274 0.0268004 9.20509e-29)
(-0.237859 0.0191403 -1.23931e-28)
(-0.194133 0.0140976 0)
(-0.0946632 -0.000441389 4.05531e-33)
(-0.119478 0.0135866 3.53095e-33)
(-0.134039 0.0157583 0)
(-0.237943 0.0271586 -1.43163e-31)
(-0.242522 0.0180625 5.85565e-28)
(-0.255148 0.0203472 0)
(-0.241565 0.015814 -2.21974e-28)
(-0.209377 0.00869949 5.79793e-28)
(-0.211057 0.0135609 -5.37341e-32)
(-0.191568 0.0163757 -5.07345e-28)
(-0.181933 0.0149208 0)
(-0.090181 0.00972168 -1.47562e-29)
(-0.219306 0.0214776 -2.06847e-33)
(-0.22532 0.0241644 9.10038e-33)
(-0.249405 0.0299793 -3.98443e-28)
(-0.312696 0.0371782 4.81753e-28)
(-0.354243 0.0452971 0)
(-0.444229 0.0548398 -6.91587e-28)
(-0.433472 0.0482605 5.31485e-28)
(-0.489496 0.0591972 -7.04072e-36)
(-0.490392 0.0522255 5.86893e-28)
(-0.411048 0.042326 -5.98906e-28)
(-0.413061 0.0518603 0)
(-0.483531 0.0689104 0)
(-0.494758 0.0702225 3.06234e-28)
(-0.744556 0.106811 -4.92748e-34)
(-0.938278 0.125411 -1.37226e-28)
(-0.928447 0.123528 9.84237e-29)
(-1.02908 0.12525 2.04554e-32)
(-1.07111 0.135529 0)
(-1.06982 0.136885 5.58825e-29)
(-1.19504 0.160838 1.08958e-28)
(-1.32553 0.176674 6.63105e-29)
(-1.32758 0.177107 1.09055e-31)
(-1.58276 0.218801 7.27906e-28)
(-1.97472 0.266893 0)
(-2.28425 0.308238 0)
(-2.59726 0.343322 0)
(-2.74302 0.35993 -5.18213e-29)
(-2.82779 0.371086 -1.31119e-29)
(-2.9717 0.388592 0)
(-3.02646 0.393223 -1.19025e-29)
(-3.00588 0.390581 -3.56766e-29)
(-3.04974 0.396296 0)
(-3.04523 0.394265 0)
(-3.00213 0.389491 3.44689e-29)
(-3.03476 0.394008 5.30857e-29)
(-3.02163 0.390701 0)
(-2.95424 0.382043 -1.1285e-29)
(-2.95127 0.382503 -3.40213e-29)
(-2.92798 0.378394 -4.02898e-29)
(-2.85963 0.36946 -5.3697e-29)
(-2.84364 0.368152 0)
(-2.81666 0.364092 0)
(-2.76521 0.357165 9.44782e-31)
(-2.73724 0.352151 -6.32142e-29)
(-2.59698 0.336008 4.05122e-29)
(-2.6717 0.347138 -8.10751e-29)
(-2.62851 0.34002 0)
(-2.61859 0.3388 -5.05442e-29)
(-2.57941 0.332749 -8.0454e-30)
(-2.52423 0.326173 0)
(-2.51593 0.326141 1.2643e-28)
(-2.49061 0.322058 4.56352e-29)
(-2.42503 0.31358 3.0342e-29)
(-2.41091 0.312137 -2.93491e-29)
(-2.36608 0.306168 3.62688e-29)
(-2.32853 0.301071 6.07024e-29)
(-2.29572 0.297242 1.67395e-28)
(-2.27281 0.29426 -1.21372e-28)
(-2.22806 0.287635 6.98478e-29)
(-2.17759 0.281619 8.04943e-29)
(-2.15911 0.279748 2.04311e-28)
(-2.13026 0.275171 2.88768e-29)
(-2.06403 0.266489 -1.11642e-28)
(-2.0432 0.263011 -9.23216e-35)
(-1.92285 0.248814 2.72676e-29)
(-1.95478 0.253889 0)
(-1.91211 0.247328 2.5779e-29)
(-1.88593 0.244222 1.08636e-28)
(-1.85105 0.239104 -2.87736e-29)
(-1.78478 0.230513 6.27463e-29)
(-1.76416 0.227149 2.43678e-30)
(-1.65064 0.213647 -6.68985e-29)
(-1.66904 0.216579 4.84389e-29)
(-1.62966 0.210654 4.61846e-29)
(-1.59823 0.206766 8.07029e-35)
(-1.56305 0.201768 -2.33127e-29)
(-1.50161 0.193802 -2.95943e-29)
(-1.4796 0.190403 0)
(-1.38113 0.178842 4.92323e-29)
(-1.39124 0.181343 0)
(-1.35275 0.175696 2.08555e-29)
(-1.32212 0.17196 1.73538e-28)
(-1.29179 0.167651 1.12801e-28)
(-1.24029 0.160923 6.81177e-29)
(-1.21749 0.158197 1.12903e-28)
(-1.18391 0.153901 1.96978e-29)
(-1.15457 0.149864 0)
(-1.11084 0.144349 8.2779e-29)
(-1.0984 0.142882 2.11874e-29)
(-1.06829 0.138887 9.09657e-29)
(-1.03569 0.134544 -2.67464e-29)
(-1.0136 0.131857 1.21872e-28)
(-0.993852 0.129468 1.35351e-28)
(-0.97551 0.126882 -1.78883e-29)
(-0.945533 0.122988 3.78919e-29)
(-0.931715 0.121358 1.29593e-28)
(-0.914089 0.119024 5.57205e-29)
(-0.893505 0.116141 -1.48113e-29)
(-0.865428 0.112682 0)
(-0.858123 0.111445 -1.58957e-29)
(-0.809436 0.105673 -1.56166e-29)
(-0.833988 0.109376 -7.71131e-29)
(-0.817502 0.111199 -2.41353e-28)
(-0.808447 0.110353 1.45684e-29)
(-0.800837 0.109057 0)
(-0.781236 0.106263 -2.45166e-28)
(-0.768904 0.104846 -1.35696e-29)
(-0.763633 0.104169 -1.48313e-29)
(-0.753598 0.102505 1.31158e-29)
(-0.731275 0.0993883 4.55729e-35)
(-0.7198 0.0980397 5.11379e-28)
(-0.709663 0.0966027 -5.14729e-28)
(-0.693907 0.0941822 2.41034e-29)
(-0.66546 0.0902434 1.17589e-29)
(-0.651694 0.0884971 0)
(-0.631376 0.0856738 4.64838e-28)
(-0.610012 0.0825732 -4.13418e-28)
(-0.574819 0.0777048 1.10228e-29)
(-0.55714 0.0753259 1.27295e-29)
(-0.524134 0.0709716 3.29655e-28)
(-0.501371 0.0677853 1.0811e-29)
(-0.461503 0.0622346 -2.1421e-28)
(-0.439374 0.0590667 -9.87352e-30)
(-0.395966 0.0536351 -2.0696e-28)
(-0.363754 0.050397 7.85899e-30)
(-0.338907 0.050061 -4.1625e-28)
(-0.299377 0.0444457 9.64962e-30)
(-0.273493 0.0408769 1.07583e-29)
(-0.236419 0.0353551 0)
(-0.215841 0.0322315 -1.05587e-29)
(-0.173133 0.0262229 -1.07058e-29)
(-0.151538 0.0233429 -4.37013e-28)
(-0.113982 0.0177476 0)
(-0.0960877 0.0149123 0)
(-0.0522793 0.00839923 8.25932e-28)
(-0.0348289 0.00587688 8.8969e-28)
(-0.00346254 0.00127238 5.38954e-28)
(0.00844632 -0.000673545 1.22119e-29)
(0.0449795 -0.00607713 6.52991e-28)
(0.0611785 -0.00832726 7.08484e-28)
(0.0841709 -0.0117204 7.54206e-28)
(0.089845 -0.0127183 1.21854e-29)
(0.123818 -0.0173321 7.69969e-28)
(0.0927758 -0.0131981 0)
(0.150179 -0.0219063 -9.84903e-28)
(0.147756 -0.0212524 -1.16369e-29)
(0.164893 -0.0239454 -1.12603e-29)
(0.179595 -0.0261637 -1.69267e-27)
(0.186346 -0.0283325 1.21098e-28)
(0.177239 -0.0271258 -2.39952e-30)
(0.192785 -0.0297076 -7.57521e-29)
(0.199473 -0.0321241 -1.78826e-27)
(0.18989 -0.0306475 6.55986e-30)
(0.167767 -0.0269743 0)
(0.165874 -0.0268287 1.63928e-27)
(0.154201 -0.0249479 1.54055e-27)
(0.143843 -0.0231684 -3.88689e-30)
(0.11675 -0.0186225 -3.31184e-30)
(0.109147 -0.0174737 0)
(0.0895766 -0.0143746 1.7193e-27)
(0.0790657 -0.0126363 -6.16017e-28)
(0.0532443 -0.00837978 -3.65827e-28)
(0.0447622 -0.00702607 6.9061e-28)
(0.0291397 -0.00458153 2.54661e-28)
(0.0188033 -0.00292236 -1.0896e-28)
(0.00340276 -0.000365046 7.70277e-29)
(0.00256999 -0.000247893 -1.48028e-30)
(-0.00628084 0.00119843 -7.49716e-29)
(-0.00993097 0.0017333 -4.12273e-29)
(-0.000608115 -1.429e-05 3.01008e-30)
(0.00825463 -0.00154054 -3.38995e-30)
(0.0180032 -0.00328911 6.32418e-30)
(0.0331205 -0.00597625 4.20648e-29)
(0.0503114 -0.00945817 0)
(0.0799306 -0.0151591 2.93316e-30)
(0.100288 -0.0188745 6.78973e-29)
(0.135568 -0.0250698 1.66441e-28)
(0.153605 -0.0282062 -1.68088e-30)
(0.192596 -0.0354348 -6.88751e-28)
(0.216588 -0.039874 6.26972e-28)
(0.263414 -0.0488174 -1.91223e-30)
(0.285707 -0.052865 0)
(0.313513 -0.057929 -8.86166e-29)
(0.328831 -0.0608424 3.46351e-30)
(0.367872 -0.0679603 2.56622e-29)
(0.393839 -0.0725764 0)
(0.400123 -0.0735241 6.48535e-30)
(0.395132 -0.0725775 4.29881e-30)
(0.407418 -0.0749666 4.55988e-30)
(0.416737 -0.0765268 5.70206e-30)
(0.410643 -0.0751922 -6.75613e-29)
(0.378991 -0.0692169 0)
(0.369152 -0.0673416 0)
(0.353514 -0.0644575 0)
(0.33467 -0.0608032 0)
(0.29211 -0.0528976 0)
(0.268797 -0.0487039 -1.14717e-29)
(0.233531 -0.0423209 4.70759e-28)
(0.207966 -0.0375764 -3.89265e-28)
(0.177276 -0.0319957 -3.62011e-28)
(0.138257 -0.0248428 -3.44282e-29)
(0.113763 -0.0203144 1.45941e-28)
(0.0694843 -0.0122977 -3.21172e-28)
(0.0467104 -0.00822694 0)
(0.0203366 -0.00342892 3.31151e-28)
(0.00281027 -0.000196193 8.51861e-29)
(-0.0296052 0.00569143 -9.06297e-29)
(-0.0478772 0.00889632 3.48545e-29)
(-0.0492446 0.0090064 1.793e-29)
(-0.0476812 0.00877867 7.10513e-29)
(-0.0580089 0.0106295 3.46139e-29)
(-0.0524736 0.0095044 3.466e-29)
(-0.0451819 0.00807023 1.64851e-29)
(-0.0157186 0.00263197 7.90939e-29)
(0.00060719 -0.00032719 -1.7762e-29)
(0.0245864 -0.00466437 -3.27308e-29)
(0.0462741 -0.00861867 -3.46975e-28)
(0.0802998 -0.014754 -1.57165e-34)
(0.10053 -0.0183738 -3.44626e-29)
(0.130977 -0.0238075 1.78143e-34)
(0.151598 -0.0274876 -2.13957e-28)
(0.168002 -0.0303865 -1.70965e-28)
(0.177678 -0.0331664 1.55452e-29)
(0.182431 -0.0341626 -2.8436e-29)
(0.187819 -0.0350978 1.46029e-29)
(0.18839 -0.0351289 -1.62048e-29)
(0.168455 -0.0313133 -1.59383e-29)
(0.15376 -0.028565 -2.30909e-29)
(0.1342 -0.0248938 -2.35761e-28)
(0.109306 -0.0201957 -3.45772e-28)
(0.089128 -0.016418 1.3154e-29)
(0.0500022 -0.00974164 2.31455e-28)
(0.0150562 -0.0026723 1.04183e-28)
(-0.0339884 0.00708113 -2.86174e-28)
(-0.0640444 0.0129894 -1.44253e-29)
(-0.0996463 0.0200692 1.87697e-28)
(-0.127486 0.0256577 3.23594e-34)
(-0.178658 0.0358021 3.94878e-28)
(-0.214636 0.042867 -6.12993e-28)
(-0.228581 0.0455108 0)
(-0.239985 0.0478036 1.18073e-29)
(-0.263234 0.0525164 1.08453e-29)
(-0.295194 0.0587722 7.62008e-29)
(-0.302941 0.060165 -3.52914e-28)
(-0.291479 0.0578388 0)
(-0.287407 0.0571138 -1.91015e-28)
(-0.296895 0.0590106 3.93162e-29)
(-0.297533 0.0590369 -1.19272e-28)
(-0.281032 0.0557037 -5.34883e-34)
(-0.262407 0.05207 -1.90397e-29)
(-0.265592 0.0527822 -5.7695e-29)
(-0.269557 0.0535575 -4.2113e-28)
(-0.267413 0.0530881 6.01476e-28)
(-0.264284 0.0525132 -1.87952e-29)
(-0.25967 0.0516943 -1.95378e-29)
(-0.288318 0.0391392 0)
(-0.303641 0.0528666 0)
(-0.344159 0.0558147 -1.31692e-25)
(-0.369774 0.0537215 -2.56154e-29)
(-0.418648 0.060657 0)
(-0.468759 0.0696601 1.55238e-29)
(-0.497102 0.073809 -6.93001e-28)
(-0.524421 0.0773848 5.91275e-27)
(-0.540969 0.0803251 -7.43566e-30)
(-0.586285 0.0870562 -1.58157e-28)
(-0.621492 0.0922073 -7.63004e-29)
(-0.635533 0.0941354 4.89328e-28)
(-0.627514 0.0928904 0)
(-0.627949 0.0930246 0)
(-0.6386 0.0945804 -1.1541e-27)
(-0.64142 0.0949229 -1.18747e-30)
(-0.620953 0.0917706 1.8e-30)
(-0.577573 0.0853329 -3.25701e-28)
(-0.560461 0.0828311 1.16436e-27)
(-0.533936 0.0788879 -1.87989e-27)
(-0.503138 0.074261 -3.36234e-32)
(-0.449208 0.0662345 -1.00562e-35)
(-0.413693 0.0610105 8.8682e-28)
(-0.370731 0.0546793 -6.69533e-30)
(-0.344472 0.0506319 -1.73152e-30)
(-0.318322 0.0468666 0)
(-0.25522 0.0374849 1.06164e-27)
(-0.219606 0.0322329 0)
(-0.169548 0.0248375 0)
(-0.129262 0.0188359 2.60717e-27)
(-0.0645846 0.00922522 0)
(-0.0205815 0.00275899 0)
(0.0432864 -0.00672186 -2.14617e-27)
(0.0872085 -0.0132332 -2.29932e-30)
(0.133713 -0.0200948 1.98303e-27)
(0.187173 -0.0280218 1.57536e-29)
(0.226029 -0.033803 -7.64698e-36)
(0.286258 -0.0426749 -2.34877e-27)
(0.315961 -0.0470633 7.76071e-27)
(0.332713 -0.0494728 4.08406e-27)
(0.342222 -0.0508809 -2.18531e-27)
(0.352568 -0.0524414 -1.33918e-34)
(0.372308 -0.0534741 1.36664e-29)
(0.376286 -0.0474941 2.39918e-29)
(0.389037 -0.0488689 2.76948e-25)
(0.379957 -0.0476475 5.42609e-25)
(0.377326 -0.047349 0)
(0.381417 -0.0479357 2.71796e-25)
(0.372191 -0.0468175 2.66223e-25)
(0.356248 -0.044815 2.61157e-25)
(0.32598 -0.0375366 -1.51893e-33)
(0.317588 -0.0361641 -3.66993e-25)
(0.314535 -0.0358123 3.55246e-25)
(0.305764 -0.0342437 1.18261e-29)
(0.285148 -0.0297982 1.278e-25)
(0.270532 -0.028098 -9.28465e-30)
(0.260071 -0.0270917 -1.10434e-29)
(0.239072 -0.0250085 1.07404e-25)
(0.250264 -0.0262189 0)
(0.237566 -0.0249296 1.11984e-25)
(0.24337 -0.0255503 -2.60265e-29)
(0.276591 -0.0290684 -2.55344e-25)
(0.279358 -0.0292931 -1.25038e-25)
(0.340112 -0.0341636 2.82568e-26)
(0.379145 -0.0377871 -1.27811e-26)
(0.459578 -0.0455082 -6.0379e-27)
(0.516332 -0.0511125 2.15142e-29)
(0.633227 -0.0627339 4.0051e-27)
(0.732015 -0.072504 5.03456e-27)
(0.869511 -0.0859508 -8.13e-27)
(1.00431 -0.0992717 0)
(1.11953 -0.110634 -5.06887e-27)
(1.28716 -0.126989 -4.31648e-29)
(1.4058 -0.138643 0)
(1.47885 -0.145803 -7.57049e-28)
(1.57406 -0.154807 -2.48501e-29)
(1.50448 -0.147657 -1.16987e-29)
(1.37618 -0.135071 1.86358e-27)
(1.38467 -0.135962 5.52929e-27)
(1.27713 -0.125043 4.43044e-30)
(1.08328 -0.106017 0)
(1.02855 -0.100822 0)
(0.957306 -0.0939144 5.95838e-30)
(0.871825 -0.0854578 1.11942e-27)
(0.836975 -0.0821434 0)
(0.822105 -0.080788 6.75456e-30)
(0.762699 -0.0748048 -4.36864e-28)
(0.746096 -0.0732459 0)
(0.726492 -0.0713902 -3.09903e-27)
(0.684063 -0.0671518 0)
(0.684426 -0.0672215 2.36759e-30)
(0.660102 -0.0648986 2.07606e-27)
(0.657557 -0.0646944 0)
(0.679578 -0.0668563 -9.47377e-30)
(0.706661 -0.0696708 -2.35798e-29)
(0.738157 -0.0727598 -3.01992e-29)
(0.78423 -0.0775189 -2.80515e-34)
(1.00186 -0.0992818 1.11074e-29)
(1.07489 -0.106434 3.03261e-27)
(1.29872 -0.128094 3.4356e-30)
(1.30488 -0.128544 0)
(1.33572 -0.131637 0)
(1.36908 -0.134152 -1.35139e-26)
(1.09483 -0.107107 7.25224e-28)
(1.08985 -0.106795 8.89499e-34)
(0.938503 -0.0918695 -5.54652e-34)
(0.8528 -0.0835905 3.22238e-34)
(0.839121 -0.0823996 5.11549e-27)
(0.875312 -0.0861927 -7.92663e-27)
(0.855358 -0.0838985 0)
(0.819496 -0.0804411 -2.09718e-30)
(0.828946 -0.0815574 -7.52439e-30)
(0.831105 -0.081628 3.44993e-27)
(0.787289 -0.077295 -2.32637e-29)
(0.790755 -0.0776608 0)
(0.746969 -0.0734239 0)
(0.775019 -0.0763414 -3.37269e-28)
(0.79466 -0.078306 1.43784e-29)
(0.838954 -0.0828406 -1.18753e-29)
(0.930308 -0.091849 -5.60918e-30)
(1.03826 -0.102648 -2.88517e-30)
(1.13102 -0.111771 -4.13814e-30)
(1.23444 -0.121413 0)
(1.1654 -0.114585 3.44391e-29)
(1.17629 -0.115785 0)
(1.19359 -0.117075 2.96183e-29)
(1.03214 -0.101022 3.95994e-29)
(0.980174 -0.0961902 3.75292e-29)
(0.962108 -0.0945907 -9.97473e-31)
(0.99811 -0.0981297 -6.46876e-27)
(0.955463 -0.093746 -5.52599e-29)
(0.941009 -0.0924048 -3.23233e-27)
(0.935604 -0.0919554 4.06239e-30)
(0.900189 -0.0884132 -3.05753e-28)
(0.883941 -0.0868278 4.63133e-28)
(0.893044 -0.0878966 0)
(6.06266 0.0185642 0)
(5.28051 0.00481752 -1.64182e-31)
(5.12963 0.00281067 -1.22818e-31)
(4.61873 0.00379962 0)
(4.32431 0.00275836 0)
(4.11851 0.00169274 -5.9813e-31)
(4.07613 0.000895428 -5.12831e-31)
(3.92593 0.000888636 0)
(3.8067 0.00112657 5.83107e-31)
(3.72757 0.00109084 5.79819e-31)
(3.70441 0.000549354 0)
(3.62431 0.000332749 -1.00559e-30)
(3.53249 0.000666686 -1.10662e-30)
(3.51692 0.00085692 0)
(3.47528 0.000448358 0)
(3.45106 -4.26775e-05 0)
(3.37937 0.000387463 -1.04088e-30)
(3.37365 0.000781758 -1.62947e-36)
(3.3424 0.000447231 2.1745e-30)
(3.32251 -0.000144012 4.85688e-36)
(3.27829 0.000241319 -9.9763e-31)
(3.26015 0.000801001 0)
(3.2347 0.000504944 0)
(3.2169 -0.000120921 -1.87943e-30)
(3.1782 0.000146319 -1.88411e-30)
(3.15939 0.000778229 -2.03701e-30)
(3.13453 0.00060149 -1.96314e-30)
(3.11713 -6.03471e-05 0)
(3.07978 0.000100038 0)
(3.05732 0.000802621 0)
(3.03025 0.000748717 0)
(3.01156 4.49094e-05 0)
(2.97005 0.000110594 1.41705e-30)
(2.94391 0.000891398 3.12495e-30)
(2.90847 0.000967518 1.42652e-30)
(2.88589 0.000225663 0)
(2.83999 0.000223928 0)
(2.79988 0.00106856 -1.11166e-30)
(2.75728 0.00129037 -8.61659e-31)
(2.7272 0.00056938 0)
(2.65962 0.000458721 1.83147e-31)
(2.61771 0.00145053 2.85983e-31)
(2.54075 0.00183128 -1.25364e-33)
(2.49666 0.00107664 8.29965e-31)
(2.42332 0.00111357 0)
(2.32072 0.00213785 0)
(2.23536 0.00286488 0)
(2.15935 0.00234759 0)
(1.98407 0.00232071 0)
(1.90348 0.00424315 4.67481e-30)
(1.63535 0.00569643 6.00867e-30)
(1.46139 0.00617363 1.90312e-29)
(1.15985 0.0100557 3.13935e-29)
(0.826253 0.153963 -1.84628e-25)
(1.13089 0.311762 1.68334e-24)
(1.47327 0.392394 1.92556e-30)
(1.4636 0.372174 1.56704e-29)
(1.82459 0.441589 6.57554e-26)
(2.39219 0.584647 1.30266e-29)
(2.38781 0.583662 1.10732e-29)
(2.41961 0.594189 0)
(2.44426 0.604865 -6.30556e-27)
(2.41551 0.794182 0)
(2.58878 0.862064 0)
(2.79298 0.932265 3.08137e-25)
(2.81408 0.937023 -2.82561e-25)
(3.02254 0.992614 -5.68255e-26)
(3.09977 1.00897 3.95676e-26)
(3.37827 1.10057 -5.06349e-27)
(3.42845 1.11839 2.81191e-27)
(3.54582 1.15334 -8.0102e-29)
(3.57009 1.15212 0)
(3.63608 1.17511 0)
(3.6451 1.17986 -3.05561e-30)
(3.70778 1.19826 -2.94371e-30)
(3.72966 1.20507 -5.70264e-27)
(3.75658 1.21485 -1.45388e-30)
(3.80399 1.23036 0)
(3.83638 1.24097 -6.44987e-28)
(3.88112 1.25979 3.62155e-31)
(3.83277 1.24836 0)
(3.96155 1.29092 -1.31335e-26)
(3.99779 1.30103 -5.49304e-27)
(4.0556 1.31915 -5.95551e-29)
(4.05255 1.32032 -6.3714e-27)
(4.13684 1.34807 2.21871e-27)
(4.16668 1.35537 1.18208e-27)
(4.21688 1.37112 -1.10714e-28)
(4.20623 1.36646 -5.09155e-28)
(4.25635 1.38189 1.31363e-29)
(4.2728 1.38458 -1.82402e-27)
(4.31431 1.39953 0)
(4.30933 1.40035 -3.85664e-28)
(4.35724 1.41377 -1.19642e-27)
(4.38484 1.42196 1.44005e-27)
(4.29949 1.39559 0)
(4.43093 1.43806 0)
(4.45787 1.44588 -3.2882e-28)
(4.49445 1.45726 -2.35191e-28)
(4.47263 1.45253 -1.33898e-29)
(4.5402 1.4745 5.6195e-28)
(4.55818 1.47767 1.32417e-29)
(4.59665 1.49124 2.48937e-33)
(4.59219 1.49212 -1.92585e-27)
(4.64466 1.50769 1.34985e-29)
(4.67568 1.51584 2.74834e-29)
(4.59853 1.493 2.2722e-28)
(4.71832 1.53198 1.39945e-29)
(4.74351 1.53784 -1.43477e-28)
(4.78472 1.55161 5.01359e-29)
(4.76495 1.54798 -2.8344e-29)
(4.82098 1.56562 2.59226e-28)
(4.85615 1.57802 -2.85876e-29)
(4.93997 1.60295 2.6545e-30)
(4.91173 1.58929 6.56062e-28)
(4.94945 1.60442 3.58341e-28)
(4.991 1.61813 1.41817e-28)
(4.96361 1.61248 0)
(5.0209 1.63058 0)
(5.06814 1.64838 0)
(4.99339 1.6183 0)
(5.12656 1.64941 2.29376e-27)
(5.16353 1.66606 -1.65699e-29)
(5.2115 1.68194 1.34756e-27)
(5.18874 1.67927 0)
(5.2509 1.69661 1.07009e-27)
(5.28882 1.70715 6.65085e-28)
(5.18645 1.67954 1.74764e-29)
(5.26467 1.71491 6.29317e-28)
(5.29272 1.73298 -2.62159e-27)
(5.32997 1.74672 -1.39199e-27)
(5.3767 1.76468 5.38189e-29)
(5.44775 1.78581 1.45437e-27)
(5.50223 1.80226 -7.49684e-29)
(5.49595 1.80463 1.72395e-27)
(5.60332 1.83614 -4.10933e-29)
(5.678 1.84545 -6.97663e-28)
(5.59776 1.82083 9.20264e-28)
(5.70155 1.85434 0)
(5.76173 1.87386 0)
(5.87279 1.90528 -4.80036e-29)
(5.85188 1.89328 -9.85719e-29)
(5.91235 1.91648 -4.18452e-28)
(5.95394 1.92932 6.26152e-33)
(5.98067 1.93877 1.12585e-28)
(6.07562 1.96458 1.73302e-28)
(6.14496 1.98494 9.57984e-28)
(6.16746 1.99748 0)
(6.26807 2.02593 -9.56445e-28)
(6.34323 2.04779 6.4493e-33)
(6.34145 2.05409 -9.40087e-28)
(6.46526 2.09296 -1.06113e-27)
(6.55151 2.1172 1.01994e-27)
(6.5457 2.12208 -6.87585e-28)
(6.68707 2.1641 -1.67657e-27)
(6.78805 2.19354 0)
(6.77951 2.19855 0)
(6.91821 2.24221 0)
(7.03396 2.28502 4.57284e-29)
(7.04008 2.29386 8.64227e-29)
(7.18748 2.34151 8.85825e-29)
(7.25176 2.36549 -4.10159e-28)
(7.17215 2.34792 -6.18282e-28)
(7.1915 2.35175 -6.61502e-28)
(7.36095 2.76622 -1.27998e-26)
(8.09471 3.27995 1.26661e-28)
(8.80532 2.96408 1.54112e-28)
(9.08383 2.93637 1.63838e-28)
(9.52182 2.86474 3.80179e-27)
(10.184 2.66062 -2.12495e-28)
(11.3101 2.25189 2.01734e-26)
(11.7359 -0.0973922 1.04434e-27)
(10.8497 -1.44702 0)
(9.48474 -1.67526 1.95718e-28)
(8.56107 -0.968708 1.59313e-28)
(8.04493 -1.13202 0)
(7.38869 -0.85924 3.39387e-26)
(7.10829 -0.574724 -1.05166e-28)
(6.6705 -0.709578 -8.39743e-29)
(6.13126 -0.279193 0)
(5.75721 -0.0502328 3.5644e-26)
(5.53898 0.59798 1.42325e-30)
(5.48481 0.844477 -4.14803e-26)
(5.56862 1.01809 1.29793e-33)
(5.44538 1.07579 -1.66702e-26)
(5.60487 1.16227 6.15567e-32)
(5.62914 1.21789 1.40451e-26)
(5.58623 1.23321 0)
(5.68543 1.26548 4.35133e-32)
(5.54496 1.24949 -1.20782e-33)
(5.70043 1.27639 -1.28011e-26)
(5.76941 1.29031 1.29342e-26)
(5.71431 1.28295 -6.83231e-32)
(5.82703 1.3142 1.2691e-26)
(5.65824 1.29454 -5.44978e-32)
(5.81686 1.31757 -1.2625e-26)
(5.88417 1.32502 -6.88122e-32)
(5.73123 1.31185 -2.62372e-32)
(5.83686 1.35055 -1.29738e-26)
(5.7015 1.48498 -1.39419e-26)
(6.04534 1.59378 1.17666e-33)
(6.66574 1.86946 1.72464e-26)
(6.87483 1.63893 6.47347e-31)
(7.01312 1.6174 1.72092e-26)
(6.86082 1.50317 0)
(6.99164 1.5263 -1.60532e-26)
(6.91823 1.43875 6.60167e-32)
(7.05009 1.45275 1.52546e-26)
(6.96107 1.31892 0)
(7.08475 1.32057 -2.98759e-26)
(7.12982 1.02471 0)
(7.2408 0.972326 -2.91267e-26)
(7.30109 0.225373 1.08331e-30)
(7.26317 0.119043 2.64618e-30)
(6.70479 -0.424322 -6.39193e-27)
(6.61449 -0.429586 -5.98829e-27)
(5.64229 -0.450175 1.12955e-30)
(5.61778 -0.460925 5.88188e-31)
(4.9328 -0.434084 1.58475e-27)
(4.92675 -0.432962 1.75111e-27)
(4.49041 -0.424287 0)
(4.07727 -0.394134 0)
(4.02267 -0.384358 -3.5626e-31)
(3.59704 -0.363079 8.56909e-28)
(3.4616 -0.341716 0)
(3.08385 -0.311225 3.00607e-28)
(2.98103 -0.301909 2.00424e-28)
(2.55084 -0.252807 1.30975e-28)
(2.47957 -0.249394 -1.8159e-28)
(2.07843 -0.204182 1.65925e-31)
(2.03811 -0.203495 3.12358e-29)
(1.67123 -0.162513 2.42707e-31)
(1.65483 -0.159747 -9.83529e-31)
(1.38104 -0.107694 3.94563e-28)
(0.845994 -0.0211931 -2.41855e-28)
(0.66655 -0.011207 2.04465e-30)
(0.448218 0.0211836 2.20063e-27)
(0.436945 0.00675339 1.929e-27)
(0.47978 -0.0198755 0)
(0.423729 -0.0101324 0)
(0.457257 -0.0361255 1.82246e-28)
(0.235675 0.0266978 0)
(0.0942269 0.0230849 1.51772e-28)
(0.131543 0.0301795 2.51833e-27)
(0.143573 0.0231967 1.08768e-30)
(0.225376 0.00936088 -1.34855e-27)
(0.0961642 0.0351487 -4.27888e-35)
(-0.037065 0.0266307 -2.03962e-30)
(-0.219143 0.0504304 -8.84824e-29)
(-0.29125 0.0547818 -3.43058e-29)
(-0.348115 0.0599822 0)
(-0.360613 0.0611149 4.29417e-32)
(-0.371314 0.0596915 0)
(-0.374068 0.0599299 -6.22171e-28)
(-0.337519 0.0478155 -1.79295e-30)
(-0.297231 0.048369 -6.33207e-28)
(-0.303918 0.0415922 1.95446e-30)
(-0.0419132 0.00538196 7.8796e-28)
(-0.0372942 0.0127152 1.04981e-27)
(0.0798055 -0.0300961 0)
(0.0357618 -0.0505899 -5.03141e-33)
(0.038245 -0.050324 4.54859e-28)
(0.0416797 0.00232518 -4.79689e-33)
(0.0112194 0.00675959 8.84956e-29)
(-0.13084 0.0361156 -3.30313e-29)
(-0.274706 0.0432611 0)
(-0.289359 0.0433956 0)
(-0.278409 0.0340619 -1.18784e-31)
(-0.25972 0.0305485 2.46054e-31)
(-0.178301 0.0182832 1.02946e-28)
(-0.109603 0.0105395 8.58387e-32)
(-0.0990483 0.0100441 -2.54987e-36)
(-0.0485421 0.0150448 -2.51758e-32)
(-0.200322 0.0367168 2.77571e-32)