/*--------------------------------*- C++ -*----------------------------------*\
| =========                 |                                                 |
| \\      /  F ield         | OpenFOAM: The Open Source CFD Toolbox           |
|  \\    /   O peration     | Version:  v2012                                 |
|   \\  /    A nd           | Website:  www.openfoam.com                      |
|    \\/     M anipulation  |                                                 |
\*---------------------------------------------------------------------------*/
FoamFile
{
    version     2.0;
    format      ascii;
    class       volScalarField;
    location    "1e-06";
    object      yPlus;
}
// * * * * * * * * * * * * * * * * * * * * * * * * * * * * * * * * * * * * * //

dimensions      [0 0 0 0 0 0 0];


internalField   uniform 0;

boundaryField
{
    inlet
    {
        type            calculated;
        value           uniform 0;
    }
    outlet
    {
        type            calculated;
        value           uniform 0;
    }
    front
    {
        type            empty;
    }
    back
    {
        type            empty;
    }
    hub
    {
        type            calculated;
        value           nonuniform List<scalar> 
680
(
7.60857
7.0344
6.88189
6.52827
6.31716
6.10982
6.04332
5.97627
5.9172
5.8009
5.73791
5.72483
5.69595
5.63202
5.54602
5.57212
5.56774
5.51533
5.43743
5.45515
5.47268
5.4218
5.34783
5.35627
5.37735
5.33716
5.26286
5.2616
5.28303
5.2494
5.17184
5.16031
5.1776
5.14855
5.06222
5.03902
5.05143
5.01621
4.92003
4.88235
4.87466
4.84039
4.71001
4.65069
4.63172
4.54068
4.3864
4.28271
4.15602
4.06878
3.69545
3.43744
3.01297
2.48987
2.94225
3.43513
3.62868
4.08839
4.50543
4.49175
4.58019
4.55476
4.45764
4.65739
4.8908
4.91224
5.0324
5.10185
5.34018
5.33745
5.34267
5.37158
5.45259
5.42221
5.39301
5.43691
5.42554
5.47243
5.42919
5.50539
5.52707
5.53512
5.51251
5.59058
5.61394
5.59145
5.58331
5.64882
5.63585
5.59475
5.60786
5.66637
5.63532
5.59409
5.64532
5.63664
5.64806
5.62149
5.68327
5.68727
5.65501
5.65815
5.71555
5.6934
5.6541
5.70625
5.71136
5.70401
5.68691
5.74994
5.74047
5.70127
5.74093
5.57737
5.75566
5.7396
5.80352
5.7984
5.75936
5.80477
5.64457
5.8187
5.80683
5.87366
5.86182
5.82433
5.87525
5.86861
5.83517
5.84605
5.89571
5.91523
5.9047
5.974
5.98481
5.97252
6.03492
6.03278
6.00874
6.04188
5.91091
6.07473
6.08514
6.1361
6.14312
6.14655
6.22089
6.23265
6.22071
6.29923
6.31358
6.29944
6.38342
6.40586
6.4005
6.48155
6.507
6.50096
6.58353
6.61772
6.61796
6.68071
6.6776
6.62127
6.7532
7.15612
7.4356
7.51833
7.67303
7.90601
8.27104
8.62952
8.23179
7.63542
7.4808
7.27778
7.10302
6.92727
6.74666
6.45763
6.02822
5.57826
5.76819
5.82094
5.82389
5.81765
5.89136
5.87696
5.89739
5.86853
5.89976
5.97242
5.96063
5.97451
5.79268
5.96365
6.03724
5.97172
5.99957
6.03055
6.13648
6.28503
6.56035
6.63616
6.57931
6.61448
6.59849
6.6375
6.62332
6.6566
6.70558
6.71449
6.71841
6.66764
6.39344
6.3103
5.80182
5.72564
5.3464
5.29044
4.7946
4.76522
4.49898
4.45024
4.42554
4.10172
4.05619
4.04948
3.97677
3.62603
3.54359
2.94017
2.86453
2.49017
1.92491
1.58751
0.744827
0.762399
1.16651
1.15078
1.10944
0.588633
0.610822
0.497682
0.429441
0.634636
0.31244
0.866249
1.1264
1.30107
1.39282
1.42482
1.43439
1.42717
1.3332
1.17899
1.21687
0.255231
0.563497
1.38348
1.08739
1.04497
1.00707
0.872293
0.4193
1.1305
1.19764
1.19877
1.08039
0.928047
0.669626
0.656912
0.515744
1.07058
1.17191
1.30236
1.17552
0.821484
0.925045
0.982782
1.3083
1.31857
1.35239
1.3147
1.22543
1.23108
1.17338
1.14598
0.811703
1.2586
1.27679
1.34439
1.50707
1.60571
1.79701
1.77658
1.88894
1.88967
1.73209
1.73849
1.88456
1.90842
2.34129
2.62749
2.61537
2.75263
2.81059
2.81067
2.9733
3.13308
3.13897
3.54863
4.00093
4.21719
4.46306
4.5876
4.65442
4.75927
4.79286
4.77119
4.80059
4.795
4.76158
4.78698
4.77778
4.72684
4.72522
4.70873
4.65686
4.64514
4.62557
4.58667
4.56457
4.4522
4.51637
4.48154
4.47546
4.44523
4.39983
4.39447
4.37565
4.32102
4.30936
4.27237
4.24189
4.21314
4.19476
4.15695
4.1114
4.09583
4.07214
4.01165
3.9916
3.87827
3.9118
3.86971
3.84505
3.81359
3.74783
3.72591
3.61002
3.63189
3.58915
3.55628
3.52136
3.45445
3.42867
3.31829
3.33246
3.2863
3.25081
3.21747
3.15557
3.12666
3.0853
3.0511
2.99533
2.97864
2.94047
2.89887
2.86856
2.84228
2.81928
2.77818
2.75876
2.73436
2.70661
2.66626
2.65588
2.58329
2.62343
2.59913
2.58619
2.57647
2.54723
2.52876
2.52173
2.50778
2.47289
2.45465
2.43905
2.41525
2.36788
2.34373
2.3089
2.27395
2.21014
2.17531
2.11248
2.07154
1.99039
1.94
1.84773
1.77662
1.71279
1.61262
1.55031
1.44694
1.3791
1.24025
1.17325
1.02887
0.941402
0.71344
0.612663
0.325559
0.111759
0.575317
0.678655
0.814233
0.849757
1.00996
0.86701
1.11916
1.11163
1.17903
1.23174
1.25977
1.23045
1.28434
1.308
1.27977
1.20142
1.19021
1.1474
1.11383
0.998452
0.956838
0.861474
0.813183
0.653455
0.580048
0.438176
0.33147
0.173946
0.221467
0.360092
0.397343
0.273155
0.10393
0.323777
0.500141
0.634655
0.828616
0.950227
1.11401
1.18255
1.33481
1.42904
1.58189
1.64737
1.73122
1.78113
1.88909
1.95682
1.97798
1.96913
2.00237
2.0296
2.0208
1.94387
1.91762
1.87958
1.83659
1.7167
1.64136
1.53037
1.44787
1.33904
1.17929
1.05587
0.808785
0.659531
0.394215
0.219774
0.627359
0.762361
0.77515
0.766741
0.837503
0.800543
0.757346
0.502983
0.233837
0.459051
0.658946
0.903688
1.03165
1.18762
1.28036
1.3546
1.39713
1.42027
1.44555
1.45196
1.37402
1.30874
1.22178
1.10188
0.998236
0.734064
0.312533
0.696281
0.907752
1.12318
1.27681
1.50422
1.64418
1.6998
1.74515
1.83283
1.94366
1.97304
1.94169
1.93356
1.97089
1.97931
1.93121
1.87378
1.89107
1.91292
1.91446
1.91753
1.93493
2.00819
2.03146
2.18825
2.23532
2.33892
2.49469
2.59001
2.66706
2.71684
2.84115
2.93334
2.97672
2.96668
2.97664
3.01202
3.02073
2.97631
2.87987
2.84337
2.78495
2.71762
2.57746
2.47959
2.36718
2.2757
2.18154
1.9713
1.82947
1.61773
1.44003
1.04423
0.613412
0.778885
1.12535
1.4065
1.68181
1.87005
2.11547
2.22492
2.28973
2.33036
2.37781
2.44979
2.46827
2.52178
2.49904
2.49878
2.52243
2.5011
2.45539
2.35761
2.33575
2.33347
2.31306
2.24234
2.18974
2.15626
2.07758
2.12637
2.08042
2.11149
2.24771
2.25526
2.48593
2.63236
2.89423
3.05568
3.38953
3.66281
3.98396
4.28416
4.54962
4.87735
5.10024
5.25504
5.42647
5.3065
5.08304
5.10643
4.91822
4.53518
4.41497
4.27619
4.09312
3.99859
3.97791
3.84655
3.79257
3.75523
3.65791
3.65113
3.59324
3.59904
3.65529
3.73358
3.83458
3.93964
4.45381
4.64553
5.09215
5.09673
5.18369
5.25277
4.69319
4.68746
4.36938
4.17684
4.12704
4.2328
4.20298
4.09672
4.1271
4.15424
4.04643
4.05147
3.94295
4.02594
4.08727
4.2057
4.41529
4.67014
4.90121
5.11397
4.96517
5.0067
5.05074
4.69707
4.57916
4.54408
4.64594
4.55378
4.5076
4.50497
4.43718
4.39241
4.41936
)
;
    }
    tip
    {
        type            calculated;
        value           nonuniform List<scalar> 
680
(
90.9809
90.0946
89.6484
87.6572
85.6686
83.9487
83.5401
82.0284
80.4606
79.5574
79.2404
78.2718
76.7138
76.6917
76.0182
75.8452
74.6126
74.7612
74.3028
74.183
73.4921
73.4428
73.1563
73.0733
72.6382
72.5723
72.4223
72.3783
72.108
72.0721
72.044
72.0418
71.8999
71.9015
71.9952
72.0334
71.9991
72.0449
72.2494
72.3268
72.3883
72.476
72.7913
72.9077
73.0557
73.1867
73.6011
73.7536
73.9783
74.1544
74.6549
74.8431
75.123
75.2401
75.4771
75.3147
75.267
75.1883
75.365
75.2475
75.1871
75.1708
75.3069
75.1111
74.9201
74.9013
74.9668
74.801
74.5377
74.6362
74.6699
74.5391
74.1363
74.4191
74.412
74.3143
73.7529
74.2981
74.1108
74.1503
73.6195
74.1103
73.9306
73.9019
73.6486
73.9101
73.7631
73.6059
73.5918
73.68
73.5787
73.1654
73.4584
73.4359
73.3332
72.8619
73.3079
73.1349
73.0301
72.8664
73.0233
72.9038
72.5088
72.7308
72.7062
72.5744
72.1656
72.5261
72.3635
72.1283
72.1344
72.1902
72.0696
71.5831
71.9731
71.8179
71.6033
71.5534
71.6378
71.5062
71.0443
71.4003
71.2581
70.9724
71.0198
71.067
70.8833
70.5538
70.8131
70.6878
70.2411
70.5244
70.4256
70.1586
70.1299
70.2192
70.0012
69.7207
69.9439
69.8014
69.3793
69.665
69.5578
69.1409
69.3717
69.3165
68.9605
69.0699
69.0843
68.7703
68.7733
68.8519
68.5599
68.4735
68.6294
68.3099
68.2122
68.3861
68.0629
67.9703
68.1502
67.798
67.7652
67.892
67.5265
67.5352
67.6124
67.219
67.3494
67.3728
66.9892
67.2723
67.2764
67.0551
67.4491
67.327
67.2581
67.6352
67.3366
67.544
67.7133
67.4306
67.818
67.7372
67.6565
68.0213
67.708
67.9747
68.0409
67.8268
68.2526
67.9688
68.1757
68.2958
68.0669
68.5016
68.1996
68.4591
68.5087
68.3729
68.7557
68.4255
68.8111
68.6425
68.8127
68.7967
68.911
68.919
69.0122
69.0522
69.1048
69.1961
69.1885
69.349
69.2655
69.5111
69.3365
69.6785
69.4071
69.8464
69.4776
70.0116
69.5867
70.0955
69.7639
70.1465
69.9865
70.1688
70.2275
70.1691
70.4607
70.1771
70.6627
70.2532
70.7657
70.464
70.7664
70.7521
70.7158
71.0248
70.6801
71.2286
70.8161
71.2361
71.1306
71.1523
71.4397
71.0865
71.6338
71.2657
71.5954
71.6218
71.4641
71.9103
71.4923
71.9551
71.8295
71.8106
72.1673
71.7583
72.2549
72.0876
72.0956
72.4434
72.0308
72.5089
72.3952
72.3128
72.7319
72.3255
72.708
72.7411
72.4681
72.9887
72.6878
72.8303
73.0929
72.6802
73.1387
73.1028
72.8631
73.3634
73.0882
73.1743
73.4768
73.0788
73.4331
73.5297
73.148
73.6385
73.5715
73.3286
73.8041
73.6077
73.5444
73.9394
73.6356
73.7546
74.0173
73.6742
73.9103
74.0927
73.7089
74.0379
74.1655
73.757
74.143
74.2365
73.8177
74.2294
74.3082
73.8875
74.3008
74.3786
73.9668
74.3574
74.445
74.0633
74.3955
74.5054
74.1815
74.4085
74.5566
74.3091
74.3786
74.587
74.4181
74.2993
74.5844
74.51
74.1656
74.573
74.561
74.0757
74.5597
74.5761
74.2044
74.4921
74.5705
74.3888
74.3197
74.5219
74.4909
74.0381
74.4857
74.4803
74.0501
74.3903
74.4219
74.2702
74.1271
74.3322
74.343
73.7793
74.2742
74.243
74.0112
74.0371
74.1152
74.1313
73.5674
74.0518
74.0048
73.7618
73.7904
73.8372
73.8734
73.2608
73.756
73.6899
73.5284
73.4017
73.5218
73.5475
73.0089
73.3861
73.2656
73.2844
72.7854
73.171
73.1048
72.8821
72.8428
72.8657
72.9056
72.3623
72.7098
72.5553
72.6207
71.9693
72.4501
72.3539
72.2561
71.9552
72.162
72.1263
71.8971
71.8541
71.8487
71.8745
71.4813
71.6474
71.5306
71.6084
71.0278
71.4069
71.2245
71.3316
70.6168
71.159
70.9491
71.0564
70.343
70.8721
70.778
70.7869
70.1758
70.6905
70.6108
70.6188
70.0443
70.5431
70.4742
70.4909
69.9248
70.4339
70.3703
70.4062
69.8138
70.3617
70.2986
70.3549
69.7235
70.3573
70.2015
70.3602
69.7008
70.3194
70.1768
70.315
69.8144
70.2671
70.1774
70.2956
69.9725
70.2016
70.1558
70.2432
70.0294
70.0709
70.0753
70.1361
69.9875
69.8353
69.9408
69.9631
69.8894
69.4006
69.8021
69.7933
69.7757
69.1565
69.7685
69.6849
69.83
69.5611
69.8298
69.8739
70.0073
69.9716
69.9864
70.2012
70.296
70.3126
69.8547
70.2353
70.3072
70.9185
70.7499
71.4218
71.6507
71.5527
71.9528
72.4285
72.9602
73.086
73.6057
73.0559
73.7103
73.0813
73.375
73.671
74.609
75.1441
75.3513
75.483
75.5602
75.6741
75.7477
75.7398
74.9596
75.5278
74.9143
75.1668
75.6014
76.2361
76.5955
76.8526
77.3297
77.0863
78.3385
78.9563
79.387
79.9934
80.7084
81.7109
82.2963
83.2784
83.6008
84.9602
85.7994
86.4159
87.0962
87.6919
88.0049
88.3382
88.4333
87.8001
88.0435
87.344
87.409
86.7566
86.4055
85.7327
85.4143
84.5779
83.2275
83.5948
83.1851
83.0746
82.8334
83.1009
83.5512
83.8569
84.2645
84.1065
85.3734
85.761
86.1233
86.3179
86.2235
85.6194
85.4561
84.2859
82.2623
80.605
77.8594
76.6592
73.8944
71.6106
69.9166
67.4346
65.851
63.1979
61.5968
59.9551
59.7017
58.2771
56.4023
56.1066
55.3516
55.4063
54.7105
54.0412
53.5145
53.6078
53.0103
52.1745
51.7501
51.2924
50.8798
50.3671
50.4353
51.6489
53.3112
54.1872
56.0612
57.659
59.2807
60.7945
61.4818
62.8782
64.0503
65.1718
65.8257
66.3374
66.6548
66.2351
65.4469
62.7357
61.9767
57.9481
52.7369
47.853
45.726
42.9431
41.8067
39.9891
38.3853
37.8397
38.9787
39.5381
39.3588
38.8443
33.8381
31.2816
20.423
1.72126
11.2518
27.4668
38.0677
44.3247
46.6405
50.5772
43.8369
40.382
30.521
12.817
3.25655
21.0495
39.0222
46.1114
63.0357
70.2274
73.6421
77.0419
73.2413
73.1404
65.1506
63.0971
58.0138
53.9503
51.7035
47.5833
39.0079
36.7196
24.883
23.4403
22.1996
23.337
33.2643
36.591
47.2094
58.7991
62.881
74.0441
79.1063
80.2085
81.1578
79.8809
71.8614
69.9715
62.1026
60.7111
58.5654
57.2122
54.495
50.9685
49.9923
46.4858
46.5556
47.4479
50.1857
54.6395
62.8108
64.9029
71.1283
76.4382
77.0733
77.614
)
;
    }
}


// ************************************************************************* //
