/*--------------------------------*- C++ -*----------------------------------*\
| =========                 |                                                 |
| \\      /  F ield         | OpenFOAM: The Open Source CFD Toolbox           |
|  \\    /   O peration     | Version:  v2012                                 |
|   \\  /    A nd           | Website:  www.openfoam.com                      |
|    \\/     M anipulation  |                                                 |
\*---------------------------------------------------------------------------*/
FoamFile
{
    version     2.0;
    format      ascii;
    class       volScalarField;
    location    "1e-06";
    object      alpha.waterPrime2Mean;
}
// * * * * * * * * * * * * * * * * * * * * * * * * * * * * * * * * * * * * * //

dimensions      [0 0 0 0 0 0 0];


internalField   nonuniform List<scalar> 
10302
(
0.00127809
0.00119902
0.00121511
0.00096141
0.000969734
0.00053279
0.00050523
7.57193e-05
7.04613e-05
1.23719e-06
3.76614e-06
8.23479e-08
7.45108e-07
4.21698e-08
2.42151e-07
5.52191e-10
3.93822e-08
3.76741e-08
1.59223e-08
2.24899e-08
3.18692e-09
1.23537e-08
1.65233e-09
7.08654e-09
1.03133e-09
3.63915e-09
5.17597e-10
2.21408e-09
8.95079e-11
5.82334e-08
1.96042e-08
3.32758e-07
2.8106e-07
1.71553e-09
1.01056e-08
3.84608e-10
1.0229e-08
1.06362e-09
1.46682e-07
1.58393e-07
2.71152e-09
5.60039e-09
9.53102e-12
2.81911e-11
1.87876e-11
4.68553e-11
3.48039e-11
4.78885e-11
3.95847e-11
1.61091e-11
5.8648e-11
4.00672e-11
1.25763e-10
3.07557e-10
2.1242e-09
1.9206e-07
3.34429e-07
2.16659e-08
5.23842e-11
3.88198e-09
8.28226e-14
3.92327e-09
0
2.44249e-15
0
0.000385503
0.000354917
0.000362914
0.000316469
0.00035154
0.000228137
0.000263994
4.4644e-05
5.90196e-05
5.57992e-07
4.92225e-06
3.58679e-08
1.13888e-06
3.0405e-08
3.98136e-07
6.81179e-10
4.95762e-08
7.46032e-08
1.18143e-08
3.2076e-08
5.37555e-09
1.90365e-08
2.55211e-09
1.15563e-08
1.49775e-09
6.93015e-09
6.74655e-10
3.64447e-09
8.53616e-11
5.16901e-09
2.30097e-09
5.27219e-08
1.7438e-08
4.29119e-08
1.10729e-09
2.25077e-11
3.32333e-09
3.20937e-10
1.01103e-08
8.26022e-09
1.51148e-08
2.48188e-09
9.71228e-12
2.99075e-11
1.9009e-11
4.88524e-11
3.64172e-11
4.8069e-11
3.91779e-11
1.60783e-11
5.17239e-11
2.75235e-11
7.18911e-11
9.43342e-11
3.78448e-10
7.89953e-09
2.11001e-08
8.38208e-09
1.50374e-10
2.76056e-09
3.49942e-13
3.28883e-09
-1.11022e-16
2.22045e-16
2.09832e-14
5.72522e-05
5.60141e-05
5.68075e-05
7.1078e-05
8.06684e-05
7.90495e-05
9.558e-05
4.21306e-05
4.36043e-05
5.0309e-07
6.26774e-06
1.42689e-08
1.55995e-06
1.45317e-08
5.44195e-07
5.73571e-09
4.8682e-08
7.9598e-08
1.93725e-08
4.34972e-08
5.8701e-09
3.05602e-08
1.3197e-09
1.78254e-08
8.19909e-10
1.02083e-08
5.24516e-10
5.73999e-09
1.01802e-10
1.91221e-09
2.74864e-09
1.60821e-07
1.23708e-07
2.87211e-10
8.30001e-10
1.72576e-11
2.47447e-10
2.07361e-10
8.06309e-08
8.90119e-08
3.44449e-11
8.19382e-11
1.08944e-11
2.93531e-11
2.10999e-11
4.52194e-11
3.39569e-11
4.45545e-11
3.48454e-11
1.81604e-11
3.64627e-11
1.67123e-11
2.9085e-11
7.49685e-11
2.69104e-09
8.2935e-09
2.09526e-08
2.06571e-09
8.46133e-10
4.23672e-10
3.89244e-13
2.08479e-09
4.77396e-15
1.73161e-12
1.05094e-12
2.82587e-06
3.07577e-06
2.98462e-06
3.44036e-06
6.61517e-06
1.26865e-05
2.80418e-05
2.26464e-05
1.29999e-05
3.23014e-07
3.56473e-06
1.83406e-09
9.40335e-07
1.53356e-08
3.27124e-07
6.00145e-09
4.49018e-08
1.01382e-07
3.97941e-09
4.36943e-08
1.24578e-09
2.21552e-08
7.67201e-10
1.20652e-08
6.51246e-10
6.53362e-09
9.76012e-10
2.94702e-09
2.71101e-12
7.8756e-10
2.18048e-09
2.7426e-11
6.00295e-10
2.43387e-10
5.01242e-10
4.90088e-11
5.75822e-11
2.15081e-10
5.14974e-11
6.62246e-11
1.95179e-11
5.30582e-11
4.56165e-12
2.90348e-11
2.08274e-11
4.66965e-11
3.57254e-11
4.5341e-11
3.78732e-11
1.39745e-11
4.61809e-11
1.66332e-11
3.33489e-11
1.47063e-11
3.08415e-09
1.89155e-09
1.18156e-08
3.33582e-09
2.11548e-10
4.13628e-10
4.49751e-13
1.24869e-09
4.77396e-15
1.80966e-14
1.29641e-12
8.04224e-07
9.70917e-07
9.50842e-07
1.19957e-06
1.03431e-06
1.18167e-05
3.16787e-05
2.9702e-06
4.48004e-05
4.21044e-06
1.40783e-05
5.43081e-07
3.68008e-06
2.01794e-07
1.25628e-06
2.43404e-08
2.02627e-07
2.25233e-07
5.5158e-08
1.16665e-07
2.96228e-08
7.51092e-08
1.66476e-08
4.84086e-08
9.38854e-09
3.03625e-08
4.54316e-09
1.79829e-08
1.51358e-09
7.26221e-09
9.54194e-09
4.83702e-09
6.51583e-09
1.80761e-09
3.4706e-09
5.15894e-10
1.3867e-09
1.32986e-09
1.29106e-09
1.07013e-09
2.62121e-10
5.04102e-10
2.16151e-11
3.56247e-11
2.50263e-11
2.25609e-11
1.68886e-11
3.00347e-11
2.26297e-11
1.6136e-11
1.1182e-11
5.74938e-12
2.60231e-11
1.9054e-11
1.76852e-09
1.51975e-10
2.10105e-08
5.72636e-09
2.89566e-11
1.80094e-09
4.77507e-13
1.67413e-09
5.76206e-14
2.36922e-13
1.99408e-11
3.58845e-07
3.75474e-07
2.37899e-07
1.227e-07
1.32957e-07
2.44453e-07
2.41103e-06
1.54928e-05
2.7315e-05
1.15279e-06
1.16314e-05
2.05334e-08
3.40611e-06
1.0314e-08
1.20295e-06
3.27703e-08
1.29361e-07
1.89678e-07
3.7645e-08
1.02661e-07
1.59316e-08
7.89168e-08
3.53235e-09
4.77549e-08
2.1461e-09
2.92448e-08
1.38091e-09
1.68403e-08
3.84987e-10
4.89757e-09
8.46945e-09
1.89231e-09
4.8797e-09
6.59502e-10
3.09707e-09
2.61834e-11
8.38749e-10
1.24428e-09
5.76832e-10
7.34532e-10
1.05326e-10
4.62308e-10
2.63024e-13
5.9182e-11
4.76503e-11
3.07071e-11
2.47584e-11
2.67328e-11
2.04089e-11
2.11229e-11
2.05665e-11
8.14958e-12
1.29317e-11
5.27513e-13
4.66168e-09
1.47932e-10
2.25174e-08
1.38764e-09
1.23258e-09
3.19418e-11
3.15747e-13
7.64803e-10
6.89893e-13
1.86251e-12
1.80694e-10
1.53428e-07
9.12292e-08
3.35663e-08
2.91265e-08
2.8204e-08
1.32652e-06
8.66906e-07
9.35193e-07
9.11393e-06
7.58889e-08
4.49786e-06
1.79145e-08
1.46146e-06
3.49066e-10
5.40936e-07
2.78119e-08
6.57983e-08
1.89314e-07
3.38396e-09
9.18451e-08
9.4218e-10
4.81771e-08
6.3872e-10
2.59803e-08
5.95273e-10
1.41281e-08
1.30237e-09
6.80433e-09
1.04666e-10
1.09006e-09
5.92953e-09
3.90932e-11
2.26808e-09
2.182e-10
1.43995e-09
1.24981e-10
1.11092e-10
9.9226e-10
3.21397e-11
3.08118e-10
1.99987e-11
1.34044e-10
3.83547e-11
2.84334e-11
3.64594e-11
3.44791e-11
3.27694e-11
2.9951e-11
2.7864e-11
2.09395e-11
2.82384e-11
1.0647e-11
1.20679e-11
1.18014e-13
1.92581e-09
4.69112e-09
7.25322e-09
1.88227e-09
7.97513e-10
6.83047e-11
2.12053e-13
5.88969e-10
7.99028e-13
2.1213e-12
2.16742e-10
5.18654e-08
2.96807e-08
2.53015e-08
3.42777e-08
4.69444e-08
7.9483e-08
1.37737e-07
1.43591e-05
3.55268e-05
5.21844e-06
1.78773e-05
5.70018e-07
6.69034e-06
1.75539e-07
2.51261e-06
3.11702e-09
3.31027e-07
4.81491e-07
6.47209e-08
2.45578e-07
4.05187e-08
1.67896e-07
1.95553e-08
1.06976e-07
1.30104e-08
6.99955e-08
7.34447e-09
4.38524e-08
1.27642e-09
1.45355e-08
2.5327e-08
5.94002e-09
1.56279e-08
3.47838e-09
1.00917e-08
6.31335e-10
3.37889e-09
4.24803e-09
1.85969e-09
2.80755e-09
6.33541e-10
1.98485e-09
2.45399e-10
2.62483e-10
2.70088e-10
3.50391e-11
3.69016e-11
2.05977e-11
1.53407e-11
1.66093e-11
1.10738e-11
8.1016e-12
8.41997e-12
3.23659e-13
1.03421e-08
1.0768e-09
2.01753e-08
1.00881e-09
3.37963e-09
1.83113e-10
9.7744e-13
5.36475e-10
5.17753e-12
2.49056e-11
1.17647e-09
1.98818e-08
2.04434e-08
1.8497e-08
1.85669e-08
1.61552e-08
2.41234e-07
3.14653e-07
1.26495e-06
1.05409e-05
3.43754e-07
5.67564e-06
1.3641e-09
2.24868e-06
3.96763e-09
8.031e-07
8.95487e-10
6.29365e-08
2.92324e-07
7.21354e-10
1.53573e-07
3.47913e-10
7.85473e-08
5.87939e-10
4.0329e-08
1.13741e-09
2.09067e-08
4.32039e-09
9.11425e-09
9.18823e-11
9.57262e-10
1.12147e-08
2.32338e-11
4.55909e-09
2.65294e-10
2.39692e-09
3.8329e-10
1.48606e-10
2.37732e-09
6.15219e-13
7.22619e-10
3.73783e-11
2.63145e-10
5.00763e-12
9.78131e-13
1.30135e-10
1.36679e-11
3.80255e-11
2.72107e-11
2.7549e-11
1.93314e-11
2.44537e-11
1.46134e-11
1.09792e-11
1.54206e-13
4.74591e-09
7.19037e-09
8.35139e-09
4.22421e-09
2.81929e-10
5.74861e-10
4.10352e-10
1.06944e-09
6.51068e-12
2.26411e-11
1.34838e-09
2.63317e-08
2.95695e-08
2.67832e-08
2.9388e-08
1.08455e-08
4.02741e-10
1.81631e-09
5.45021e-06
2.22859e-06
1.08417e-05
3.27645e-05
5.37496e-06
1.65741e-05
1.44903e-06
6.26083e-06
8.90504e-08
1.04977e-06
8.73601e-07
3.24861e-07
4.9424e-07
1.66426e-07
3.21933e-07
9.48291e-08
2.16567e-07
5.4373e-08
1.50048e-07
2.53614e-08
1.00249e-07
8.06304e-09
4.83443e-08
5.07643e-08
2.59323e-08
3.99108e-08
1.51833e-08
2.96844e-08
3.34951e-09
1.42988e-08
1.16881e-08
7.73708e-09
9.2021e-09
3.51975e-09
7.21821e-09
7.67322e-10
2.53513e-09
2.03419e-09
5.20546e-10
6.14178e-10
2.12907e-11
3.95676e-11
1.7411e-11
1.28831e-11
1.25533e-11
6.47864e-12
1.64475e-13
9.29781e-09
6.76219e-09
2.26435e-08
3.98159e-09
4.46305e-09
2.70785e-09
3.26278e-09
3.1562e-09
2.7195e-11
1.32325e-10
1.40825e-09
1.32358e-08
1.50124e-08
1.29524e-08
3.49094e-09
1.63407e-10
1.18331e-08
2.18872e-10
1.28429e-06
1.74297e-07
4.76791e-06
1.89852e-05
1.77485e-06
1.23718e-05
2.46772e-07
5.1139e-06
4.73575e-08
5.4826e-07
6.21495e-07
1.61001e-07
3.53554e-07
7.51991e-08
2.53647e-07
2.65414e-08
1.73483e-07
1.07859e-08
1.11233e-07
6.88397e-09
7.0724e-08
5.17833e-10
2.28844e-08
2.99756e-08
1.19809e-08
2.76677e-08
4.45799e-09
2.0311e-08
9.72696e-11
6.85878e-09
6.99419e-09
3.77202e-09
6.39992e-09
9.94624e-10
4.54812e-09
2.73826e-12
1.18223e-09
1.61778e-09
4.29776e-10
1.00873e-09
5.95142e-11
3.77664e-10
1.17023e-11
3.78231e-11
2.99457e-11
1.58663e-11
1.4182e-12
4.16052e-09
1.23688e-09
3.62137e-08
7.00895e-11
1.15732e-08
2.12533e-11
1.35216e-09
1.59564e-09
8.83186e-11
3.98777e-10
1.28633e-11
6.67837e-09
7.47265e-09
4.32811e-10
3.76144e-11
4.07188e-11
1.74415e-08
3.2222e-08
2.57007e-06
1.71783e-06
9.94287e-08
4.06989e-06
2.57449e-09
3.62531e-06
2.09894e-08
1.71038e-06
1.564e-07
1.06635e-07
3.93039e-07
9.02338e-09
2.41194e-07
1.5396e-09
1.3343e-07
1.00202e-09
7.53616e-08
7.66675e-10
4.4993e-08
8.70042e-10
2.48637e-08
2.94963e-10
3.92232e-09
1.93148e-08
8.21204e-10
1.16941e-08
5.16731e-10
7.51608e-09
2.58953e-11
1.13431e-09
5.35044e-09
1.06097e-10
2.41788e-09
1.1525e-11
1.29444e-09
5.25337e-12
3.1583e-12
8.06886e-10
1.06387e-10
1.9261e-10
9.91533e-12
7.07491e-11
1.3756e-12
2.4031e-11
2.34376e-11
1.91695e-11
8.19291e-12
6.56221e-09
3.38685e-09
3.11784e-08
2.21023e-09
8.69232e-09
5.91102e-10
2.47437e-09
2.67864e-09
9.6445e-11
2.65349e-11
6.74215e-10
5.71949e-09
4.674e-09
1.21257e-11
7.96204e-11
6.32514e-11
4.9958e-10
4.17651e-10
3.89647e-07
2.18293e-08
2.0229e-06
1.3338e-05
5.87474e-06
1.80062e-05
1.80997e-06
1.00665e-05
3.60152e-09
1.43067e-06
1.30972e-06
4.49376e-07
6.81656e-07
2.17621e-07
4.78462e-07
9.14287e-08
3.34905e-07
4.30988e-08
2.24334e-07
2.77644e-08
1.52395e-07
3.19145e-10
6.11585e-08
6.04987e-08
3.65867e-08
6.19292e-08
1.81375e-08
5.04915e-08
1.84388e-09
2.34515e-08
1.78071e-08
1.48073e-08
1.90304e-08
6.07151e-09
1.5419e-08
3.4189e-10
7.29358e-09
5.7903e-09
3.28443e-09
5.55616e-09
4.9711e-10
2.14905e-09
4.09713e-12
1.99957e-10
1.53156e-10
2.63512e-11
1.66285e-11
8.01772e-10
6.51609e-10
3.26678e-08
1.13064e-09
3.0777e-08
8.32256e-10
2.40874e-09
2.7062e-09
2.12829e-10
8.03144e-10
1.97015e-10
3.92412e-09
7.56795e-12
3.77749e-11
4.66103e-11
3.41244e-11
2.54357e-09
3.04915e-09
6.78446e-07
6.34364e-07
9.7844e-06
3.16348e-06
3.44868e-09
3.48017e-06
2.94335e-08
2.19365e-06
3.17274e-07
1.03632e-07
4.83382e-07
4.47434e-09
3.18299e-07
6.47121e-11
1.76063e-07
1.06908e-10
9.82727e-08
1.7947e-10
5.78876e-08
2.47347e-10
3.22239e-08
9.61928e-10
4.82378e-09
2.5139e-08
1.01681e-09
1.70489e-08
6.69655e-10
1.1062e-08
5.13498e-12
1.72051e-09
8.39385e-09
1.94606e-10
4.52286e-09
2.40637e-11
2.47736e-09
2.26761e-11
6.03829e-11
1.81954e-09
1.93845e-10
6.08448e-10
1.65996e-10
1.54022e-10
3.89491e-11
1.90941e-11
3.27463e-11
1.50453e-11
2.07857e-11
1.66442e-09
1.28192e-09
2.99957e-08
5.96201e-10
1.26964e-08
4.50019e-10
5.32603e-09
5.628e-09
2.49364e-10
3.54304e-09
1.7206e-09
2.04281e-12
4.6624e-11
3.91134e-11
5.35897e-11
3.77598e-11
1.51319e-11
3.90708e-10
3.09198e-08
1.89324e-09
1.94691e-06
4.32839e-07
6.18791e-06
1.77968e-05
4.42419e-06
1.48157e-05
1.28919e-07
2.53126e-06
2.27648e-06
7.4404e-07
1.07591e-06
3.2636e-07
6.87707e-07
1.33782e-07
4.74309e-07
5.51314e-08
3.07523e-07
3.71586e-08
2.06155e-07
5.0626e-10
8.00142e-08
7.71109e-08
4.93213e-08
8.33487e-08
2.51055e-08
7.00246e-08
2.92372e-09
3.54176e-08
2.68035e-08
2.41574e-08
3.07767e-08
1.09169e-08
2.67776e-08
1.0927e-09
1.376e-08
1.02141e-08
8.28047e-09
1.2689e-08
2.43021e-09
8.372e-09
1.74136e-11
1.39082e-09
1.14336e-09
1.14182e-10
1.84215e-10
2.16321e-11
4.05148e-10
1.88995e-08
5.98067e-09
4.24055e-08
2.74269e-12
5.35092e-09
5.59667e-09
1.15344e-10
3.58962e-09
8.14726e-10
2.16024e-11
2.95385e-11
1.89949e-11
2.71816e-11
1.34646e-11
2.98438e-11
2.36078e-10
8.57656e-08
9.92e-08
3.74025e-06
2.71581e-06
4.74321e-06
1.94275e-06
2.0139e-08
2.5145e-06
4.3502e-07
1.63813e-07
6.34148e-07
2.57494e-10
4.20321e-07
2.71571e-09
2.23336e-07
1.16597e-09
1.21237e-07
3.95349e-10
6.9745e-08
7.2845e-11
3.84592e-08
2.23501e-09
4.41228e-09
2.92177e-08
7.52363e-10
2.12335e-08
5.29269e-10
1.4305e-08
4.06052e-12
2.02539e-09
1.1407e-08
3.1494e-10
7.05606e-09
4.9468e-11
4.1681e-09
8.08172e-12
2.35767e-10
3.32186e-09
4.23542e-11
1.59041e-09
2.13776e-10
4.26455e-10
1.58019e-10
1.01227e-12
1.55255e-10
2.40589e-12
5.17303e-11
8.79806e-13
1.21088e-09
1.30073e-08
8.78785e-11
1.5082e-08
2.83066e-09
9.12472e-09
9.52225e-09
3.43433e-09
7.63976e-09
2.80629e-09
2.55979e-11
3.32326e-11
2.36797e-11
3.33183e-11
6.33049e-13
5.62883e-13
1.87962e-11
2.16463e-09
1.70661e-09
4.53928e-07
5.46531e-08
2.10306e-06
5.83727e-06
7.52039e-06
1.83878e-05
1.15205e-06
4.64195e-06
4.19392e-06
1.43077e-06
1.76512e-06
5.11878e-07
9.94152e-07
1.97397e-07
6.76567e-07
6.25864e-08
4.17329e-07
4.12207e-08
2.71069e-07
3.82923e-11
9.91062e-08
9.11267e-08
6.06872e-08
1.03812e-07
3.00862e-08
8.85562e-08
2.60944e-09
4.72215e-08
3.36488e-08
3.44848e-08
4.29124e-08
1.66068e-08
3.98034e-08
1.5542e-09
2.27135e-08
1.53008e-08
1.5616e-08
2.12676e-08
6.03282e-09
1.87679e-08
9.50101e-11
5.54097e-09
5.20491e-09
7.15945e-10
1.89978e-09
5.72415e-12
2.35594e-09
1.99249e-10
5.05288e-08
8.17758e-08
7.85187e-09
5.90927e-09
6.26115e-09
2.57716e-09
5.22432e-09
1.41283e-09
2.29372e-13
4.34985e-13
2.37588e-14
7.58282e-14
5.07139e-12
6.09879e-12
1.09962e-11
7.91257e-09
1.0994e-08
7.36375e-07
6.3911e-07
6.97162e-06
3.68574e-06
3.43408e-07
6.08741e-07
1.44731e-06
4.38036e-08
4.02035e-07
6.12316e-08
2.87285e-07
5.78934e-08
2.02935e-07
4.75216e-08
1.30335e-07
2.46088e-08
7.58788e-08
6.89422e-09
4.58044e-08
1.97951e-08
2.87652e-09
3.13222e-08
9.93123e-11
2.48811e-08
4.46113e-11
1.77066e-08
1.42945e-09
1.90468e-09
1.15433e-08
4.26071e-10
9.75434e-09
7.22633e-11
6.59488e-09
4.48147e-10
4.07742e-10
4.14184e-09
6.90679e-11
3.37751e-09
2.92523e-11
1.59043e-09
9.16778e-10
2.61956e-11
4.36119e-10
7.92899e-11
1.21565e-10
3.01753e-10
8.92654e-09
1.13821e-10
1.09638e-08
2.33486e-08
3.67778e-09
4.56906e-10
3.26023e-11
1.85602e-11
1.67215e-10
6.8642e-11
1.97926e-11
2.51942e-11
1.91521e-11
2.06662e-11
2.57727e-12
8.1698e-12
1.48599e-11
2.89839e-11
1.64463e-08
6.25138e-07
6.83932e-07
6.54114e-06
5.44935e-06
9.01465e-06
4.11405e-07
1.03901e-09
1.32226e-08
2.42657e-06
1.42558e-07
8.66052e-07
4.86511e-08
3.833e-07
9.45267e-09
1.75595e-07
7.28924e-10
8.49309e-08
3.5203e-09
4.09349e-08
4.27322e-10
3.13221e-09
4.41549e-08
7.2463e-11
2.8674e-08
5.63997e-10
1.59651e-08
1.94039e-10
1.49695e-09
1.85132e-08
5.16907e-11
1.18682e-08
1.65666e-10
5.70868e-09
1.1755e-10
2.55035e-10
7.8124e-09
1.09584e-11
4.10369e-09
4.14158e-10
1.0107e-09
4.26226e-12
7.9303e-11
1.2361e-09
6.73997e-11
2.33248e-10
1.36959e-10
1.09661e-08
1.80191e-10
2.20932e-09
4.9846e-09
2.83088e-09
1.43077e-08
1.59173e-08
8.15486e-09
1.11426e-08
4.18533e-09
9.50717e-12
1.59112e-11
9.73244e-12
1.45032e-11
1.33227e-14
1.88738e-14
5.57554e-13
5.78078e-10
2.15865e-10
1.028e-08
3.32152e-10
3.08128e-07
2.28367e-08
1.88775e-06
6.47579e-07
4.16035e-06
9.9524e-06
9.79824e-06
3.64231e-06
5.2916e-06
1.31684e-06
2.83352e-06
3.65926e-07
1.51962e-06
1.07366e-07
8.00183e-07
4.01269e-08
4.5826e-07
3.51458e-09
1.31428e-07
1.87286e-07
4.83114e-08
1.48516e-07
3.54864e-08
1.20301e-07
6.94731e-09
5.61268e-08
6.92609e-08
2.80852e-08
6.11722e-08
2.17816e-08
5.55441e-08
5.45901e-09
3.02938e-08
3.56312e-08
1.68959e-08
3.43337e-08
8.74059e-09
3.13293e-08
2.74821e-09
1.36101e-08
1.80092e-08
3.90085e-09
1.10866e-08
3.07124e-10
2.22188e-10
3.71127e-09
3.203e-09
2.83443e-08
4.62835e-08
1.57393e-08
1.76192e-08
8.53418e-09
1.25455e-08
2.08522e-09
3.25062e-12
4.59788e-12
5.91638e-13
8.7097e-13
-2.22045e-16
3.63265e-13
7.96585e-13
5.71831e-10
6.80111e-10
5.67708e-08
5.8238e-08
1.09109e-06
1.23895e-06
8.2767e-06
6.78651e-06
6.42973e-06
4.94537e-08
1.66207e-06
1.62427e-07
1.27226e-06
7.4615e-08
7.26928e-07
3.03409e-08
3.58131e-07
1.07947e-08
1.76005e-07
3.06775e-09
8.60254e-08
5.32743e-09
6.57789e-09
5.35494e-08
1.15431e-10
3.8148e-08
2.06189e-10
2.40212e-08
1.71511e-10
2.76855e-09
1.81785e-08
1.9002e-10
1.40445e-08
1.0371e-10
8.3081e-09
6.94334e-11
6.93818e-10
8.17e-09
7.21804e-12
5.58552e-09
3.33585e-12
2.25226e-09
1.05068e-10
2.253e-11
2.17621e-09
5.05093e-10
3.51275e-10
2.52433e-10
7.75505e-09
2.26152e-10
4.15129e-08
1.49551e-08
1.20209e-08
3.45388e-08
3.93908e-08
1.94483e-08
2.65864e-08
6.09515e-09
3.81428e-12
6.75526e-12
4.27158e-12
3.55271e-15
-2.22045e-16
3.44169e-15
2.35367e-14
6.90559e-13
2.88752e-11
3.44221e-10
1.39033e-10
1.26788e-08
1.05175e-09
3.22675e-07
1.06473e-08
1.30042e-06
1.06736e-05
1.66219e-05
7.64495e-06
1.22811e-05
4.16642e-06
7.41364e-06
1.37948e-06
4.0288e-06
3.24638e-07
1.93854e-06
1.2092e-07
9.55723e-07
3.46495e-09
2.25703e-07
2.71784e-07
8.4631e-08
2.17148e-07
4.82837e-08
1.65998e-07
8.51227e-09
7.43389e-08
8.40867e-08
3.87939e-08
7.61749e-08
2.71922e-08
6.84698e-08
6.68918e-09
3.98084e-08
4.50805e-08
2.25892e-08
4.36625e-08
1.82871e-08
4.11306e-08
4.04276e-09
2.36342e-08
2.79013e-08
1.04306e-08
2.46422e-08
3.50349e-09
5.59713e-09
5.64035e-11
8.43484e-09
5.89611e-08
1.64399e-07
1.1591e-09
1.19895e-08
1.68137e-08
2.50699e-08
2.0764e-09
5.95857e-13
1.18494e-12
5.6799e-13
-2.22045e-16
1.11022e-16
2.69784e-14
3.24185e-14
1.8953e-11
2.57516e-11
2.56449e-09
3.00104e-09
6.14783e-08
9.21705e-08
9.02127e-07
1.43872e-06
5.68972e-06
8.63331e-06
7.02938e-07
3.13169e-07
1.30633e-06
2.24366e-07
1.07577e-06
1.1767e-07
6.83911e-07
7.43452e-08
3.67369e-07
4.18503e-08
1.78458e-07
4.73956e-08
1.07316e-08
6.42347e-08
1.72406e-11
4.93938e-08
2.83999e-12
3.3112e-08
1.56927e-09
3.73447e-09
1.89884e-08
3.06834e-10
1.61775e-08
6.16047e-11
1.10649e-08
2.93526e-10
1.19967e-09
8.79231e-09
7.3942e-11
7.23448e-09
2.28473e-11
4.09932e-09
1.16477e-10
8.07397e-11
3.75284e-09
2.54515e-10
1.10166e-09
1.00509e-09
1.98263e-09
3.36407e-10
9.76986e-08
1.23768e-08
1.68709e-08
5.06426e-08
6.10259e-08
3.70102e-08
5.4233e-08
7.63164e-09
9.88654e-13
1.64746e-12
3.85136e-13
2.22045e-16
0
1.88738e-15
6.66134e-16
2.60902e-14
1.32128e-12
1.68893e-11
2.32162e-11
1.06674e-09
3.85539e-10
3.71899e-08
2.29487e-09
7.25132e-07
6.52148e-07
3.92445e-07
8.19864e-06
1.25472e-05
1.03222e-05
1.30717e-05
5.84541e-06
1.0021e-05
1.77155e-06
5.66568e-06
4.50744e-07
2.69913e-06
1.21309e-10
4.78466e-07
4.55154e-07
1.7201e-07
3.65513e-07
6.14094e-08
2.50276e-07
4.86982e-09
9.57821e-08
8.29527e-08
5.89168e-08
9.04234e-08
2.95756e-08
8.02072e-08
4.75902e-09
4.63466e-08
4.0627e-08
3.19154e-08
4.92248e-08
2.17462e-08
4.8465e-08
2.89666e-09
3.17525e-08
3.355e-08
1.78221e-08
3.73095e-08
9.61091e-09
2.05407e-08
9.86529e-09
1.50913e-08
1.5451e-07
2.25058e-07
7.23501e-08
8.20631e-09
1.50585e-08
2.92996e-08
3.83556e-10
1.95732e-13
1.09912e-14
6.75016e-14
-1.11022e-16
0
0
2.55351e-15
5.78537e-13
5.87419e-13
7.67437e-11
7.79797e-11
2.36258e-09
3.02222e-09
4.16798e-08
9.68273e-08
1.81262e-07
5.30304e-06
1.66525e-06
6.9655e-06
2.71327e-07
1.2088e-06
6.07891e-07
8.78888e-07
4.26215e-07
6.66189e-07
3.25496e-07
6.86746e-07
1.58493e-07
6.62871e-07
4.79688e-09
4.13622e-08
5.782e-09
4.35005e-08
6.99574e-09
3.43132e-08
2.63772e-08
1.9861e-09
1.44713e-08
7.29989e-11
1.53358e-08
2.4477e-10
1.17194e-08
3.1391e-09
6.08583e-10
7.90835e-09
2.22822e-11
6.69847e-09
7.82415e-11
4.21769e-09
7.7322e-10
3.08234e-10
3.76981e-09
4.82988e-11
2.24308e-09
3.2873e-10
8.96617e-10
7.83216e-11
4.8369e-08
1.83514e-08
3.96481e-10
1.27141e-08
1.00762e-08
4.12076e-09
3.16876e-09
2.33731e-09
6.70575e-14
3.31957e-14
0
-1.11022e-16
-1.11022e-16
4.21885e-15
1.33227e-15
5.86087e-13
5.91194e-13
7.43979e-11
6.04932e-11
2.58668e-09
2.7034e-09
5.93803e-08
6.85232e-08
9.39143e-07
4.22156e-06
3.12896e-06
1.34509e-05
7.51657e-06
1.17624e-06
6.48245e-07
3.36499e-07
8.59809e-07
1.15759e-07
6.16061e-07
5.70316e-09
3.22791e-07
4.52979e-10
3.97515e-09
1.61447e-07
2.97033e-09
8.3371e-08
5.14348e-10
4.53109e-08
5.62377e-10
2.34041e-09
2.80538e-08
1.80571e-12
1.9674e-08
6.76744e-12
1.19906e-08
3.42345e-10
9.3736e-10
1.02153e-08
1.16155e-11
7.72345e-09
5.60793e-11
4.11119e-09
5.34948e-11
2.60838e-10
5.18612e-09
1.04587e-12
2.28152e-09
9.32656e-10
8.64439e-10
9.4495e-10
9.44931e-08
2.7988e-10
4.10242e-07
8.45481e-08
6.11154e-08
5.7834e-08
1.13321e-07
1.55871e-08
4.44089e-16
2.22045e-16
1.11022e-16
-3.33067e-16
-2.22045e-16
1.11022e-16
4.44089e-16
2.88658e-15
2.53131e-14
3.00648e-13
1.96887e-12
7.68863e-12
3.25742e-11
8.91278e-11
6.03892e-10
1.30614e-10
1.41556e-08
1.48742e-08
2.88111e-07
1.04466e-07
5.54086e-07
6.18409e-06
7.39762e-06
1.45555e-05
6.08956e-06
1.32231e-05
3.05102e-06
8.85081e-06
2.07928e-07
1.99963e-06
2.22298e-06
4.38668e-07
1.29553e-06
1.47314e-07
7.2085e-07
6.09166e-09
1.86383e-07
1.99433e-07
6.58137e-08
1.58029e-07
3.36309e-08
1.18792e-07
5.99811e-09
5.2372e-08
6.49301e-08
2.4277e-08
5.85183e-08
2.09507e-08
5.39442e-08
5.67552e-09
3.11831e-08
4.01802e-08
1.95764e-08
4.20432e-08
1.01132e-08
2.18628e-08
2.13641e-08
2.7813e-08
1.92783e-08
5.12466e-08
4.20547e-09
1.28579e-07
3.22798e-09
2.51119e-08
5.09876e-10
0
2.22045e-16
0
-2.22045e-16
1.11022e-16
1.11022e-16
0
1.12133e-14
1.19904e-14
9.15712e-13
8.72968e-13
3.73496e-11
5.37339e-11
8.98303e-10
1.72318e-09
1.34764e-08
2.52183e-07
9.25415e-08
2.16399e-06
1.08968e-06
7.89149e-06
4.28142e-06
5.33995e-06
4.42503e-07
5.24916e-07
6.50802e-07
5.24613e-07
5.8866e-07
5.70988e-07
5.11578e-09
1.73526e-07
1.47628e-08
1.79251e-07
2.21693e-08
1.25133e-07
4.82599e-08
8.1542e-09
2.34735e-08
9.11681e-11
2.64726e-08
3.35724e-10
1.96643e-08
3.11202e-09
1.88015e-09
9.7638e-09
2.29231e-11
9.35099e-09
1.87836e-12
6.14408e-09
4.20411e-10
3.94895e-10
5.60838e-09
1.39158e-12
3.83896e-09
3.08305e-10
1.00693e-10
6.6317e-10
4.12669e-08
5.57782e-11
1.18718e-07
5.84366e-07
5.71653e-09
2.36541e-07
2.85811e-07
4.22314e-08
2.22045e-16
1.11022e-16
-1.11022e-16
2.22045e-16
-4.44089e-16
-1.11022e-16
-1.11022e-16
6.66134e-16
1.55431e-15
3.33067e-16
1.23235e-14
2.11275e-13
3.37508e-13
1.02314e-11
9.10105e-12
3.30835e-10
9.36118e-10
2.60118e-09
3.80856e-08
1.64449e-08
2.94001e-07
7.60688e-08
6.70882e-07
1.10634e-06
6.82259e-06
1.25568e-05
9.07165e-06
1.54578e-05
3.10036e-06
7.9189e-06
7.25196e-06
3.25704e-06
4.9812e-06
1.03859e-06
2.93787e-06
6.74331e-08
6.69606e-07
5.40993e-07
2.39122e-07
4.0629e-07
6.71978e-08
2.59508e-07
3.55749e-09
8.30386e-08
7.93029e-08
3.95971e-08
7.67968e-08
2.24371e-08
6.53694e-08
2.33763e-09
3.48449e-08
4.03906e-08
1.93905e-08
4.15663e-08
2.57789e-09
2.17603e-08
2.64493e-08
2.02138e-08
2.82833e-10
5.41475e-10
2.11632e-09
6.81871e-07
4.03247e-08
3.21844e-08
7.74443e-10
-1.11022e-16
-2.22045e-16
0
0
-2.22045e-16
2.22045e-16
-2.22045e-16
-1.11022e-16
-2.22045e-16
1.23235e-14
1.09912e-14
5.01488e-13
6.64468e-13
1.29193e-11
3.11641e-11
1.79235e-10
7.23909e-09
8.30818e-10
9.64387e-08
4.23291e-08
8.06225e-07
4.71828e-07
3.76743e-06
2.37618e-06
5.37429e-06
4.50862e-08
1.30453e-07
2.44233e-08
4.56645e-07
1.9927e-07
1.12737e-07
2.49378e-07
9.42416e-08
1.91432e-07
8.36258e-08
4.87657e-07
3.63094e-10
7.41881e-09
6.17082e-09
1.84453e-08
1.17998e-08
1.59269e-08
3.64015e-08
4.13908e-10
5.678e-09
3.50961e-10
6.07535e-09
4.43086e-10
4.94054e-09
4.41693e-09
1.35345e-10
3.65146e-09
3.90002e-11
2.49881e-09
1.20438e-09
7.43655e-11
2.12271e-09
7.35777e-09
3.66564e-10
8.58998e-11
4.62187e-07
2.3042e-07
1.73543e-07
6.38285e-08
8.77708e-08
-1.11022e-16
2.22045e-16
-1.11022e-16
-4.44089e-16
0
0
-2.22045e-16
3.33067e-16
0
1.27676e-14
1.29896e-14
6.05738e-13
5.8098e-13
1.95675e-11
2.09249e-11
4.42647e-10
5.47038e-09
3.77892e-09
7.65955e-08
5.05366e-08
6.23685e-07
4.59662e-07
3.51783e-06
2.63747e-06
9.33935e-06
5.48381e-06
1.95981e-06
4.31169e-08
5.01821e-07
9.59291e-08
3.18887e-07
1.68269e-07
3.74617e-07
8.53588e-08
2.84838e-07
1.94904e-08
9.75008e-10
9.95006e-08
9.23529e-09
6.92006e-08
3.94513e-09
3.69683e-08
4.31608e-09
1.13206e-09
1.46002e-08
2.54355e-10
1.02954e-08
2.11695e-10
5.97082e-09
1.22473e-09
2.75918e-10
4.7334e-09
4.34668e-11
3.06508e-09
1.28315e-09
4.32713e-12
1.8202e-09
9.76827e-09
9.99109e-10
1.48098e-08
8.92148e-07
2.01104e-08
4.96883e-07
1.33634e-08
7.98171e-08
-1.11022e-16
1.11022e-16
0
1.11022e-16
2.22045e-16
1.11022e-16
0
-3.33067e-16
-2.22045e-16
3.33067e-16
1.33227e-15
1.9984e-15
1.12133e-14
5.26246e-14
2.64788e-13
1.04672e-12
8.27793e-12
2.75068e-11
2.32753e-11
1.66518e-10
1.3834e-10
5.59673e-10
1.31347e-08
8.94628e-10
1.52152e-07
5.08028e-08
2.77038e-07
1.70004e-06
3.97584e-06
9.71216e-06
1.27467e-05
6.94979e-06
1.19842e-05
4.93634e-06
9.64795e-06
1.12303e-06
3.63325e-06
3.93582e-06
1.00467e-06
2.2827e-06
3.28345e-07
1.29927e-06
1.49264e-09
2.81625e-07
3.09117e-07
6.50205e-08
2.11938e-07
2.56497e-08
1.35007e-07
1.45332e-09
4.24166e-08
5.94498e-08
1.47758e-08
4.81221e-08
2.86787e-09
2.07388e-08
3.41516e-08
4.77089e-09
6.79886e-09
2.24193e-08
6.4998e-08
9.02919e-07
1.85855e-10
4.79423e-07
8.4088e-09
-1.11022e-16
0
3.33067e-16
4.44089e-16
2.22045e-16
2.22045e-16
0
2.22045e-16
0
0
1.11022e-16
3.21965e-15
6.10623e-15
8.38218e-14
2.50799e-13
2.88325e-13
7.70392e-11
4.585e-12
1.21327e-09
2.72679e-10
1.40933e-08
7.84957e-09
1.29312e-07
9.26364e-08
7.07545e-07
8.22641e-07
2.30527e-06
3.62221e-06
3.56747e-06
7.18241e-07
1.06356e-07
1.02654e-06
3.94158e-08
5.0834e-07
3.26657e-08
1.168e-06
4.94775e-08
5.92895e-10
6.56296e-08
2.33216e-08
1.37213e-07
4.2591e-08
5.45977e-07
3.60864e-09
1.97309e-10
3.07981e-09
8.71596e-09
1.77967e-08
8.51263e-09
2.90034e-08
2.65902e-10
3.02774e-09
1.07899e-09
2.67557e-09
5.51537e-09
1.4567e-11
1.78406e-09
6.17888e-12
1.37215e-09
5.96703e-09
1.82706e-07
7.42177e-08
6.2502e-07
4.71865e-08
2.42449e-08
1.11022e-16
-2.22045e-16
-2.22045e-16
2.22045e-16
0
0
-2.22045e-16
4.44089e-16
-1.11022e-16
-3.33067e-16
4.44089e-16
2.55351e-15
4.44089e-16
1.88405e-13
1.38223e-13
5.08282e-12
6.13534e-11
4.85021e-11
1.0142e-09
7.59981e-10
1.17788e-08
9.14077e-09
1.09659e-07
8.80875e-08
6.59403e-07
6.06747e-07
3.24336e-06
2.95582e-06
9.0874e-06
9.40751e-06
1.93159e-06
6.12593e-07
1.08264e-07
2.43543e-07
1.94448e-07
1.28159e-08
6.89004e-08
1.06407e-06
1.23461e-07
3.73593e-07
1.73524e-08
6.14985e-08
3.12157e-08
3.65402e-09
1.02837e-07
2.13726e-08
2.97734e-08
7.1736e-10
1.1491e-08
2.095e-10
1.26208e-10
1.16275e-08
1.31815e-10
3.70924e-09
3.00265e-11
3.17134e-11
3.1377e-09
5.02194e-10
2.26999e-09
1.11515e-08
2.45043e-07
2.32837e-09
9.53555e-07
8.30174e-10
3.93859e-09
0
-2.22045e-16
0
0
0
2.22045e-16
0
0
2.22045e-16
0
0
-1.11022e-16
2.22045e-16
3.33067e-16
1.77636e-15
2.30926e-14
2.10609e-13
7.73492e-13
2.16027e-12
1.02791e-11
1.49005e-11
7.63822e-11
7.14774e-11
2.71603e-10
3.91569e-11
3.85497e-10
6.47404e-10
4.09396e-10
9.7182e-09
1.77216e-07
6.70394e-08
3.0324e-07
2.20784e-06
5.11092e-06
7.89012e-06
3.96723e-06
7.16302e-06
9.05618e-06
4.03138e-06
8.18102e-06
2.47705e-06
6.99099e-06
5.14618e-07
2.08892e-06
2.59711e-06
5.08293e-07
1.64539e-06
1.73669e-07
9.53868e-07
7.76303e-09
1.99578e-07
2.67044e-07
3.45232e-08
1.77678e-07
1.44915e-09
5.48157e-08
7.85635e-08
1.10177e-08
4.27193e-08
6.86581e-11
2.85e-09
1.26045e-07
1.19016e-07
1.41203e-06
2.25658e-10
4.44089e-16
2.22045e-16
-2.22045e-16
-2.22045e-16
2.22045e-16
6.66134e-16
2.22045e-16
2.22045e-16
0
0
0
-1.11022e-16
2.22045e-16
0
3.33067e-15
1.39888e-14
4.38982e-13
1.72085e-13
8.17557e-12
3.6916e-12
1.18662e-10
6.83225e-11
1.29196e-09
9.8413e-10
1.00044e-08
1.07003e-08
6.94315e-08
9.58239e-08
3.81417e-07
1.60223e-06
1.07702e-06
4.64283e-06
3.23754e-06
6.69787e-06
1.51833e-06
3.80216e-07
3.64484e-07
9.32348e-08
6.08207e-07
1.05362e-07
4.88475e-07
1.3862e-07
8.68042e-07
1.23879e-08
5.40874e-09
8.97786e-08
1.31338e-08
1.20081e-07
4.87986e-08
1.65215e-07
1.22533e-10
8.5971e-09
1.87318e-08
1.44255e-08
2.5158e-08
4.07886e-10
3.48381e-09
2.12147e-09
4.97316e-09
6.3979e-10
3.83232e-08
5.51214e-11
2.60893e-07
5.49204e-09
2.88527e-07
0
0
-2.22045e-16
2.22045e-16
2.22045e-16
0
-1.11022e-16
2.22045e-16
-2.22045e-16
-1.11022e-16
0
0
2.22045e-16
0
0
4.44089e-16
7.77156e-16
-2.22045e-16
4.55191e-15
4.44089e-15
2.05502e-13
2.67564e-14
4.23117e-12
1.1724e-13
6.11067e-11
4.98268e-13
7.5526e-10
6.52112e-12
6.20834e-09
2.31454e-08
1.43212e-08
1.18778e-07
3.81101e-08
3.02235e-07
3.90507e-08
4.8532e-07
3.29364e-06
4.00551e-06
5.62512e-06
7.35939e-06
6.55466e-06
9.75758e-06
4.55422e-06
7.87884e-06
7.9361e-06
4.91134e-06
7.31481e-06
2.52447e-06
5.3986e-06
5.66158e-07
1.55881e-06
1.94155e-06
4.18178e-07
1.24378e-06
5.03868e-08
3.05649e-07
3.92692e-07
7.57468e-08
2.56263e-07
8.65835e-09
2.4883e-08
9.38399e-09
1.84444e-10
1.91225e-07
3.18307e-08
-3.33067e-16
0
4.44089e-16
0
0
0
-2.22045e-16
0
0
0
-2.22045e-16
-2.22045e-16
0
2.22045e-16
0
-3.33067e-16
2.33147e-15
9.99201e-16
5.21805e-14
2.58682e-14
9.1871e-13
5.12146e-13
1.1305e-11
8.35598e-12
9.49909e-11
1.03045e-10
6.81025e-10
1.20695e-09
3.65811e-09
4.06302e-08
2.08128e-08
1.78418e-07
1.26427e-07
5.31718e-07
6.52676e-07
1.20965e-06
3.10035e-06
9.82739e-07
5.0064e-07
1.35398e-08
2.45258e-07
1.46401e-09
2.35194e-07
3.10314e-07
3.92027e-08
4.76104e-07
1.19734e-08
3.01189e-07
3.57094e-09
5.3527e-07
3.85332e-08
4.18917e-09
1.06426e-07
1.61417e-08
2.6321e-07
7.05563e-10
1.79711e-09
1.5383e-08
6.37481e-09
4.94924e-08
3.33882e-10
6.46631e-10
5.80526e-09
7.64145e-10
3.89236e-09
-1.11022e-16
-1.11022e-16
0
1.11022e-16
0
0
-2.22045e-16
0
2.22045e-16
0
2.22045e-16
-2.22045e-16
-2.22045e-16
-2.22045e-16
0
1.11022e-16
2.66454e-15
1.11022e-15
3.68594e-14
3.81917e-14
7.00662e-13