/*--------------------------------*- C++ -*----------------------------------*\
| =========                 |                                                 |
| \\      /  F ield         | OpenFOAM: The Open Source CFD Toolbox           |
|  \\    /   O peration     | Version:  v2012                                 |
|   \\  /    A nd           | Website:  www.openfoam.com                      |
|    \\/     M anipulation  |                                                 |
\*---------------------------------------------------------------------------*/
FoamFile
{
    version     2.0;
    format      ascii;
    class       volScalarField;
    location    "1e-06";
    object      k;
}
// * * * * * * * * * * * * * * * * * * * * * * * * * * * * * * * * * * * * * //

dimensions      [0 2 -2 0 0 0 0];


internalField   nonuniform List<scalar> 
10302
(
2.23829
2.31736
2.29032
2.24253
2.19377
1.97842
1.91519
1.65957
1.65617
1.56131
1.58078
1.56913
1.54455
1.49016
1.47039
1.5197
1.31192
1.42324
1.20179
1.16864
1.08574
1.06461
1.07207
1.07588
1.00717
0.985361
0.821787
0.793771
0.682339
0.602008
0.58052
0.494909
0.471244
0.277317
0.25883
0.119964
0.155758
0.15236
0.208994
0.217983
0.164068
0.160875
0.137726
0.0718234
0.0528758
0.0500212
0.0486609
0.0463764
0.0410158
0.0412178
0.051054
0.0529929
0.0647409
0.0619154
0.0535657
0.0619027
0.0608911
0.0213314
0.0188364
0.00531337
0.0200902
0.021436
0.0349446
0.0311099
0.0409302
2.07265
2.17326
2.11541
2.10429
2.04033
1.84733
1.78051
1.5126
1.49177
1.39552
1.38622
1.35886
1.33736
1.29664
1.26577
1.14894
1.1213
1.07066
1.04545
1.05719
0.963141
0.964172
0.957628
0.958472
0.909466
0.888731
0.761296
0.735182
0.588559
0.587498
0.585456
0.552533
0.539116
0.35474
0.343991
0.248263
0.231588
0.213278
0.263081
0.261237
0.18766
0.181414
0.126838
0.0987328
0.0867774
0.0950571
0.0932105
0.0861562
0.0878672
0.0779665
0.0973695
0.0962209
0.112957
0.117846
0.143889
0.100696
0.0927275
0.0404658
0.0391526
0.0222475
0.0410097
0.0424055
0.0611749
0.0637786
0.0686716
1.79602
1.85881
1.81779
1.82136
1.77467
1.63624
1.58216
1.36096
1.32475
1.20755
1.18789
1.15743
1.12825
1.10401
1.06685
1.00167
0.966334
0.97728
0.914238
0.917784
0.864377
0.860731
0.844193
0.839138
0.814144
0.800298
0.732308
0.713393
0.619447
0.632836
0.629381
0.612292
0.601459
0.497327
0.487998
0.356121
0.352148
0.325035
0.34383
0.336301
0.253734
0.249161
0.181132
0.174056
0.159311
0.171703
0.169274
0.154182
0.159778
0.139128
0.16667
0.165326
0.18616
0.193199
0.194844
0.153152
0.142017
0.0720445
0.0715293
0.0456594
0.0756923
0.077467
0.103035
0.107991
0.113717
1.72447
1.78228
1.74488
1.75559
1.71274
1.58179
1.53673
1.26596
1.29954
1.17128
1.17082
1.11527
1.1151
1.05803
1.05714
0.993656
0.953468
0.945661
0.902477
0.899774
0.855092
0.85463
0.833916
0.835538
0.805361
0.799833
0.738394
0.716841
0.62566
0.633964
0.637048
0.619276
0.612076
0.520274
0.499003
0.390568
0.359617
0.355447
0.352581
0.348326
0.26874
0.255571
0.193011
0.179215
0.176293
0.179407
0.176256
0.1718
0.16397
0.160668
0.171652
0.172016
0.19825
0.197514
0.224401
0.156401
0.146471
0.0769539
0.0728998
0.0559396
0.0775515
0.0801183
0.110362
0.109736
0.124047
1.56466
1.6024
1.57309
1.59196
1.56053
1.47193
1.4339
1.24294
1.23144
1.09889
1.09076
1.03077
1.02472
0.976592
0.970967
0.923122
0.891773
0.881155
0.854502
0.851954
0.825416
0.823983
0.810441
0.810028
0.795199
0.792331
0.761291
0.747614
0.692071
0.68124
0.676448
0.689384
0.686921
0.622994
0.609261
0.527446
0.481923
0.465328
0.459901
0.451712
0.371896
0.361304
0.296887
0.279618
0.269183
0.271303
0.266645
0.248504
0.245096
0.226369
0.240838
0.23987
0.261303
0.260937
0.269178
0.198631
0.187494
0.112117
0.109259
0.0860562
0.114044
0.116509
0.147628
0.149443
0.160973
1.42388
1.44041
1.41806
1.43647
1.41352
1.37163
1.34178
1.20022
1.1757
1.05187
1.0355
0.970784
0.955954
0.915431
0.899385
0.871202
0.833526
0.835127
0.804924
0.805758
0.787012
0.785758
0.780244
0.777184
0.776974
0.771662
0.766878
0.756001
0.723932
0.712559
0.703781
0.712927
0.709441
0.688782
0.680961
0.616639
0.587881
0.561895
0.558504
0.548398
0.48168
0.475805
0.397337
0.39067
0.370389
0.373403
0.367227
0.332203
0.335156
0.295101
0.31125
0.307537
0.316977
0.319086
0.307653
0.240771
0.227695
0.147045
0.145778
0.115689
0.148569
0.150654
0.17984
0.18394
0.191709
1.37765
1.39257
1.37189
1.38987
1.3697
1.33976
1.31683
1.18643
1.16737
1.0412
1.03155
0.95656
0.951083
0.899151
0.895212
0.856669
0.824924
0.820906
0.796657
0.795621
0.779137
0.781008
0.772378
0.775687
0.77013
0.77247
0.765844
0.759473
0.740398
0.713122
0.712035
0.712763
0.714272
0.698525
0.689204
0.646527
0.595269
0.589364
0.568931
0.56429
0.504926
0.488632
0.423307
0.400881
0.397485
0.387991
0.381259
0.358394
0.344507
0.320994
0.320464
0.318773
0.330152
0.325506
0.324613
0.245862
0.234238
0.153988
0.148517
0.125976
0.151657
0.154657
0.187182
0.186609
0.200302
1.28555
1.29525
1.27592
1.29149
1.2753
1.26728
1.24753
1.15139
1.13304
1.02218
1.00643
0.930446
0.918582
0.866365
0.856553
0.816153
0.788709
0.777961
0.762119
0.760704
0.748208
0.747556
0.745127
0.743892
0.748463
0.746154
0.75515
0.749478
0.755783
0.735926
0.731444
0.73205
0.72927
0.735387
0.729818
0.723005
0.681387
0.66787
0.65797
0.649719
0.609093
0.597987
0.544117
0.515823
0.501767
0.499747
0.491436
0.456779
0.450494
0.403781
0.402117
0.396392
0.391401
0.388966
0.375148
0.290609
0.276491
0.190065
0.186784
0.157896
0.185769
0.187842
0.216691
0.218739
0.227618
1.25121
1.2593
1.24192
1.25774
1.24068
1.23736
1.22218
1.11624
1.09189
1.01286
1.00343
0.922459
0.915262
0.857152
0.853286
0.809053
0.781847
0.773146
0.754954
0.75147
0.740393
0.741367
0.736514
0.740552
0.739307
0.745085
0.746454
0.750336
0.74711
0.734278
0.735928
0.731471
0.733742
0.739006
0.73591
0.72751
0.686202
0.688778
0.666402
0.664776
0.630119
0.61068
0.572982
0.525286
0.529308
0.515563
0.507953
0.490215
0.462428
0.436248
0.414154
0.411815
0.409787
0.397983
0.391208
0.29717
0.285028
0.198721
0.19059
0.169401
0.189593
0.192818
0.224608
0.221879
0.236067
1.16718
1.1737
1.15934
1.16885
1.15415
1.16297
1.14954
1.1006
1.08592
0.997863
0.985122
0.908344
0.89828
0.840013
0.832753
0.786675
0.757574
0.747305
0.728367
0.72508
0.712354
0.712402
0.707916
0.709918
0.712053
0.715331
0.723592
0.727281
0.739458
0.737653
0.738338
0.740268
0.741223
0.753973
0.755699
0.768148
0.748984
0.744343
0.739881
0.7359
0.719214
0.710175
0.669452
0.641056
0.630103
0.630394
0.624447
0.603463
0.590592
0.540018
0.523537
0.514665
0.495059
0.487408
0.451318
0.356817
0.339915
0.242653
0.237462
0.202055
0.227112
0.228782
0.255345
0.256188
0.263697
1.07979
1.0875
1.06942
1.07987
1.06598
1.08268
1.07014
1.05792
1.04728
0.978591
0.963154
0.896011
0.882267
0.827703
0.814793
0.773578
0.735639
0.730603
0.702304
0.700291
0.681976
0.680945
0.674161
0.672461
0.677074
0.673583
0.689671
0.684098
0.707654
0.710713
0.716532
0.722815
0.72296
0.743408
0.741886
0.764585
0.769474
0.769068
0.778275
0.775005
0.778747
0.775457
0.741575
0.735118
0.715058
0.72647
0.72257
0.710132
0.712628
0.652207
0.651503
0.635566
0.602905
0.60477
0.531774
0.438288
0.413378
0.29889
0.298123
0.243473
0.26815
0.267751
0.287574
0.292478
0.291658
1.05351
1.05415
1.0393
1.04934
1.03707
1.05406
1.04507
1.03937
1.03442
0.972927
0.960997
0.892482
0.882172
0.824027
0.814851
0.768086
0.731718
0.723525
0.697401
0.694471
0.675787
0.675805
0.666226
0.668196
0.667165
0.670318
0.678209
0.681873
0.697011
0.703402
0.709825
0.715893
0.721217
0.737282
0.742416
0.769108
0.767718
0.773737
0.778803
0.781967
0.787293
0.784207
0.772765
0.742958
0.736453
0.737546
0.736661
0.738092
0.725744
0.694065
0.670405
0.659483
0.635013
0.62234
0.562646
0.452894
0.430938
0.315087
0.306412
0.254529
0.274358
0.274987
0.297132
0.297011
0.301518
0.979218
0.983416
0.96964
0.979399
0.96712
0.988556
0.977105
0.989675
0.985784
0.955667
0.939084
0.88325
0.870314
0.817919
0.805608
0.762544
0.723291
0.715854
0.685304
0.680935
0.658837
0.656264
0.643941
0.641777
0.639989
0.637153
0.646691
0.642875
0.662534
0.668741
0.675856
0.686079
0.688091
0.711003
0.709878
0.74177
0.756673
0.765818
0.78418
0.78657
0.810692
0.809514
0.813605
0.810606
0.798534
0.808285
0.805537
0.816074
0.820357
0.796418
0.799398
0.786051
0.765304
0.764738
0.687706
0.578652
0.543921
0.398955
0.395746
0.311806
0.322805
0.320106
0.33332
0.337926
0.332682
0.950994
0.955803
0.942815
0.951629
0.943133
0.959963
0.952713
0.971638
0.968795
0.948411
0.937565
0.880103
0.869575
0.815281
0.805928
0.759743
0.721056
0.711917
0.682087
0.677592
0.654504
0.652746
0.63797
0.638307
0.631844
0.633856
0.636002
0.639889
0.650199
0.660111
0.666293
0.676705
0.682572
0.700857
0.707166
0.736106
0.750522
0.760384
0.779289
0.786575
0.810352
0.813461
0.835509
0.814982
0.814055
0.816284
0.81723
0.833093
0.831007
0.830223
0.81693
0.809769
0.800762
0.7848
0.72804
0.602696
0.573465
0.424801
0.409636
0.329612
0.331103
0.329608
0.344601
0.34356
0.343807
0.882074
0.887608
0.874492
0.884476
0.873033
0.893233
0.884834
0.91265
0.913051
0.914584
0.907869
0.86669
0.854829
0.810007
0.798257
0.756596
0.717002
0.708856
0.676558
0.670725
0.644971
0.640932
0.623215
0.620071
0.611367
0.608146
0.609857
0.605923
0.618408
0.621936
0.628415
0.637841
0.640386
0.662198
0.660975
0.694204
0.712645
0.726683
0.751691
0.758214
0.795523
0.796326
0.830857
0.842179
0.843129
0.857399
0.856388
0.878518
0.883954
0.894983
0.915952
0.910887
0.924253
0.931156
0.89007
0.807177
0.757727
0.559112
0.552035
0.408838
0.39608
0.388595
0.389247
0.394327
0.381507
0.855938
0.860518
0.84912
0.860083
0.84802
0.86661
0.861235
0.890152
0.892969
0.900945
0.897966
0.865388
0.852505
0.808214
0.798273
0.754925
0.716075
0.707296
0.674837
0.669215
0.642388
0.639107
0.61927
0.617884
0.605419
0.605678
0.600882
0.603218
0.605097
0.613393
0.618094
0.627593
0.632966
0.649904
0.655892
0.681535
0.703628
0.714478
0.741903
0.751721
0.786688
0.794616
0.837503
0.840756
0.848462
0.859878
0.863562
0.887383
0.891243
0.914008
0.926117
0.927591
0.951395
0.94822
0.967063
0.844899
0.806675
0.600613
0.575737
0.425663
0.408032
0.401905
0.403334
0.401774
0.395113
0.788037
0.794277
0.783708
0.792019
0.781143
0.80138
0.793652
0.827596
0.829554
0.854919
0.855128
0.845532
0.833267
0.799759
0.788671
0.752214
0.714302
0.70621
0.673462
0.667263
0.639231
0.634293
0.612157
0.608215
0.593243
0.589462
0.583443
0.578836
0.582584
0.580251
0.58515
0.589672
0.591541
0.608431
0.60641
0.636539
0.651043
0.668383
0.692757
0.70134
0.743056
0.743871
0.796346
0.820474
0.83514
0.861389
0.864655
0.899896
0.903393
0.937584
0.975434
0.977795
1.02634
1.04343
1.08055
1.08313
1.03839
0.817955
0.806483
0.558163
0.50397
0.486949
0.462886
0.470152
0.443393
0.765544
0.770278
0.761224
0.768064
0.759978
0.777179
0.773321
0.804179
0.810299
0.840725
0.841039
0.837991
0.831828
0.797796
0.787695
0.751278
0.714343
0.705199
0.67297
0.66636
0.638057
0.63304
0.609869
0.606448
0.589042
0.587147
0.57571
0.575977
0.569701
0.573259
0.574838
0.58019
0.583018
0.595107
0.59924
0.616227
0.641527
0.650258
0.680173
0.688841
0.727458
0.735639
0.781891
0.812324
0.824753
0.855106
0.861397
0.899061
0.903016
0.942509
0.975616
0.981492
1.03541
1.04876
1.15382
1.11716
1.09189
0.876793
0.835503
0.58544
0.518572
0.503688
0.479813
0.477355
0.459978
0.747322
0.755132
0.742745
0.751564
0.743055
0.760665
0.757328
0.743981
0.792749
0.82285
0.831323
0.828534
0.827809
0.798094
0.7867
0.750725
0.713772
0.705687
0.672797
0.666981
0.638113
0.633684
0.609692
0.606686
0.588139
0.586944
0.57444
0.575435
0.568942
0.569782
0.570024
0.574459
0.577944
0.586603
0.594929
0.608269
0.635761
0.639626
0.671352
0.680044
0.714937
0.730312
0.766504
0.807171
0.816273
0.850429
0.859978
0.895192
0.904815
0.941527
0.977682
0.987213
1.04322
1.05534
1.1329
1.15041
1.14327
0.951551
0.872412
0.656542
0.535795
0.52414
0.500532
0.486221
0.477319
0.685292
0.690387
0.681077
0.688038
0.681269
0.696592
0.69373
0.718955
0.729904
0.766785
0.774898
0.788938
0.788458
0.781037
0.772079
0.744143
0.711552
0.703316
0.673024
0.666051
0.638255
0.632459
0.608356
0.603453
0.583532
0.579655
0.564468
0.56193
0.552482
0.547617
0.546133
0.545795
0.545922
0.551094
0.55268
0.563182
0.582278
0.586723
0.613856
0.620158
0.655733
0.662384
0.705129
0.746887
0.75963
0.804813
0.813085
0.864342
0.869687
0.923418
0.970894
0.979945
1.04812
1.06155
1.17061
1.30991
1.3269
1.24574
1.18012
0.878236
0.699632
0.667079
0.592213
0.58924
0.550951
0.665707
0.668639
0.660514
0.66756
0.661028
0.676018
0.673743
0.703247
0.710401
0.747647
0.756521
0.775461
0.778052
0.774129
0.769519
0.743939
0.710755
0.703456
0.672597
0.666662
0.637787
0.633284
0.607831
0.604188
0.582689
0.579942
0.563056
0.56158
0.550389
0.543308
0.54254
0.539717
0.541089
0.543084
0.547404
0.555407
0.572638
0.57676
0.600822
0.608536
0.639329
0.652382
0.690152
0.733052
0.745187
0.789182
0.802802
0.848954
0.864918
0.913344
0.962149
0.975762
1.04047
1.06126
1.1662
1.32035
1.34875
1.32552
1.23661
0.956644
0.735309
0.705656
0.622573
0.606891
0.573796
0.607539
0.611276
0.603744
0.610141
0.604061
0.617659
0.614713
0.642046
0.6474
0.686003
0.693791
0.721008
0.725624
0.736024
0.735244
0.728718
0.702285
0.697237
0.671201
0.665335
0.639065
0.633512
0.609397
0.604329
0.583392
0.578578
0.561424
0.556865
0.544127
0.532777
0.530155
0.523128
0.521696
0.51939
0.5187
0.522379
0.530051
0.533529
0.549579
0.554265
0.579705
0.584128
0.619511
0.655234
0.669309
0.714609
0.724749
0.780439
0.787172
0.85038
0.906618
0.920978
0.995236
1.00702
1.11833
1.34667
1.39977
1.57055
1.51287
1.32379
1.02473
0.954751
0.775924
0.77348
0.686948
0.590576
0.59282
0.587299
0.591926
0.587677
0.599106
0.598056
0.623924
0.62997
0.667902
0.676671
0.705294
0.710851
0.727294
0.725477
0.725454
0.704836
0.697457
0.670937
0.665847
0.639226
0.6344
0.609448
0.605469
0.583097
0.579668
0.560516
0.55758
0.542767
0.530665
0.528486
0.519766
0.519232
0.514192
0.515597
0.515004
0.522741
0.524652
0.539186
0.544329
0.565687
0.574645
0.603275
0.640088
0.651935
0.69578
0.709844
0.76104
0.777385
0.834573
0.890023
0.908015
0.978898
0.99976
1.10164
1.32701
1.38613
1.61427
1.55105
1.41766
1.08846
1.0214
0.81928
0.803733
0.717929
0.541613
0.54578
0.539266
0.544928
0.539299
0.550968
0.547549
0.570619
0.574147
0.610511
0.6162
0.648747
0.651571
0.67634
0.67703
0.689936
0.681611
0.683329
0.661664
0.659033
0.637391
0.633104
0.610959
0.606458
0.58554
0.581102
0.562755
0.5582
0.543153
0.528636
0.525534
0.514101
0.511677
0.503901
0.501552
0.499082
0.496931
0.499721
0.504159
0.506703
0.520711
0.521269
0.547839
0.567715
0.583074
0.61605
0.624494
0.676305
0.677009
0.745669
0.797144
0.816353
0.892583
0.899517
1.01022
1.21148
1.27393
1.65347
1.69718
1.75743
1.52833
1.41586
1.09493
1.09771
0.896884
0.528452
0.530331
0.526337
0.529672
0.526552
0.535177
0.534571
0.554868
0.560237
0.59274
0.601197
0.630423
0.637741
0.660019
0.664733
0.678753
0.676768
0.679463
0.6631
0.658334
0.637501
0.633351
0.611545
0.607098
0.585942
0.581684
0.562725
0.558479
0.542603
0.52803
0.524779
0.512623
0.510398
0.500762
0.499679
0.490971
0.492711
0.491573
0.4969
0.498643
0.508656
0.513388
0.523553
0.554968
0.561905
0.597209
0.607256
0.648927
0.663698
0.712714
0.775004
0.792776
0.865871
0.884252
0.972518
1.17564
1.23225
1.63422
1.69068
1.96409
1.61491
1.51268
1.16021
1.13762
0.946075
0.518959
0.521474
0.516931
0.520847
0.517335
0.526281
0.525425
0.544684
0.550092
0.580763
0.59021
0.617861
0.626989
0.647859
0.655326
0.668036
0.670258
0.67188
0.663009
0.659741
0.636761
0.632519
0.611587
0.607533
0.586544
0.582657
0.563467
0.559673
0.543595
0.528038
0.525444
0.512571
0.510768
0.500526
0.499658
0.492927
0.49091
0.490401
0.493366
0.495241
0.503196
0.508973
0.522386
0.547493
0.55299
0.58483
0.59599
0.633394
0.653596
0.697602
0.758056
0.775757
0.842927
0.871395
0.956581
1.14909
1.20474
1.58461
1.66782
1.92157
1.70166
1.61597
1.26273
1.19255
1.01088
0.479885
0.48197
0.478311
0.481349
0.478387
0.485495
0.484441
0.499934
0.504011
0.529922
0.53705
0.562667
0.569689
0.592714
0.598674
0.616633
0.628142
0.633165
0.634475
0.635889
0.627722
0.623545
0.607673
0.603751
0.587035
0.582177
0.565392
0.560162
0.545104
0.529639
0.525618
0.512687
0.509456
0.498441
0.495593
0.487202
0.480948
0.478753
0.476588
0.475862
0.477601
0.478333
0.484808
0.497803
0.501185
0.522154
0.527568
0.555601
0.563824
0.603034
0.652679
0.666484
0.728702
0.743511
0.823454
0.964166
1.00709
1.37288
1.50196
1.98604
2.049
2.01465
1.73437
1.66967
1.35013
0.470444
0.47133
0.468924
0.470921
0.469015
0.474794
0.47474
0.489059
0.493092
0.517519
0.524395
0.549497
0.556656
0.57991
0.586355
0.605325
0.61708
0.623644
0.626586
0.630089
0.624701
0.623986
0.608063
0.603462
0.586956
0.582905
0.565595
0.561306
0.545425
0.529514
0.526487
0.512304
0.510139
0.497685
0.496003
0.486322
0.479157
0.477532
0.473684
0.473607
0.473027
0.475078
0.478208
0.490005
0.492527
0.510796
0.517139
0.540761
0.553211
0.584354
0.632042
0.646288
0.703503
0.72531
0.796482
0.927777
0.969873
1.31065
1.4545
1.9897
2.10418
2.09929
1.84055
1.75776
1.42938
0.438293
0.440388
0.43692
0.439821
0.436871
0.442931
0.441153
0.453234
0.455362
0.47641
0.480337
0.503155
0.506428
0.530052
0.53215
0.55481
0.566926
0.576141
0.584457
0.590899
0.593441
0.596087
0.592663
0.591325
0.579704
0.576473
0.564315
0.560063
0.546703
0.531794
0.528356
0.51458
0.51148
0.499202
0.4962
0.486081
0.476474
0.474786
0.467938
0.466629
0.463029
0.461647
0.46253
0.463892
0.466664
0.474235
0.476253
0.492795
0.492701
0.521544
0.548148
0.559055
0.603656
0.607488
0.677017
0.754317
0.78657
1.02851
1.09701
1.66353
2.1086
2.21709
2.25541
2.2144
1.94538
0.430129
0.430878
0.428903
0.430453
0.428992
0.433232
0.433097
0.443302
0.446504
0.464312
0.469934
0.488898
0.495405
0.514124
0.521261
0.53841
0.555652
0.560815
0.573375
0.578594
0.58522
0.588089
0.588527
0.588119
0.581071
0.575501
0.565225
0.560122
0.547985
0.53279
0.529216
0.515054
0.512001
0.498949
0.496391
0.485101
0.476221
0.473718
0.466638
0.465249
0.460218
0.459777
0.456819
0.459653
0.459584
0.466483
0.468819
0.47849
0.485244
0.499904
0.53159
0.5396
0.575985
0.590901
0.632883
0.721236
0.74556
0.942773
1.05236
1.49567
2.06733
2.20148
2.42519
2.27685
2.10971
0.424818
0.425866
0.423792
0.425553
0.423927
0.428318
0.428064
0.437915
0.440759
0.457798
0.463126
0.481644
0.487801
0.506616
0.513273
0.530865
0.548163
0.553134
0.565787
0.57007
0.578445
0.581692
0.582551
0.583771
0.578993
0.577132
0.564078
0.559684
0.547389
0.532921
0.529637
0.515533
0.512752
0.499543
0.497223
0.486053
0.476038
0.474175
0.466259
0.465299
0.459559
0.459473
0.456883
0.457652
0.458205
0.463157
0.465744
0.474936
0.481274
0.496407
0.52249
0.53046
0.564298
0.579999
0.624058
0.7012
0.724954
0.910259
1.01387
1.44829
2.00598
2.14549
2.41345
2.32107
2.21139
0.397513
0.398735
0.396716
0.398488
0.39686
0.400757
0.400076
0.407942
0.409986
0.423569
0.427313
0.442326
0.44636
0.462491
0.466662
0.483198
0.498124
0.503955
0.517274
0.522442
0.533552
0.538059
0.546155
0.548219
0.551943
0.552335
0.55115
0.548416
0.540844
0.530638
0.528213
0.51711
0.513964
0.50259
0.499124
0.488396
0.477784
0.474661
0.465843
0.463543
0.456488
0.454661
0.450056
0.446833
0.446129
0.446382
0.446383
0.450186
0.450868
0.460077
0.473332
0.477298
0.498234
0.503434
0.535036
0.579488
0.593613
0.69347
0.732797
1.03183
1.60185
1.76541
2.34185
2.41901
2.61653
0.392153
0.392499
0.39144
0.392381
0.391644
0.394462
0.394703
0.40173
0.403983
0.416212
0.420095
0.433735
0.438452
0.452771
0.458349
0.472113
0.488573
0.493061
0.507819
0.512122
0.52464
0.528437
0.537873
0.541183
0.546034
0.546972
0.548997
0.546616
0.543615
0.530689
0.529144
0.517631
0.514938
0.503348
0.500143
0.488761
0.47846
0.474989
0.465808
0.463591
0.455503
0.454272
0.447205
0.444989
0.44384
0.443247
0.443516
0.445028
0.447402
0.451761
0.4652
0.468384
0.485629
0.493772
0.513526
0.559999
0.57091
0.653505
0.702346
0.899792
1.48564
1.64054
2.31651
2.38486
2.77316
0.387329
0.388472
0.386737
0.388333
0.386949
0.390441
0.390039
0.396876
0.398837
0.410501
0.414442
0.427246
0.432031
0.445655
0.451264
0.464969
0.481842
0.485076
0.500123
0.503564
0.516344
0.519971
0.528982
0.532388
0.53794
0.540922
0.541234
0.542596
0.539165
0.531549
0.528318
0.516697
0.514291
0.503374
0.50071
0.48993
0.478682
0.476347
0.466381
0.464602
0.456171
0.454922
0.448753
0.444169
0.443737
0.441846
0.442476
0.443325
0.445602
0.450392
0.4607
0.464301
0.479575
0.487807
0.509625
0.548547
0.559692
0.637194
0.680707
0.902891
1.39836
1.54911
2.14375
2.30148
2.64807
0.364
0.364889
0.363687
0.364994
0.364105
0.366828
0.366648
0.372029
0.373726
0.382695
0.385682
0.395552
0.39904
0.409724
0.41376
0.425069
0.43799
0.441646
0.45462
0.45832
0.470948
0.474688
0.485671
0.489139
0.497766
0.500826
0.507497
0.509496
0.512517
0.512805
0.513314
0.509775
0.50764
0.500648
0.498083
0.49119
0.481778
0.479201
0.46989
0.467132
0.458459
0.455806
0.448287
0.442076
0.439708
0.435535
0.434309
0.431771
0.431683
0.432099
0.436268
0.437039
0.444732
0.447629
0.459668
0.481054
0.486301
0.523341
0.5402
0.637887
0.943185
1.02818
1.59133
1.81446
2.43297
0.359946
0.36046
0.359658
0.360605
0.360043
0.362324
0.36243
0.367479
0.368999
0.377522
0.38013
0.389757
0.392885
0.403367
0.407073
0.418152
0.430333
0.434244
0.446606
0.450479
0.462815
0.466579
0.477844
0.481234
0.490677
0.493435
0.500618
0.502778
0.508001
0.508484
0.5098
0.507776
0.507239
0.502239
0.49904
0.491531
0.482131
0.480188
0.470502
0.468274
0.459015
0.456884
0.448666
0.44197
0.439944
0.434742
0.434051
0.430194
0.430878
0.429825
0.432563
0.433983
0.439705
0.443562
0.453242
0.471644
0.477243
0.509101
0.52654
0.605584
0.872075
0.950476
1.47895
1.71058
2.35784
0.339675
0.340866
0.339528
0.341087
0.339968
0.342726
0.342065
0.346692
0.3475
0.355046
0.356554
0.364817
0.366183
0.375479
0.376678
0.387108
0.395757
0.400016
0.409093
0.413307
0.423121
0.427022
0.437034
0.440062
0.450076
0.451912
0.461573
0.462054
0.470684
0.474739
0.477853
0.47923
0.48095
0.481643
0.48121
0.48028
0.473595
0.473271
0.467318
0.466369
0.459892
0.458291
0.451522
0.444503
0.442625
0.436292
0.434683
0.429604
0.428068
0.425253
0.422983
0.422966
0.424278
0.423935
0.430139
0.436992
0.440507
0.457109
0.459748
0.505067
0.616938
0.652035
0.985282
1.05414
1.69778
0.335076
0.335674
0.334998
0.33596
0.335509
0.337488
0.337561
0.341492
0.342823
0.34908
0.351263
0.357959
0.360556
0.367655
0.37079
0.378302
0.387958
0.390311
0.400615
0.403172
0.41393
0.416842
0.427175
0.430367
0.439668
0.443106
0.45095
0.454442
0.460773
0.466624
0.468713
0.47303
0.474156
0.475936
0.476514
0.476862
0.474088
0.473608
0.467406
0.466431
0.461073
0.458834
0.453582
0.445977
0.444288
0.437315
0.435513
0.429516
0.428094
0.423608
0.421354
0.420698
0.41993
0.421152
0.422359
0.430467
0.432353
0.444344
0.451323
0.476258
0.572982
0.600122
0.832101
0.978413
1.43611
0.332821
0.333358
0.332745
0.333671
0.333209
0.335126
0.335189
0.339097
0.340225
0.346343
0.348223
0.355008
0.357192
0.364561
0.3671
0.375019
0.383968
0.386745
0.396118
0.399072
0.409008
0.412129
0.422063
0.425214
0.434658
0.437794
0.446252
0.449277
0.456227
0.461894
0.463968
0.467645
0.469404
0.472152
0.472813
0.473549
0.472299
0.472199
0.468482
0.466873
0.460715
0.458393
0.452822
0.445962
0.444306
0.437594
0.435975
0.429973
0.428604
0.424201
0.421168
0.420661
0.419557
0.420456
0.422135
0.427893
0.430066
0.441125
0.447241
0.473853
0.556432
0.582788
0.806137
0.92707
1.37863
0.314834
0.315629
0.314787
0.31587
0.315207
0.317267
0.316965
0.320399
0.321172
0.326599
0.327928
0.333662
0.334957
0.341163
0.342445
0.349262
0.355808
0.358316
0.365318
0.367921
0.375658
0.37831
0.386445
0.388915
0.397325
0.399442
0.407966
0.409555
0.417853
0.423852
0.426588
0.431613
0.433535
0.437969
0.439181
0.44331
0.444278
0.446529
0.446889
0.447815
0.447215
0.446945
0.444321
0.439976
0.439616
0.435544
0.434716
0.430463
0.429241
0.425199
0.421118
0.420032
0.417111
0.416173
0.415034
0.41513
0.415394
0.419049
0.419792
0.431409
0.460865
0.470299
0.56443
0.592093
0.856166
0.311563
0.311886
0.311519
0.312138
0.311923
0.313352
0.31357
0.316591
0.317666
0.322363
0.324014
0.328911
0.330864
0.335796
0.338204
0.343167
0.350214
0.3516
0.35927
0.360907
0.369087
0.371111
0.3793
0.381751
0.389523
0.392536
0.399408
0.403142
0.409188
0.416798
0.418556
0.424696
0.426429
0.43121
0.432942
0.436364
0.439911
0.441001
0.442311
0.443223
0.444054
0.444019
0.444014
0.4402
0.4396
0.43574
0.434802
0.431743
0.42952
0.426796
0.421764
0.420713
0.4172
0.416154
0.413632
0.413442
0.413095
0.414555
0.416674
0.420547
0.446997
0.453605
0.514172
0.56198
0.713269
0.309522
0.310011
0.30946
0.310193
0.309785
0.311437
0.311451
0.314517
0.31537
0.320029
0.32147
0.326475
0.328093
0.333389
0.335207
0.340819
0.347385
0.349114
0.356002
0.357954
0.36538
0.367605
0.375292
0.37773
0.38545
0.388121
0.39559
0.398504
0.405354
0.412346
0.414311
0.420068
0.421905
0.426675
0.428457
0.43208
0.435342
0.436534
0.438882
0.439649
0.440418
0.441133
0.440739
0.439604
0.439267
0.435622
0.434573
0.43031
0.428874
0.42535
0.421292
0.420389
0.41699
0.416193
0.414036
0.413034
0.412954
0.414383
0.415675
0.422188
0.443048
0.45002
0.512788
0.545516
0.717634
0.294112
0.294605
0.294095
0.294836
0.294484
0.295902
0.295835
0.298421
0.299177
0.303231
0.304445
0.308701
0.309953
0.314403
0.315706
0.320408
0.325374
0.326979
0.332198
0.333896
0.33963
0.341465
0.347526
0.34945
0.35575
0.35774
0.364192
0.366172
0.372626
0.378749
0.380779
0.386362
0.388186
0.393404
0.395027
0.399775
0.403831
0.405572
0.408959
0.410462
0.413137
0.414268
0.416656
0.417529
0.418695
0.419158
0.419433
0.419237
0.418953
0.41732
0.414916
0.414654
0.412795
0.412222
0.410576
0.408861
0.40853
0.407974
0.407768
0.409311
0.415303
0.417193
0.437943
0.446555
0.511135
0.291918
0.292113
0.291877
0.292327
0.292216
0.293312
0.29355
0.295802
0.296539
0.300519
0.301716
0.305785
0.307112
0.3113
0.312801
0.317065
0.321796
0.323291
0.328401
0.3299
0.335562
0.33717
0.343186
0.344959
0.35113
0.353173
0.359261
0.361694
0.367437
0.37365
0.375434
0.381253
0.382933
0.38836
0.390068
0.394871
0.399129
0.400756
0.404488
0.405747
0.408998
0.409955
0.412612
0.414441
0.415363
0.415906
0.416525
0.417062
0.416926
0.417173
0.414801
0.414043
0.412496
0.411573
0.410853
0.408398
0.408213
0.40742
0.407088
0.407914
0.412319
0.413662
0.4282
0.438836
0.479225
0.289287
0.289864
0.289244
0.290047
0.289556
0.291068
0.290863
0.283942
0.283791
0.297014
0.298826
0.302689
0.304037
0.308009
0.309537
0.31363
0.318988
0.319765
0.325147
0.326173
0.331808
0.333198
0.338925
0.340691
0.346416
0.348618
0.354222
0.356883
0.36218
0.368904
0.370094
0.375845
0.377498
0.382466
0.384691
0.388763
0.394361
0.394823
0.399073
0.400182
0.403165
0.404941
0.406636
0.409435
0.409682
0.41145
0.412175
0.412258
0.413626
0.413033
0.412936
0.413037
0.411342
0.411162
0.408862
0.406848
0.406245
0.405443
0.405733
0.406285
0.410514
0.411832
0.426195
0.433478
0.478049
0.277336
0.277625
0.277373
0.277821
0.27766
0.27862
0.278695
0.280241
0.280901
0.284291
0.28541
0.288546
0.289788
0.293003
0.294421
0.297704
0.301745
0.302795
0.307018
0.30811
0.312611
0.313842
0.318439
0.319889
0.324467
0.326261
0.330699
0.332919
0.337223
0.342651
0.343928
0.348993
0.35046
0.35508
0.356912
0.360932
0.365811
0.367003
0.371552
0.37285
0.376705
0.378216
0.381196
0.384498
0.38544
0.388049
0.388992
0.39074
0.391685
0.392982
0.394626
0.395133
0.395843
0.396376
0.39673
0.39705
0.397168
0.39672
0.396103
0.396681
0.397856
0.398408
0.402831
0.405454
0.418014
0.275467
0.27579
0.275487
0.275991
0.275789
0.276843
0.276877
0.278781
0.279321
0.282265
0.283178
0.286348
0.287373
0.290713
0.291842
0.295339
0.299232
0.300321
0.30429
0.305458
0.309673
0.310951
0.315351
0.316737
0.321303
0.322846
0.327527
0.329273
0.333932
0.338962
0.34039
0.345135
0.346602
0.35124
0.352844
0.357245
0.361913
0.363222
0.367441
0.368799
0.372675
0.374116
0.377456
0.380731
0.381736
0.384274
0.385239
0.387208
0.388206
0.389634
0.390869
0.391597
0.39262
0.393415
0.393873
0.394616
0.394993
0.395484
0.396048
0.396104
0.396817
0.397115
0.400519
0.402349
0.414295
0.265083
0.2654
0.265118
0.265581
0.265371
0.266248
0.266225
0.267846
0.268342
0.270857
0.271636
0.274306
0.275121
0.277938
0.278802
0.281793
0.284982
0.286006
0.289294
0.290361
0.29388
0.295002
0.298651
0.299807
0.303569
0.304772
0.308648
0.309894
0.313867
0.31791
0.319178
0.3231
0.324336
0.328286
0.329533
0.33348
0.337432
0.338835
0.342716
0.344033
0.347817
0.34908
0.352654
0.356005
0.357326
0.360358
0.361478
0.364162
0.365082
0.367543
0.369613
0.370529
0.37214
0.372772
0.374177
0.375254
0.376087
0.377099
0.377478
0.378669
0.379898
0.380584
0.38264
0.383542
0.387978
0.26343
0.263624
0.263478
0.263853
0.263779
0.264531
0.264643
0.266166
0.266644
0.268987
0.26972
0.272277
0.273103
0.275783
0.276711
0.279535
0.282511
0.283563
0.286726
0.28778
0.29121
0.292278
0.295886
0.296977
0.300692
0.301871
0.305622
0.306985
0.31066
0.314564
0.315766
0.319656
0.320821
0.324752
0.32602
0.329838
0.333714
0.335031
0.338927
0.340149
0.344033
0.345292
0.348894
0.352275
0.353522
0.356682
0.357727
0.360681
0.36167
0.364189
0.366328
0.367177
0.369081
0.369684
0.371257
0.372267
0.372826
0.373837
0.374331
0.375711
0.376826
0.377377
0.379494
0.380574
0.384286
0.254883
0.255261
0.254946
0.255425
0.255155
0.255994
0.255871
0.257295
0.257589
0.259808
0.260304
0.262633
0.263107
0.265587
0.266048
0.268711
0.271245
0.272169
0.274794
0.275733
0.27861
0.279549
0.28262
0.283493
0.286761
0.287532
0.291011
0.291643
0.295311
0.298479
0.299631
0.302793
0.303734
0.307138
0.307838
0.311507
0.314566
0.316005
0.319189
0.32034
0.323824
0.32459
0.328332
0.331184
0.332725
0.335641
0.336666
0.339809
0.340236
0.343626
0.345881
0.347037
0.349336
0.349734
0.352195
0.353457
0.354443
0.355811
0.355967
0.357654
0.358383
0.359191
0.360539
0.360682
0.363444
0.253186
0.253365
0.25327
0.253554
0.253514
0.254095
0.254223
0.255454
0.255895
0.257787
0.258437
0.260431
0.261189
0.263201
0.26411
0.266063
0.268734
0.269383
0.272178
0.272883
0.275864
0.27666
0.279724
0.280627
0.283674
0.284746
0.287641
0.288998
0.291573
0.295137
0.295973
0.299262
0.300172
0.303303
0.304454
0.307066
0.310764
0.311592
0.315188
0.316149
0.319504
0.320731
0.323381
0.327115
0.328012
0.331374
0.332377
0.335236
0.336537
0.338896
0.341893
0.342757
0.345164
0.346103