/*--------------------------------*- C++ -*----------------------------------*\
| =========                 |                                                 |
| \\      /  F ield         | OpenFOAM: The Open Source CFD Toolbox           |
|  \\    /   O peration     | Version:  v2012                                 |
|   \\  /    A nd           | Website:  www.openfoam.com                      |
|    \\/     M anipulation  |                                                 |
\*---------------------------------------------------------------------------*/
FoamFile
{
    version     2.0;
    format      ascii;
    class       volScalarField;
    location    "1e-06";
    object      kMean;
}
// * * * * * * * * * * * * * * * * * * * * * * * * * * * * * * * * * * * * * //

dimensions      [0 2 -2 0 0 0 0];


internalField   nonuniform List<scalar> 
10302
(
2.31949
2.40479
2.37134
2.32016
2.2664
2.03194
1.96705
1.68363
1.67812
1.57239
1.58954
1.56381
1.55042
1.49825
1.47472
1.51211
1.31464
1.41649
1.20397
1.17462
1.08946
1.06972
1.07296
1.07687
1.00812
0.985432
0.823068
0.794226
0.681658
0.598907
0.578482
0.493246
0.46929
0.27804
0.259601
0.119725
0.156257
0.152926
0.208678
0.217805
0.163911
0.160779
0.13751
0.0722675
0.0531386
0.0502103
0.0488444
0.0466104
0.0411852
0.0414209
0.0512728
0.0532332
0.065024
0.0621465
0.0534699
0.0620712
0.0611043
0.021419
0.0189148
0.00530114
0.0201515
0.0215027
0.0350833
0.031202
0.0411042
2.10259
2.21153
2.14476
2.13966
2.06812
1.8742
1.80357
1.52603
1.50485
1.40441
1.39446
1.36619
1.34351
1.30311
1.2707
1.14536
1.12457
1.06919
1.04848
1.06223
0.965326
0.967826
0.960788
0.96176
0.912379
0.891287
0.76309
0.736705
0.588226
0.587667
0.586044
0.553509
0.540227
0.354385
0.343804
0.248402
0.231485
0.213258
0.263615
0.261753
0.18783
0.18154
0.126766
0.0986605
0.0867474
0.0950018
0.0931608
0.0861233
0.0878134
0.0779525
0.0973184
0.0961615
0.112875
0.11774
0.143958
0.10058
0.0926505
0.0404823
0.0391647
0.022267
0.0410126
0.0424061
0.0611726
0.0637606
0.0686675
1.78686
1.85055
1.80828
1.81601
1.76897
1.63194
1.58067
1.35802
1.32782
1.20877
1.19204
1.15878
1.13223
1.10564
1.07058
1.00262
0.967667
0.980668
0.915344
0.920204
0.865634
0.863608
0.845353
0.84172
0.815232
0.802791
0.733462
0.715943
0.621157
0.634588
0.631094
0.613944
0.603826
0.499244
0.490658
0.357238
0.35371
0.326032
0.345217
0.337605
0.254547
0.250082
0.181711
0.174771
0.159857
0.17238
0.169949
0.154659
0.160418
0.139461
0.167279
0.165887
0.186723
0.193926
0.195093
0.153563
0.142374
0.0722099
0.0717121
0.0457317
0.0758927
0.0776534
0.103264
0.108278
0.113957
1.7292
1.78982
1.74982
1.76266
1.71939
1.58912
1.54672
1.26459
1.30987
1.17777
1.17929
1.12048
1.12238
1.06212
1.06345
0.99798
0.959159
0.948927
0.907353
0.903164
0.859203
0.857775
0.837694
0.838453
0.808179
0.802248
0.739527
0.718419
0.625915
0.635686
0.638019
0.620467
0.612951
0.52067
0.498921
0.389925
0.359208
0.355148
0.352242
0.347875
0.268276
0.255055
0.192472
0.178645
0.175876
0.178853
0.175709
0.171412
0.16344
0.160383
0.171187
0.171565
0.197846
0.196996
0.224178
0.156056
0.146189
0.0768618
0.0727972
0.0558812
0.0774206
0.0799736
0.110201
0.109513
0.123893
1.55261
1.5902
1.55989
1.58062
1.54874
1.46534
1.43082
1.24635
1.23364
1.09909
1.09222
1.03039
1.02483
0.976059
0.970606
0.92199
0.890862
0.880741
0.853653
0.851644
0.824593
0.823535
0.809676
0.809367
0.794575
0.79166
0.760948
0.747104
0.69189
0.680754
0.676079
0.689031
0.686589
0.622766
0.609093
0.52743
0.481556
0.465069
0.459483
0.451475
0.371804
0.361182
0.29676
0.279284
0.268964
0.271077
0.266438
0.248382
0.244907
0.226284
0.240746
0.23975
0.261133
0.260688
0.269103
0.19847
0.187361
0.11209
0.109218
0.0860295
0.113994
0.116438
0.147588
0.149366
0.160952
1.41303
1.42931
1.40659
1.42635
1.40276
1.36382
1.336
1.19982
1.17877
1.05288
1.03896
0.971551
0.958649
0.916187
0.901781
0.872208
0.833949
0.8365
0.805436
0.807237
0.787636
0.787696
0.780939
0.779358
0.777706
0.773987
0.767684
0.758515
0.725013
0.71379
0.705334
0.713883
0.711484
0.689977
0.683473
0.617683
0.589709
0.563181
0.560253
0.55046
0.483248
0.477949
0.398502
0.392246
0.371517
0.374883
0.368728
0.333251
0.336632
0.295852
0.312435
0.308581
0.317853
0.320163
0.308066
0.24141
0.228258
0.147363
0.146166
0.115866
0.148938
0.150986
0.180183
0.184381
0.192027
1.37762
1.39359
1.37205
1.39108
1.3699
1.33924
1.31663
1.18844
1.17228
1.04425
1.03605
0.959001
0.955018
0.901171
0.898648
0.858246
0.828221
0.822755
0.799713
0.797557
0.781954
0.782911
0.774891
0.777475
0.771983
0.774043
0.766712
0.760602
0.740709
0.71481
0.712738
0.714377
0.714988
0.699357
0.689394
0.646137
0.595462
0.589144
0.568949
0.563807
0.504504
0.487727
0.422222
0.399842
0.396637
0.387037
0.3801
0.35759
0.34329
0.320284
0.319427
0.317836
0.329471
0.324655
0.323999
0.245251
0.233732
0.153728
0.148214
0.125802
0.151334
0.154323
0.186899
0.186207
0.200067
1.27856
1.28867
1.26878
1.28525
1.26829
1.26188
1.24149
1.15017
1.13417
1.02297
1.00953
0.931164
0.921129
0.866907
0.858693
0.815933
0.789208
0.779302
0.762624
0.761816
0.748659
0.748952
0.745589
0.745515
0.748915
0.747953
0.755564
0.751316
0.756227
0.736813
0.732799
0.732937
0.731108
0.736283
0.732061
0.724233
0.68294
0.669122
0.659599
0.651807
0.610627
0.600401
0.545431
0.517542
0.503012
0.501394
0.493247
0.458083
0.452412
0.404816
0.403634
0.397735
0.392461
0.390252
0.376004
0.291368
0.277169
0.190473
0.187282
0.158151
0.186222
0.18824
0.217075
0.219223
0.227954
1.25106
1.25979
1.24193
1.25841
1.24068
1.23732
1.22154
1.11058
1.09164
1.01561
1.00733
0.924399
0.918741
0.858839
0.856291
0.810648
0.784437
0.775168
0.757435
0.753075
0.742708
0.742925
0.738571
0.742042
0.740771
0.746445
0.7472
0.751411
0.747452
0.73614
0.73652
0.733072
0.734326
0.739936
0.736198
0.727383
0.687056
0.688766
0.666984
0.664525
0.630182
0.610362
0.572556
0.524974
0.528755
0.515075
0.507054
0.489563
0.461258
0.435552
0.412974
0.410757
0.408824
0.396755
0.390498
0.296346
0.284375
0.198344
0.190145
0.169197
0.189173
0.192397
0.224276
0.221392
0.235794
1.16185
1.16883
1.15402
1.16399
1.14878
1.15895
1.1447
1.09807
1.08519
0.998484
0.987215
0.908961
0.899911
0.840269
0.833611
0.786392
0.757213
0.747388
0.727877
0.725035
0.711756
0.712065
0.707302
0.709309
0.711496
0.714511
0.723151
0.726297
0.739005
0.736779
0.73779
0.739562
0.740517
0.753454
0.754874
0.768034
0.748354
0.744136
0.739478
0.735545
0.718995
0.709841
0.669428
0.640758
0.629934
0.630166
0.62404
0.603357
0.590265
0.539828
0.523211
0.514335
0.49474
0.487025
0.451084
0.356441
0.339647
0.242546
0.237325
0.201969
0.22706
0.228699
0.255302
0.256074
0.263652
1.07374
1.08215
1.06322
1.07418
1.05989
1.0779
1.06485
1.05388
1.04295
0.978677
0.965274
0.896924
0.884746
0.828478
0.816935
0.774249
0.735882
0.731664
0.702407
0.701146
0.681975
0.681834
0.674125
0.673363
0.677062
0.674492
0.68974
0.685016
0.707609
0.710555
0.716908
0.722829
0.724034
0.743592
0.743261
0.764654
0.769988
0.769417
0.778862
0.776483
0.779466
0.777551
0.742177
0.736601
0.71589
0.72749
0.724403
0.710979
0.714891
0.653176
0.653324
0.637252
0.604649
0.607132
0.533108
0.439748
0.414652
0.299678
0.299149
0.244006
0.268849
0.268362
0.288067
0.29315
0.292047
1.05332
1.05448
1.03925
1.04971
1.03706
1.05461
1.04521
1.03856
1.03305
0.973547
0.963285
0.893721
0.884541
0.825076
0.816879
0.768742
0.733353
0.724727
0.698959
0.695702
0.677267
0.677014
0.667608
0.669383
0.66832
0.671452
0.67898
0.682902
0.697544
0.705165
0.710406
0.717453
0.721811
0.738369
0.742951
0.769613
0.769057
0.773944
0.780068
0.78203
0.78789
0.783996
0.772713
0.743145
0.736105
0.737711
0.735982
0.737595
0.724599
0.693313
0.669013
0.658088
0.633727
0.620361
0.56132
0.451321
0.429728
0.31427
0.305421
0.253937
0.273738
0.274399
0.296693
0.296372
0.30119
0.97405
0.979054
0.964684
0.975081
0.962257
0.985148
0.972621
0.986617
0.981805
0.951822
0.939229
0.883772
0.872218
0.81862
0.807625
0.763112
0.72367
0.716909
0.685558
0.681827
0.658963
0.657095
0.64398
0.642535
0.639993
0.637834
0.646672
0.643472
0.662374
0.6684
0.676044
0.685895
0.688657
0.710971
0.710675
0.741596
0.756652
0.765816
0.7844
0.787498
0.811143
0.811162
0.81395
0.811617
0.799294
0.809283
0.807309
0.816889
0.822651
0.797142
0.80114
0.787571
0.767016
0.767376
0.68964
0.58076
0.545728
0.400132
0.397255
0.312565
0.323644
0.320837
0.333877
0.338693
0.33313
0.950886
0.956073
0.942653
0.952047
0.943563
0.960534
0.952983
0.972171
0.96823
0.945717
0.936229
0.880822
0.871485
0.816238
0.807723
0.760306
0.722253
0.713056
0.683296
0.678712
0.655623
0.653791
0.639008
0.639291
0.632752
0.634822
0.636738
0.640828
0.650738
0.66169
0.666883
0.678091
0.683199
0.70187
0.707749
0.736658
0.752163
0.760684
0.780723
0.78682
0.811143
0.813553
0.83583
0.815677
0.813943
0.816888
0.816885
0.83298
0.830333
0.829727
0.816191
0.808643
0.799762
0.783011
0.72655
0.600423
0.571577
0.42354
0.408082
0.328905
0.330314
0.328896
0.344076
0.34282
0.343404
0.87743
0.883618
0.869908
0.880615
0.868445
0.889831
0.880626
0.910112
0.909886
0.91152
0.904163
0.866672
0.855972
0.810611
0.79996
0.757159
0.717442
0.709934
0.676887
0.671645
0.645163
0.641797
0.623297
0.620822
0.611376
0.608757
0.609825
0.60637
0.618221
0.62145
0.628444
0.637457
0.640606
0.661946
0.661291
0.693865
0.712253
0.726427
0.751445
0.75856
0.795509
0.797255
0.830675
0.842543
0.84343
0.858008
0.857803
0.879077
0.88587
0.895375
0.917107
0.912121
0.92554
0.933694
0.89179
0.810377
0.760542
0.560968
0.554453
0.410032
0.397172
0.389551
0.389916
0.395268
0.382041
0.855787
0.860727
0.849071
0.860758
0.848048
0.867161
0.861554
0.891064
0.893232
0.900154
0.896311
0.86375
0.853889
0.808924
0.799809
0.755487
0.716975
0.708402
0.675777
0.670245
0.643249
0.640048
0.620056
0.618749
0.60611
0.606491
0.601423
0.604014
0.605463
0.614674
0.618634
0.628754
0.633561
0.650821
0.656492
0.682024
0.705286
0.714782
0.743372
0.752061
0.787614
0.794922
0.838034
0.84183
0.848523
0.860838
0.863482
0.887713
0.890969
0.913843
0.92625
0.926897
0.950886
0.94684
0.966658
0.842845
0.804423
0.598637
0.573329
0.424303
0.40699
0.401003
0.402695
0.400863
0.394604
0.783758
0.79071
0.779732
0.788446
0.776989
0.798279
0.7897
0.825223
0.826137
0.852794
0.852011
0.842023
0.831449
0.799927
0.78964
0.752673
0.714623
0.707202
0.67373
0.668055
0.639394
0.635023
0.61224
0.608864
0.593266
0.589987
0.583434
0.579181
0.582465
0.579759
0.585068
0.589194
0.591534
0.60805
0.60638
0.636153
0.650583
0.667897
0.69217
0.701229
0.74269
0.744092
0.795903
0.820296
0.834895
0.861455
0.865526
0.900121
0.904831
0.937702
0.976002
0.978703
1.02699
1.04578
1.08023
1.08616
1.0414
0.820991
0.810569
0.560147
0.505536
0.488314
0.463769
0.471414
0.444063
0.764638
0.7696
0.760378
0.767478
0.759178
0.776847
0.772719
0.805152
0.810035
0.841112
0.840084
0.835832
0.829251
0.798018
0.788691
0.751833
0.715004
0.706412
0.673674
0.667538
0.638753
0.634161
0.610563
0.607527
0.589728
0.5882
0.576356
0.577005
0.570194
0.574236
0.575664
0.581158
0.583954
0.596071
0.600268
0.616983
0.642861
0.651101
0.681535
0.6899
0.728813
0.73689
0.783157
0.813872
0.825903
0.856609
0.86274
0.900472
0.90446
0.943795
0.977085
0.982757
1.03672
1.05015
1.1559
1.11846
1.09318
0.877269
0.836353
0.585264
0.518809
0.503922
0.479944
0.477526
0.46012
0.747299
0.75599
0.742798
0.75235
0.743303
0.761694
0.757943
0.740752
0.794538
0.823681
0.831582
0.826965
0.825746
0.795582
0.787597
0.75107
0.714437
0.706695
0.67344
0.667857
0.638688
0.634486
0.610224
0.607434
0.588666
0.587659
0.574928
0.57613
0.569434
0.570771
0.570556
0.575393
0.578509
0.587398
0.595553
0.608783
0.637355
0.639978
0.672815
0.680442
0.715986
0.730758
0.766787
0.809038
0.816399
0.851726
0.860123
0.89553
0.904856
0.941453
0.978887
0.987022
1.04303
1.05483
1.13168
1.14978
1.14157
0.949627
0.869579
0.655129
0.53421
0.522935
0.499765
0.485075
0.476611
0.681912
0.687443
0.677713
0.685022
0.677972
0.693785
0.690497
0.718894
0.727346
0.765359
0.772722
0.787245
0.785817
0.778047
0.769565
0.744348
0.711907
0.704487
0.673481
0.667156
0.638617
0.633496
0.60864
0.60438
0.583733
0.580449
0.564553
0.562543
0.552394
0.547436
0.54637
0.545536
0.546041
0.550764
0.552696
0.562633
0.581591
0.586497
0.613163
0.61986
0.655081
0.66213
0.704404
0.746095
0.759449
0.804316
0.813195
0.864153
0.870265
0.923269
0.970789
0.980394
1.0482
1.06258
1.17077
1.3118
1.32889
1.24943
1.18534
0.881215
0.702003
0.669082
0.593421
0.590837
0.551934
0.665704
0.668924
0.660518
0.667959
0.661083
0.676666
0.674067
0.704648
0.711042
0.748918
0.756982
0.775855
0.777636
0.772257
0.76724
0.74257
0.711337
0.7044
0.673297
0.667599
0.638458
0.63412
0.608434
0.604927
0.583243
0.580618
0.563646
0.5622
0.550729
0.544025
0.543049
0.540405
0.541589
0.543761
0.547937
0.555884
0.573772
0.577174
0.601918
0.608938
0.640329
0.652845
0.690729
0.734697
0.745432
0.790506
0.803016
0.850022
0.865128
0.913562
0.963568
0.975769
1.04126
1.06118
1.16617
1.32077
1.34748
1.32491
1.23423
0.953699
0.732767
0.703479
0.62129
0.605234
0.572742
0.604697
0.608732
0.600871
0.607692
0.601215
0.615337
0.611847
0.640015
0.644835
0.684615
0.691572
0.719601
0.723639
0.73431
0.732857
0.725905
0.701961
0.697938
0.671529
0.666269
0.639483
0.634504
0.609762
0.605318
0.583669
0.579499
0.561649
0.557653
0.544214
0.532773
0.530561
0.523041
0.521983
0.519203
0.518853
0.522002
0.52951
0.533349
0.548976
0.553949
0.579038
0.5837
0.618615
0.654152
0.668729
0.713708
0.724302
0.779716
0.786992
0.84964
0.905933
0.920827
0.994792
1.00729
1.11765
1.34736
1.40049
1.5734
1.51747
1.32863
1.02885
0.958588
0.777949
0.776032
0.688396
0.590679
0.592991
0.587393
0.592217
0.587828
0.599567
0.598385
0.624945
0.630539
0.669253
0.677295
0.706297
0.711165
0.727611
0.724756
0.723669
0.702188
0.697672
0.671369
0.666649
0.639722
0.635195
0.609964
0.606188
0.583601
0.580295
0.561005
0.558129
0.542995
0.531222
0.528944
0.520289
0.519672
0.514696
0.516039
0.515298
0.523556
0.524989
0.54001
0.544688
0.566495
0.575063
0.603793
0.641423
0.652233
0.697036
0.710149
0.762276
0.777682
0.835065
0.891581
0.908153
0.980218
0.999906
1.10199
1.3292
1.38552
1.61523
1.54878
1.41461
1.08497
1.01833
0.817011
0.800918
0.716142
0.539291
0.543941
0.537002
0.543097
0.537033
0.549258
0.545219
0.569008
0.571954
0.609334
0.614115
0.647632
0.649625
0.675171
0.675497
0.688296
0.678784
0.680656
0.661348
0.659391
0.637578
0.633759
0.611269
0.607192
0.585818
0.581835
0.562951
0.558889
0.543218
0.528667
0.525884
0.514103
0.512002
0.503855
0.501792
0.498931
0.496706
0.499599
0.503718
0.506477
0.520213
0.520861
0.547191
0.566876
0.582309
0.614993
0.623698
0.675355
0.676138
0.744677
0.795926
0.815532
0.891685
0.898974
1.0092
1.21041
1.27269
1.65408
1.70007
1.75907
1.53448
1.42191
1.09853
1.10249
0.899187
0.527998
0.529952
0.525903
0.529324
0.526151
0.534941
0.534225
0.555
0.560058
0.593191
0.601133
0.630825
0.637737
0.660305
0.664616
0.67876
0.675332
0.677862
0.661019
0.658558
0.637689
0.633983
0.611829
0.60777
0.58628
0.582378
0.5631
0.559152
0.542957
0.528451
0.525401
0.513052
0.511009
0.501176
0.500288
0.491218
0.493308
0.492006
0.497498
0.499153
0.509235
0.513989
0.523821
0.555926
0.562326
0.598159
0.607894
0.64983
0.664554
0.71353
0.776391
0.793607
0.867312
0.885355
0.973624
1.17833
1.23338
1.63733
1.6911
1.9681
1.61596
1.51448
1.16064
1.13848
0.946413
0.519087
0.521877
0.517137
0.521314
0.51756
0.526918
0.525828
0.545673
0.550696
0.582075
0.590932
0.619049
0.627679
0.648752
0.655793
0.668341
0.669509
0.670572
0.660333
0.657089
0.636749
0.63306
0.611869
0.608084
0.586843
0.583166
0.563779
0.560115
0.543732
0.528428
0.52583
0.512935
0.511135
0.500891
0.500023
0.493196
0.491463
0.49074
0.493942
0.495569
0.503803
0.509342
0.522927
0.548517
0.553305
0.585833
0.596345
0.634416
0.654057
0.698194
0.759613
0.776002
0.844281
0.871647
0.95718
1.15224
1.20472
1.58535
1.66618
1.9179
1.70071
1.61357
1.25966
1.18861
1.00802
0.478304
0.480546
0.476699
0.479925
0.476792
0.484131
0.482797
0.498655
0.502416
0.52886
0.535453
0.561595
0.568104
0.591672
0.597206
0.615684
0.627103
0.632021
0.632678
0.633996
0.625133
0.622666
0.607746
0.604319
0.587281
0.582926
0.565675
0.560962
0.545304
0.529809
0.526267
0.512835
0.510039
0.498551
0.496106
0.487228
0.480908
0.47903
0.476474
0.476
0.47738
0.478319
0.484382
0.49724
0.500833
0.521485
0.527026
0.554746
0.563088
0.601899
0.651443
0.665519
0.727397
0.742467
0.821723
0.962105
1.00488
1.37137
1.4991
1.98547
2.05213
2.01937
1.74029
1.67716
1.35446
0.470568
0.471525
0.469043
0.471122
0.469174
0.475108
0.475
0.489728
0.493499
0.51848
0.524889
0.550484
0.557178
0.58084
0.586893
0.606141
0.617538
0.623888
0.626172
0.629383
0.622768
0.622067
0.60709
0.603822
0.587234
0.583408
0.565918
0.561794
0.54562
0.529931
0.526932
0.512702
0.510539
0.498068
0.49635
0.486469
0.4796
0.477819
0.474119
0.473879
0.473468
0.475362
0.478444
0.490665
0.492759
0.511494
0.517406
0.541517
0.553572
0.584831
0.633196
0.646546
0.704742
0.725662
0.797226
0.93012
0.969999
1.31304
1.45426
1.98989
2.10399
2.0978
1.83931
1.75475
1.42492
0.437063
0.439406
0.435723
0.438857
0.435663
0.442016
0.439895
0.452333
0.454103
0.475673
0.479035
0.502399
0.505011
0.529302
0.530695
0.554152
0.565936
0.575182
0.583527
0.589955
0.592071
0.594594
0.590511
0.589506
0.579523
0.57677
0.564446
0.560633
0.546887
0.531991
0.5288
0.514743
0.511937
0.499281
0.496669
0.486076
0.476573
0.47496
0.467928
0.466802
0.462943
0.461766
0.462371
0.463687
0.466509
0.473838
0.475951
0.492346
0.492157
0.520948
0.547242
0.558179
0.602625
0.60627
0.675737
0.752343
0.784297
1.02588
1.09279
1.65951
2.10806
2.21606
2.25884
2.22225
1.95038
0.429873
0.430655
0.428668
0.430258
0.428771
0.433099
0.432907
0.443347
0.446395
0.464519
0.469879
0.489097
0.495397
0.514295
0.521314
0.538562
0.55598
0.560721
0.573537
0.578522
0.585003
0.587499
0.587278
0.586628
0.579431
0.575496
0.565427
0.5604
0.548189
0.532959
0.529651
0.515265
0.512449
0.499182
0.496845
0.485319
0.476537
0.474128
0.466959
0.465666
0.460537
0.4602
0.45707
0.460091
0.459903
0.466933
0.469198
0.478874
0.485721
0.500203
0.53234
0.539954
0.576654
0.591474
0.633282
0.722615
0.745924
0.944682
1.05356
1.49631
2.07123
2.20222
2.4302
2.27877
2.11141
0.424967
0.426092
0.423927
0.425802
0.424092
0.42869
0.42833
0.438513
0.44115
0.458615
0.463597
0.482535
0.48832
0.507527
0.513824
0.531732
0.548997
0.553567
0.566383
0.570325
0.578652
0.581597
0.581798
0.582753
0.577093
0.575015
0.563445
0.559909
0.54748
0.533138
0.529982
0.515771
0.513096
0.49981
0.497538
0.486162
0.476362
0.474441
0.466573
0.465534
0.459878
0.459691
0.45704
0.458089
0.458412
0.46362
0.465952
0.475493
0.481525
0.496804
0.523297
0.530708
0.565232
0.580334
0.624811
0.702812
0.725284
0.913246
1.01499
1.45099
2.00835
2.14284
2.4136
2.31824
2.2081
0.396622
0.397982
0.395842
0.397744
0.395985
0.400024
0.399162
0.407222
0.409072
0.422927
0.426363
0.441643
0.445334
0.461776
0.46557
0.482486
0.497345
0.503021
0.516531
0.521572
0.532843
0.537266
0.545476
0.547282
0.550836
0.550954
0.54928
0.546953
0.540678
0.530644
0.528586
0.517247
0.514453
0.502761
0.499661
0.488538
0.477936
0.475048
0.465937
0.463878
0.456493
0.45494
0.449964
0.446726
0.446212
0.446195
0.44638
0.449933
0.450744
0.459685
0.472821
0.476873
0.497592
0.502761
0.534117
0.578242
0.59227
0.69137
0.729547
1.02719
1.5987
1.75895
2.34071
2.41975
2.6184
0.392031
0.392382
0.391317
0.392285
0.391538
0.394415
0.394621
0.401826
0.403946
0.416434
0.420084
0.433975
0.438469
0.453015
0.458405
0.472314
0.488909
0.493065
0.508135
0.512156
0.524909
0.528464
0.538017
0.541153
0.545862
0.546407
0.548048
0.545233
0.542192
0.53053
0.529366
0.517703
0.515228
0.503463
0.500446
0.488874
0.478641
0.475306
0.466012
0.463937
0.455718
0.454635
0.447372
0.445305
0.44416
0.44357
0.443856
0.445352
0.447777
0.452046
0.465699
0.468702
0.486131
0.494191
0.513887
0.560893
0.571231
0.654629
0.703141
0.900156
1.49107
1.64041
2.32252
2.38489
2.77695
0.387367
0.388635
0.386778
0.388534
0.387038
0.390742
0.390205
0.397294
0.399103
0.411062
0.414785
0.427859
0.432414
0.446309
0.451685
0.465639
0.482617
0.485417
0.500807
0.503882
0.516897
0.520241
0.52933
0.532531
0.537984
0.540771
0.540463
0.541665
0.537361
0.529561
0.527127
0.516691
0.514487
0.503503
0.500976
0.490006
0.478882
0.476621
0.466598
0.46486
0.456401
0.455166
0.448866
0.444485
0.44394
0.442146
0.442661
0.443628
0.445835
0.450559
0.461186
0.464452
0.48009
0.488026
0.510023
0.549493
0.559905
0.638689
0.681292
0.906044
1.40471
1.54848
2.14332
2.29815
2.64263
0.363376
0.364319
0.363074
0.364427
0.363478
0.366264
0.365993
0.371494
0.373073
0.382207
0.385006
0.395022
0.398311
0.409151
0.412984
0.424453
0.437395
0.440834
0.454053
0.457537
0.470415
0.47396
0.485162
0.488474
0.497269
0.500208
0.507013
0.50885
0.511711
0.511479
0.512001
0.50801
0.506655
0.500563
0.498284
0.49135
0.481928
0.479649
0.470064
0.467589
0.458633
0.456246
0.448432
0.442168
0.440033
0.435568
0.434563
0.431754
0.431864
0.431987
0.436043
0.437
0.444422
0.447461
0.459199
0.480455
0.485731
0.522331
0.5389
0.635304
0.939266
1.02187
1.58642
1.80631
2.4289
0.360003
0.360534
0.35973
0.36072
0.360145
0.362507
0.362594
0.367801
0.369218
0.377938
0.380374
0.390212
0.393155
0.403858
0.407378
0.41866
0.430875
0.434557
0.447148
0.450789
0.463344
0.466877
0.478332
0.481498
0.491106
0.493656
0.500927
0.502892
0.508083
0.507954
0.509191
0.506534
0.505897
0.500619
0.498091
0.491471
0.482238
0.4804
0.470624
0.468489
0.459164
0.457112
0.448744
0.442209
0.440151
0.435006
0.434257
0.430487
0.431084
0.42996
0.432947
0.434142
0.440131
0.443718
0.453455
0.472245
0.477364
0.509892
0.52678
0.606454
0.875924
0.950668
1.4837
1.70961
2.35817
0.33918
0.340485
0.339038
0.3407
0.339465
0.342349
0.341536
0.346305
0.346972
0.354725
0.356021
0.364485
0.365598
0.375135
0.37603
0.38675
0.395297
0.399464
0.408627
0.412728
0.422667
0.426424
0.436607
0.439461
0.449687
0.451306
0.461207
0.461446
0.470354
0.474295
0.477358
0.478553
0.480168
0.480585
0.480087
0.478712
0.473095
0.473222
0.467334
0.466523
0.459991
0.458572
0.451634
0.444698
0.442889
0.43648
0.434973
0.429712
0.428357
0.425234
0.423048
0.423023
0.424218
0.423927
0.429893
0.43681
0.440199
0.456721
0.459124
0.504217
0.615177
0.648444
0.981464
1.04546
1.69111
0.334968
0.335594
0.334895
0.335891
0.335412
0.337451
0.337484
0.341508
0.342773
0.349149
0.351233
0.358025
0.36054
0.367713
0.370794
0.378347
0.388114
0.390215
0.400787
0.403092
0.41411
0.416792
0.427343
0.430355
0.439809
0.443134
0.451059
0.454501
0.46086
0.466704
0.468676
0.473019
0.474007
0.475597
0.47601
0.476078
0.47271
0.472711
0.467311
0.466508
0.461142
0.458982
0.4537
0.446054
0.444504
0.437415
0.435719
0.429634
0.428301
0.42372
0.421537
0.420906
0.420111
0.421399
0.422501
0.430795
0.432549
0.444661
0.451626
0.476509
0.574301
0.60015
0.833858
0.979727
1.43697
0.332871
0.33345
0.332811
0.333788
0.333315
0.335345
0.335369
0.33938
0.340413
0.34669
0.348443
0.355381
0.357428
0.364961
0.367355
0.375438
0.384415
0.387022
0.396579
0.399354
0.40948
0.412409
0.42253
0.425484
0.435108
0.438053
0.446672
0.449537
0.456584
0.462172
0.464141
0.4678
0.469481
0.472112
0.472621
0.473059
0.471234
0.471081
0.466857
0.465767
0.460145
0.458401
0.452805
0.446042
0.444426
0.437691
0.436112
0.430104
0.428763
0.424269
0.421375
0.420804
0.419822
0.420623
0.42229
0.42827
0.430209
0.441612
0.447438
0.47436
0.558058
0.58312
0.810094
0.928421
1.3831
0.314472
0.315323
0.314419
0.315564
0.314819
0.31694
0.31654
0.320087
0.320766
0.32633
0.327519
0.333388
0.334523
0.340879
0.34198
0.34896
0.355473
0.357877
0.364968
0.367458
0.375302
0.37782
0.386092
0.38841
0.396982
0.398928
0.407638
0.409037
0.417552
0.4235
0.426173
0.431283
0.433127
0.437641
0.438778
0.443016
0.443803
0.445952
0.446182
0.446998
0.446131
0.44579
0.443597
0.439834
0.439655
0.435589
0.434851
0.430553
0.429448
0.425298
0.421245
0.420232
0.417233
0.416369
0.41508
0.415181
0.41543
0.419015
0.419714
0.431167
0.46031
0.469179
0.562909
0.588265
0.852275
0.311501
0.311837
0.311459
0.312099
0.311872
0.313337
0.313527
0.316622
0.317641
0.322434
0.324002
0.328981
0.330864
0.335856
0.338221
0.343204
0.350341
0.351537
0.359412
0.360856
0.369238
0.37108
0.379448
0.381746
0.389654
0.392564
0.399509
0.403208
0.409273
0.416962
0.418557
0.42483
0.426451
0.431313
0.432972
0.436425
0.439947
0.44096
0.442121
0.442942
0.443589
0.443349
0.443292
0.439441
0.439552
0.435717
0.434879
0.431833
0.429622
0.426907
0.42183
0.420866
0.417302
0.416307
0.413724
0.413599
0.413247
0.414717
0.416876
0.420646
0.44751
0.453729
0.514797
0.562666
0.713717
0.309556
0.310092
0.309517
0.310329
0.309895
0.311619
0.31158
0.314732
0.315502
0.320287
0.32163
0.326749
0.328261
0.333679
0.335385
0.341115
0.347714
0.34931
0.356336
0.358153
0.365726
0.367807
0.375644
0.377936
0.385804
0.388329
0.39594
0.398716
0.40568
0.412663
0.414496
0.420339
0.422078
0.426915
0.428623
0.432273
0.435478
0.436594
0.438874
0.43956
0.440149
0.440749
0.439991
0.438414
0.437903
0.434542
0.433797
0.429947
0.428915
0.425331
0.421357
0.420476
0.417081
0.416306
0.414086
0.413199
0.413074
0.414615
0.415835
0.422426
0.443634
0.450236
0.514244
0.546028
0.720703
0.293851
0.294375
0.293825
0.294587
0.294178
0.295655
0.295527
0.298197
0.298888
0.303038
0.304154
0.308505
0.309654
0.314201
0.315396
0.320191
0.325157
0.326664
0.331976
0.33357
0.339403
0.341125
0.347293
0.349098
0.355513
0.35738
0.363954
0.365808
0.37239
0.378511
0.380444
0.386129
0.38786
0.393181
0.394716
0.399571
0.403616
0.405313
0.408757
0.410211
0.412937
0.414023
0.416449
0.417164
0.418272
0.418516
0.418762
0.418357
0.418038
0.416795
0.414823
0.414679
0.41282
0.412292
0.41062
0.408912
0.408623
0.408038
0.40785
0.409336
0.415244
0.417034
0.437611
0.445746
0.509913
0.291892
0.292098
0.291861
0.292323
0.292203
0.293323
0.293542
0.295924
0.296634
0.300615
0.301722
0.305882
0.307124
0.311399
0.312822
0.317156
0.321899
0.323301
0.328517
0.329909
0.335693
0.337181
0.343325
0.344976
0.351273
0.353203
0.3594
0.361742
0.367564
0.373794
0.375465
0.381396
0.382969
0.3885
0.390116
0.395001
0.399247
0.400813
0.404598
0.405797
0.409099
0.40999
0.412685
0.414438
0.415334
0.41569
0.416236
0.416667
0.416344
0.416451
0.414078
0.413866
0.412463
0.411582
0.410899
0.40845
0.408323
0.407518
0.407198
0.408022
0.4125
0.413779
0.428495
0.439092
0.479667
0.289322
0.289962
0.289298
0.290158
0.289615
0.291195
0.29093
0.283548
0.283531
0.297459
0.298941
0.302874
0.304148
0.3082
0.309656
0.313815
0.319239
0.319867
0.325394
0.326284
0.332055
0.333319
0.339168
0.340822
0.346654
0.34876
0.354453
0.357037
0.3624
0.369174
0.370207
0.376077
0.377621
0.382669
0.384831
0.388939
0.394591
0.39491
0.39925
0.400284
0.403299
0.405053
0.406713
0.409506
0.409663
0.41138
0.412047
0.411974
0.413287
0.412378
0.411904
0.411839
0.410139
0.410212
0.408054
0.406593
0.406251
0.405477
0.405822
0.406322
0.410683
0.411934
0.426559
0.433685
0.478922
0.277132
0.277429
0.277158
0.277624
0.277446
0.278428
0.278488
0.28024
0.280879
0.284167
0.285203
0.288398
0.289578
0.292847
0.29421
0.297534
0.30159
0.302555
0.306866
0.307865
0.312458
0.31359
0.31828
0.319636
0.324297
0.32601
0.330515
0.332674
0.337023
0.34248
0.343655
0.348822
0.350199
0.354906
0.356666
0.36075
0.365653
0.366763
0.371409
0.372632
0.37657
0.378024
0.381063
0.384371
0.385276
0.387932
0.388838
0.390633
0.391536
0.392854
0.394463
0.394888
0.395466
0.395854
0.396149
0.396127
0.396207
0.396055
0.395865
0.396556
0.397731
0.398317
0.40272
0.405283
0.417645
0.275535
0.275882
0.275556
0.276087
0.275857
0.276942
0.276942
0.278912
0.279404
0.282422
0.28327
0.286516
0.287472
0.290889
0.291947
0.295513
0.299428
0.300433
0.304488
0.305572
0.309875
0.311067
0.315558
0.316855
0.321514
0.322967
0.327741
0.329401
0.334141
0.339179
0.340512
0.345343
0.346722
0.351444
0.352967
0.357443
0.362115
0.363341
0.367629
0.368917
0.372855
0.374237
0.377625
0.380894
0.381841
0.384409
0.385343
0.38733
0.388304
0.389722
0.390904
0.391609
0.392558
0.393292
0.393619
0.394092
0.394362
0.39456
0.394932
0.395103
0.396036
0.396508
0.400282
0.40236
0.414525
0.264897
0.26524
0.264934
0.26542
0.265184
0.266099
0.266044
0.267713
0.268165
0.270743
0.271458
0.274189
0.274935
0.277816
0.278611
0.281659
0.284857
0.285812
0.289167
0.290164
0.293753
0.2948
0.298521
0.299601
0.303434
0.30456
0.30851
0.309675
0.313721
0.317766
0.318959
0.322952
0.324116
0.328138
0.329312
0.333332
0.337285
0.338627
0.342575
0.34383
0.347682
0.348884
0.352526
0.35588
0.357158
0.360243
0.361321
0.364057
0.364939
0.367454
0.369515
0.370411
0.372041
0.372648
0.374068
0.375143
0.375957
0.376939
0.377255
0.378267
0.379321
0.379953
0.381816
0.38255
0.387083
0.263489
0.263691
0.263538
0.263909
0.263822
0.264587
0.264692
0.266258
0.266702
0.26911
0.269787
0.272408
0.273177
0.275919
0.276796
0.279662
0.282657
0.28365
0.28688
0.287869
0.291372
0.292368
0.296054
0.297069
0.300862
0.301968
0.30579
0.307092
0.310819
0.314734
0.31586
0.319825
0.320914
0.32492
0.32612
0.329999
0.333878
0.335127
0.33909
0.340241
0.344196
0.34539
0.349051
0.352425
0.353618
0.356826
0.357821
0.360822
0.361769
0.364321
0.366447
0.367263
0.369188
0.369768
0.371361
0.37234
0.372885
0.373886
0.374351
0.375714
0.376693
0.377197
0.379186
0.380098
0.3837
0.254735
0.255146
0.254797
0.255311
0.255013
0.255897
0.255729
0.257202
0.257452
0.259729
0.260167
0.262553
0.26296
0.265507
0.265889
0.268626
0.271155
0.272026
0.274702
0.275586
0.278519
0.279395
0.28253
0.28333
0.286673
0.28736
0.290926
0.291459
0.295223
0.298374
0.299473
0.302687
0.303566
0.307038
0.307657
0.311412
0.314451
0.315853
0.31908
0.32018
0.323725
0.324418
0.328244
0.331074
0.33259
0.335541
0.336523
0.339725
0.340084
0.343561
0.345794
0.346928
0.34926
0.349616
0.352139
0.353381
0.354365
0.355744
0.355872
0.357598
0.358305
0.359103
0.360457
0.360565
0.363341
0.253171
0.253351
0.253251
0.253541
0.253496
0.254091
0.254209
0.25547
0.255888
0.257821
0.258435
0.260466
0.26119
0.263234
0.264117
0.266083
0.268786
0.269366
0.272235
0.272869
0.275926
0.276651
0.279787
0.280625
0.283734
0.284752
0.287692
0.289017
0.291604
0.295209
0.295964
0.299327
0.30017
0.303361
0.304465
0.307098
0.310838
0.311583
0.315261
0.316151
0.319569
0.320749
0.323419
0.327196
0.328017
0.331447
0.332394
0.335297
0.336571
0.338946
0.341969
0.342782
0.345229
0.346139
0.347855
0.349966