/*--------------------------------*- C++ -*----------------------------------*\
| =========                 |                                                 |
| \\      /  F ield         | OpenFOAM: The Open Source CFD Toolbox           |
|  \\    /   O peration     | Version:  v2012                                 |
|   \\  /    A nd           | Website:  www.openfoam.com                      |
|    \\/     M anipulation  |                                                 |
\*---------------------------------------------------------------------------*/
FoamFile
{
    version     2.0;
    format      ascii;
    class       volScalarField;
    location    "1e-06";
    object      kPrime2Mean;
}
// * * * * * * * * * * * * * * * * * * * * * * * * * * * * * * * * * * * * * //

dimensions      [0 4 -4 0 0 0 0];


internalField   nonuniform List<scalar> 
10302
(
0.00361816
0.00416984
0.00359039
0.00329013
0.00288768
0.00156738
0.0014888
0.000320516
0.000270999
6.50177e-05
4.11321e-05
1.56489e-05
1.8273e-05
3.29241e-05
9.72309e-06
2.78386e-05
4.00875e-06
2.23198e-05
2.60541e-06
1.7794e-05
6.86654e-06
1.2933e-05
4.29256e-07
5.26041e-07
4.7237e-07
6.12331e-09
8.11566e-07
1.06898e-07
2.38304e-07
4.54716e-06
2.01933e-06
1.39378e-06
1.90158e-06
2.5889e-07
2.83019e-07
2.72179e-08
1.19745e-07
1.53875e-07
5.33803e-08
1.92444e-08
1.18846e-08
4.44264e-09
2.23181e-08
9.54028e-08
3.32083e-08
1.71549e-08
1.61302e-08
2.62032e-08
1.37507e-08
1.97589e-08
2.3005e-08
2.77067e-08
3.80577e-08
2.52216e-08
5.23629e-09
1.39522e-08
2.22608e-08
3.67123e-09
2.94716e-09
7.18511e-11
1.79125e-09
2.12888e-09
9.18472e-09
4.05709e-09
1.44687e-08
0.000382892
0.000651068
0.000364674
0.000558445
0.000338508
0.000328894
0.00024365
8.69679e-05
8.26846e-05
3.86339e-05
3.28878e-05
2.6591e-05
1.83314e-05
2.03295e-05
1.17496e-05
6.31553e-06
5.21851e-06
1.0585e-06
4.47337e-06
1.22284e-05
2.26616e-06
6.39647e-06
4.80854e-06
5.19793e-06
4.08602e-06
3.13006e-06
1.54407e-06
1.10234e-06
5.76742e-08
1.47736e-08
1.65329e-07
4.1802e-07
5.61182e-07
6.03423e-08
1.89635e-08
8.63191e-09
5.44852e-09
3.12526e-10
1.28303e-07
1.21104e-07
1.26928e-08
7.46216e-09
2.59146e-09
2.60394e-09
4.49544e-10
1.51958e-09
1.23249e-09
5.43214e-10
1.4604e-09
9.99931e-11
1.34128e-09
1.76054e-09
3.50887e-09
5.82457e-09
1.8238e-09
6.66743e-09
3.04434e-09
1.2796e-10
6.81316e-11
1.82632e-10
3.30931e-12
8.43449e-14
3.48597e-12
1.63533e-10
9.68529e-12
6.28933e-05
5.55548e-05
6.35862e-05
2.53798e-05
2.4052e-05
1.48716e-05
2.09293e-06
5.48536e-06
4.29564e-06
5.96405e-07
8.00744e-06
7.92796e-07
7.62613e-06
1.2123e-06
6.73425e-06
4.39537e-07
8.37899e-07
5.62396e-06
5.68309e-07
2.89933e-06
7.44331e-07
3.98972e-06
6.26202e-07
3.2337e-06
5.53921e-07
3.01662e-06
6.31973e-07
3.15224e-06
1.41131e-06
1.48407e-06
1.53597e-06
1.2898e-06
2.7661e-06
1.73918e-06
3.42724e-06
6.02571e-07
1.17976e-06
4.86101e-07
9.07738e-07
8.09329e-07
3.17416e-07
4.10063e-07
1.62201e-07
2.47266e-07
1.44135e-07
2.21431e-07
2.20283e-07
1.09784e-07
1.97236e-07
5.35536e-08
1.7955e-07
1.51613e-07
1.52579e-07
2.51849e-07
2.81491e-08
8.1399e-08
6.13135e-08
1.30653e-08
1.59903e-08
2.49667e-09
1.92555e-08
1.66503e-08
2.51732e-08
3.9602e-08
2.77948e-08
1.16391e-05
2.93883e-05
1.10744e-05
2.33817e-05
2.10622e-05
2.68014e-05
4.88155e-05
1.20518e-06
5.14498e-05
2.07656e-05
3.46738e-05
1.33102e-05
2.57587e-05
8.06106e-06
1.94274e-05
9.05742e-06
1.58783e-05
5.11682e-06
1.16847e-05
5.54755e-06
8.23786e-06
4.77322e-06
6.9907e-06
4.10519e-06
3.93104e-06
2.82039e-06
6.25959e-07
1.20509e-06
2.93635e-08
1.49749e-06
4.64072e-07
7.36834e-07
3.63812e-07
7.86331e-08
3.4043e-09
1.99047e-07
7.14072e-08
4.21213e-08
5.46311e-08
1.0081e-07
1.03735e-07
1.2849e-07
1.3961e-07
1.5593e-07
8.3036e-08
1.46954e-07
1.43843e-07
7.23455e-08
1.3508e-07
3.92056e-08
1.04745e-07
9.77677e-08
8.03146e-08
1.29666e-07
3.22618e-08
5.755e-08
3.83973e-08
4.07284e-09
5.06316e-09
1.63265e-09
8.20648e-09
1.0032e-08
1.24387e-08
2.40003e-08
1.14906e-08
7.51399e-05
8.45548e-05
9.35716e-05
7.01883e-05
7.56465e-05
2.3105e-05
5.62814e-06
6.35967e-06
1.87333e-06
1.02369e-08
9.18687e-07
9.75129e-08
3.41939e-09
1.60607e-07
8.90408e-08
6.75051e-07
4.43025e-07
9.37439e-08
3.81976e-07
5.47525e-08
3.54381e-07
1.09442e-07
3.04866e-07
2.29384e-07
2.01318e-07
2.35617e-07
6.08191e-08
1.37313e-07
1.84182e-08
1.22757e-07
6.83444e-08
6.85128e-08
6.30962e-08
2.85726e-08
1.63023e-08
2.35108e-10
6.91516e-08
3.32805e-08
9.31265e-08
3.62407e-08
5.17089e-09
8.46926e-09
8.19718e-09
5.56624e-08
2.36039e-08
2.54544e-08
2.15295e-08
7.58392e-09
1.82687e-08
3.72986e-09
4.66763e-09
7.48252e-09
1.50726e-08
3.09787e-08
2.91725e-09
1.38615e-08
8.83989e-09
3.81337e-10
8.24294e-10
3.48513e-10
1.24771e-09
2.51613e-09
8.26445e-10
3.00899e-09
2.41036e-10
6.56649e-05
6.02628e-05
6.19704e-05
4.81533e-05
5.44724e-05
3.0443e-05
1.58905e-05
9.06849e-08
4.44031e-06
4.78731e-07
6.11051e-06
2.76707e-07
3.65109e-06
2.72506e-07
2.85293e-06
4.95751e-07
8.87134e-08
9.27154e-07
1.29935e-07
1.12486e-06
1.93227e-07
1.88148e-06
2.37078e-07
2.36481e-06
2.61752e-07
2.68442e-06
3.16194e-07
3.12337e-06
5.65502e-07
7.43024e-07
1.24005e-06
4.51362e-07
2.06642e-06
6.89095e-07
3.10033e-06
5.28447e-07
1.60604e-06
8.23386e-07
1.47811e-06
2.06946e-06
1.18759e-06
2.25799e-06
6.65215e-07
1.21325e-06
6.23474e-07
1.07057e-06
1.11499e-06
5.36508e-07
1.06817e-06
2.75949e-07
6.8531e-07
5.3272e-07
3.74471e-07
5.60326e-07
8.26772e-08
1.99757e-07
1.54666e-07
4.88968e-08
7.26107e-08
1.50613e-08
6.62552e-08
5.35052e-08
5.71689e-08
9.50774e-08
4.92399e-08
1.2831e-07
1.25416e-06
2.80794e-07
1.45864e-06
2.89892e-07
1.39399e-07
1.12229e-07
2.22966e-06
1.16138e-05
4.58292e-06
9.73393e-06
2.9336e-06
7.43837e-06
1.94208e-06
5.67151e-06
1.17738e-06
5.37507e-06
1.61838e-06
4.63056e-06
1.79309e-06
3.9284e-06
1.73215e-06
3.15087e-06
1.52592e-06
1.73367e-06
1.17864e-06
3.97984e-07
6.03252e-07
4.22096e-08
1.41494e-06
2.37356e-07
1.31063e-06
2.37547e-07
3.58535e-07
1.48254e-08
7.80826e-08
2.0064e-08
2.42192e-08
2.80538e-10
1.22176e-07
8.25779e-08
4.10989e-07
5.77515e-07
5.06659e-07
3.5303e-07
4.40169e-07
6.63773e-07
3.13317e-07
7.34183e-07
2.49017e-07
5.34576e-07
4.31406e-07
2.32147e-07
3.63968e-07
1.92833e-07
1.8676e-07
1.28488e-07
3.32377e-08
4.50859e-08
1.47328e-08
5.12387e-08
5.47916e-08
3.94723e-08
7.95202e-08
2.72253e-08
2.4686e-05
2.20261e-05
2.54133e-05
1.99907e-05
2.78601e-05
1.61536e-05
1.89014e-05
5.40447e-07
6.07936e-07
2.53349e-07
4.84046e-06
2.16763e-07
3.21014e-06
1.2205e-07
2.2381e-06
3.34373e-08
1.06378e-07
9.00413e-07
1.09237e-07
6.27507e-07
8.79597e-08
9.81823e-07
9.37651e-08
1.31826e-06
9.19094e-08
1.6082e-06
7.91257e-08
1.67488e-06
8.99549e-08
3.71716e-07
9.51388e-07
3.75128e-07
1.68619e-06
3.78986e-07
2.48436e-06
7.27258e-07
1.16544e-06
7.97929e-07
1.27403e-06
2.14584e-06
1.13296e-06
2.8695e-06
8.43735e-07
1.4397e-06
7.83166e-07
1.32699e-06
1.63268e-06
8.32837e-07
1.81905e-06
5.2704e-07
1.13126e-06
8.86723e-07
5.51406e-07
8.09908e-07
3.62021e-07
2.84066e-07
2.25227e-07
8.10812e-08
1.21169e-07
3.16766e-08
1.00198e-07
7.7544e-08
7.24825e-08
1.15286e-07
5.54555e-08
4.61475e-08
3.04319e-07
3.41099e-08
7.4538e-07
2.05286e-08
4.7348e-09
1.66999e-07
1.44773e-05
1.72259e-08
4.01796e-06
7.31379e-06
1.8557e-06
5.84552e-06
1.36293e-06
4.37696e-06
1.2325e-06
3.36205e-06
1.9727e-06
3.06694e-06
1.24128e-06
2.68747e-06
1.1719e-06
2.13316e-06
1.07327e-06
1.0949e-06
8.97493e-07
2.71837e-07
5.63813e-07
5.55954e-08
1.73611e-06
1.72517e-07
1.30829e-06
1.64931e-07
4.45281e-07
4.10835e-08
7.93831e-09
3.69029e-07
4.61808e-11
1.76664e-07
3.14611e-08
3.60349e-09
5.48403e-08
8.75225e-08
4.37803e-08
1.47476e-07
1.087e-07
3.92016e-07
1.97053e-07
6.72069e-07
2.34081e-07
6.73865e-07
5.44071e-07
4.54169e-07
7.40396e-07
2.55454e-07
3.33552e-07
2.0832e-07
6.91586e-08
9.58781e-08
2.00973e-08
8.60882e-08
8.61388e-08
5.3804e-08
1.15298e-07
3.65669e-08
1.43364e-05
1.23768e-05
1.8371e-05
1.20395e-05
1.45333e-05
8.12254e-06
1.19383e-05
3.04609e-06
2.90519e-07
2.16452e-07
2.17716e-06
1.91603e-07
1.32533e-06
3.08799e-08
3.6058e-07
4.24216e-08
6.63844e-08
2.51041e-09
1.23781e-07
1.22903e-09
1.81956e-07
5.72747e-08
1.89547e-07
1.84898e-07
1.53433e-07
3.32388e-07
9.36112e-08
4.77283e-07
1.01323e-07
3.79792e-07
1.45038e-07
2.42509e-07
2.43783e-07
1.31732e-07
3.33302e-07
6.44088e-09
1.95863e-07
2.00975e-08
8.17466e-08
6.45387e-08
2.47346e-08
5.68351e-08
2.56411e-10
4.44991e-08
1.36068e-08
2.59473e-08
7.94656e-08
5.60524e-09
5.29501e-08
1.78981e-08
5.40473e-08
5.467e-08
5.28871e-08
7.75466e-08
3.08285e-08
7.1884e-08
3.65878e-08
5.66879e-09
9.47685e-09
3.71056e-09
1.38712e-09
3.48837e-09
9.77424e-10
6.56648e-09
1.05597e-09
1.82582e-05
2.04384e-05
1.86676e-05
1.58428e-05
1.77849e-05
1.11267e-05
1.35191e-05
9.25861e-06
9.3677e-06
1.18819e-08
2.27748e-06
3.96048e-07
3.15565e-06
2.88922e-07
2.34757e-06
2.20058e-07
3.22156e-08
5.5693e-07
6.39424e-09
3.63191e-07
1.49647e-10
4.08974e-07
3.65565e-10
4.22741e-07
6.02443e-11
4.28196e-07
2.82038e-09
4.37182e-07
9.65893e-10
1.06765e-08
7.8351e-08
7.5736e-10
6.06839e-07
1.82093e-08
9.69308e-07
2.29248e-09
1.32994e-07
6.31531e-08
1.74762e-07
1.11555e-06
2.53402e-07
2.19734e-06
1.77015e-07
1.05001e-06
3.42359e-07
5.12792e-07
1.6989e-06
3.5141e-07
2.54848e-06
4.62394e-07
1.62597e-06
1.41131e-06
1.48843e-06
2.76987e-06
8.68677e-07
1.04713e-06
7.96195e-07
3.03691e-07
5.15359e-07
1.3926e-07
2.38971e-07
1.82779e-07
1.19242e-07
2.22269e-07
7.49784e-08
2.50401e-06
1.16006e-07
2.08137e-08
1.52705e-07
2.45141e-08
2.30374e-07
3.83468e-08
3.53577e-07
1.15245e-06
2.45815e-07
2.54912e-06
7.68164e-07
2.66104e-06
5.41071e-07
1.96032e-06
2.00153e-07
1.33426e-06
6.88339e-07
1.2126e-06
7.26777e-07
1.10516e-06
7.00849e-07
9.67463e-07
6.79301e-07
6.78772e-07
6.21761e-07
3.02618e-07
5.13505e-07
1.35449e-07
1.55465e-06
1.61948e-07
1.2503e-06
1.68623e-07
6.16671e-07
1.37122e-07
1.22429e-07
9.16508e-07
2.16955e-08
8.30322e-07
1.69267e-09
1.96246e-07
2.34995e-08
1.59985e-09
2.11198e-08
5.86674e-08
1.87297e-08
2.28818e-07
1.10725e-07
6.49634e-07
2.75765e-07
8.91141e-07
9.76564e-07
7.87565e-07
1.94307e-06
8.97551e-07
1.23659e-06
7.29563e-07
3.30442e-07
4.86206e-07
1.72147e-07
1.90686e-07
1.71686e-07
9.6108e-08
2.02987e-07
5.35927e-08
1.354e-05
9.73197e-06
1.25023e-05
9.5156e-06
1.18339e-05
5.81967e-06
9.96881e-06
4.80404e-06
8.27195e-06
6.09185e-06
3.35878e-08
1.27173e-07
1.82891e-06
2.24343e-07
2.03569e-06
1.47782e-07
6.12967e-08
5.3199e-07
2.59832e-08
3.94231e-07
5.6796e-09
3.49242e-07
4.20068e-10
2.91422e-07
1.79597e-10
2.3523e-07
4.3074e-10
1.8274e-07
1.39185e-08
6.06458e-08
2.35924e-08
1.71486e-08
1.75676e-07
6.15389e-10
3.33724e-07
1.59661e-08
2.84832e-10
9.22459e-11
2.40115e-08
4.65874e-07
9.83353e-08
1.38646e-06
5.69336e-08
4.99225e-07
2.84826e-07
4.8636e-07
1.60724e-06
3.30599e-07
2.646e-06
2.57874e-07
1.48676e-06
1.16977e-06
1.42872e-06
3.49628e-06
1.82635e-06
2.17661e-06
1.60526e-06
6.79616e-07
1.11776e-06
2.82616e-07
3.46615e-07
2.63285e-07
1.53137e-07
2.90819e-07
9.90236e-08
1.16905e-08
7.81107e-08
1.04327e-08
1.48674e-07
1.54693e-07
2.44171e-07
7.79147e-08
1.54933e-07
1.82164e-07
3.97235e-06
6.2537e-07
3.00039e-07
1.75114e-06
4.63898e-07
1.54063e-06
1.48097e-07
7.25277e-07
6.20045e-07
7.39992e-07
6.00422e-07
6.37943e-07
5.23554e-07
5.50674e-07
4.64924e-07
4.21914e-07
4.49463e-07
2.7978e-07
4.2772e-07
1.40138e-07
1.26456e-06
1.6719e-07
9.90488e-07
1.90036e-07
5.38629e-07
1.63572e-07
1.47085e-07
1.35117e-06
4.42816e-08
1.08022e-06
2.92322e-08
3.44492e-07
3.61611e-09
4.9092e-08
2.51034e-07
5.91565e-09
2.02052e-07
5.97205e-08
3.76537e-09
2.27116e-07
1.19517e-07
2.34543e-07
6.24222e-07
4.52665e-07
1.57401e-06
1.18055e-06
2.55829e-06
1.76393e-06
7.83743e-07
1.19455e-06
2.47354e-07
3.08015e-07
2.51228e-07
1.36782e-07
2.72079e-07
8.0922e-08
1.09222e-05
8.08533e-06
1.06588e-05
7.6063e-06
1.05728e-05
5.88363e-06
8.84654e-06
3.15159e-06
4.91211e-06
5.55665e-06
6.88103e-06
1.8518e-09
6.61886e-07
1.72128e-07
1.46884e-06
1.47813e-07
8.85032e-08
5.58258e-07
4.73383e-08
4.19486e-07
1.54274e-08
3.74544e-07
2.35281e-09
2.84478e-07
8.77761e-11
1.88647e-07
9.04737e-10
1.0167e-07
1.90287e-08
1.20657e-07
1.37766e-09
7.53073e-08
2.88948e-08
3.28644e-08
5.5467e-08
5.8853e-08
7.54941e-08
3.15633e-08
2.98754e-08
7.49036e-08
1.23202e-10
4.55043e-07
1.7356e-08
6.39422e-08
4.5402e-08
1.80907e-07
1.04333e-06
1.5457e-07
1.85774e-06
7.55455e-08
6.52242e-07
7.89412e-07
8.15245e-07
3.25568e-06
1.43757e-06
4.96356e-06
3.87937e-06
1.68764e-06
2.86923e-06
6.99172e-07
5.86105e-07
4.49328e-07
2.20898e-07
4.37365e-07
1.41028e-07
6.96667e-09
5.1736e-08
3.36446e-09
2.93375e-07
1.36425e-08
2.00772e-07
9.2085e-08
4.77617e-07
4.37852e-08
5.4692e-07
1.41624e-06
8.35519e-07
9.63637e-07
2.4947e-07
1.13364e-06
1.49513e-07
4.19112e-07
5.87221e-07
4.53287e-07
5.09602e-07
3.78998e-07
4.26188e-07
3.16772e-07
3.59861e-07
2.44608e-07
3.17958e-07
1.47349e-07
3.03783e-07
6.50244e-08
8.32917e-07
1.3897e-07
6.90477e-07
1.69751e-07
4.35654e-07
1.73529e-07
1.15237e-07
1.36535e-06
4.46181e-08
1.11419e-06
5.60643e-08
4.60376e-07
4.42121e-08
1.34735e-07
5.89805e-07
1.8615e-09
4.91693e-07
3.49761e-09
7.24088e-08
3.8651e-08
1.32485e-08
1.56376e-08
2.32986e-07
1.15115e-07
9.30419e-07
8.07279e-08
2.08864e-06
2.51937e-06
1.92697e-06
2.86658e-06
9.11723e-07
5.36656e-07
4.02479e-07
2.01924e-07
4.11383e-07
1.28424e-07
9.20216e-06
6.40795e-06
7.85842e-06
6.35728e-06
8.66393e-06
4.84018e-06
7.80413e-06
2.86837e-06
5.80215e-06
2.27958e-06
6.80391e-06
6.27137e-06
1.06141e-06
2.04253e-08
5.08634e-07
1.0421e-07
4.87415e-08
4.76361e-07
3.17534e-08
3.06406e-07
1.0761e-08
2.64408e-07
2.45328e-09
2.08855e-07
1.37191e-10
1.36447e-07
2.38373e-10
5.91142e-08
8.12982e-09
1.20774e-07
2.57554e-09
1.18915e-07
4.8323e-11
7.5782e-08
2.89241e-10
7.7654e-08
1.03655e-07
1.15676e-07
1.74674e-07
4.06567e-09
6.83532e-08
2.74927e-08
1.02652e-07
1.57764e-08
3.00989e-08
1.69406e-09
3.93812e-07
2.37257e-08
1.03142e-06
6.01674e-09
1.54719e-07
4.33391e-07
2.10729e-07
2.73347e-06
5.35027e-08
4.38486e-06
4.3813e-06
4.46856e-06
8.11221e-06
1.91486e-06
1.19345e-06
9.06662e-07
3.80953e-07
7.77589e-07
2.18891e-07
3.52473e-07
2.00732e-07
3.02273e-07
1.43587e-07
2.71621e-07
4.19067e-08
1.50053e-07
5.3751e-07
2.76306e-08
7.4254e-08
6.46387e-07
3.1723e-06
3.59379e-06
4.66806e-08
4.52938e-07
1.36562e-07
1.93304e-07
6.90145e-07
2.22398e-07
6.51567e-07
2.21676e-07
5.91432e-07
2.23328e-07
5.48561e-07
2.20969e-07
5.23845e-07
1.9726e-07
5.01867e-07
1.13661e-07
4.61544e-07
3.25647e-07
4.51508e-07
4.19293e-07
4.47803e-07
5.06691e-07
2.72739e-07
8.61799e-07
3.42624e-07
8.9966e-07
5.41784e-07
8.90966e-07
7.56566e-07
7.71455e-07
1.16193e-06
6.43408e-07
1.09884e-06
8.74419e-07
9.74011e-07
1.01024e-06
8.01639e-07
1.05587e-06
7.90931e-07
8.58073e-07
9.46144e-07
2.11206e-06
8.02061e-07
7.99007e-07
1.05053e-07
3.38448e-07
1.55907e-08
2.63508e-08
2.57154e-08
8.01418e-09
1.38693e-08
9.7206e-09
4.60023e-10
3.5435e-07
4.41951e-09
3.28822e-07
3.53021e-08
5.47108e-07
2.02282e-07
5.31913e-06
1.66866e-06
3.17637e-07
2.59422e-08
2.06423e-06
2.64757e-06
2.37929e-06
4.59794e-07
5.86635e-08
2.4238e-07
4.92418e-07
2.1962e-07
3.67316e-07
1.71938e-07
3.04409e-07
1.38623e-07
2.63031e-07
1.32494e-07
2.39166e-07
1.13185e-07
2.28668e-07
1.13159e-07
4.72047e-07
1.30209e-07
4.20259e-07
1.46872e-07
3.03889e-07
1.80235e-07
1.21712e-07
1.22854e-06
5.46915e-08
1.03969e-06
7.04377e-08
5.36578e-07
8.91958e-08
3.44036e-08
1.69793e-06
6.13328e-09
8.30527e-07
8.58841e-09
5.71223e-08
5.11526e-10
3.54792e-09
7.32431e-07
1.80952e-08
1.61591e-08
1.27018e-07
7.27822e-07
1.84052e-07
1.44139e-06
1.81432e-06
3.93885e-06
9.78384e-07
1.2264e-06
7.06508e-07
2.88306e-07
6.42365e-07
2.45913e-07
5.74756e-06
4.21769e-06
5.69732e-06
4.59393e-06
5.4451e-06
3.98345e-06
5.26274e-06
1.8746e-09
3.35485e-06
1.02632e-06
2.30925e-06
1.40078e-06
3.89093e-06
4.79033e-06
2.41131e-06
3.05353e-08
6.26762e-08
6.89469e-07
9.99935e-08
6.11715e-07
6.20095e-08
5.36951e-07
3.68138e-08
4.27213e-07
1.81374e-08
3.13126e-07
2.90494e-09
1.85294e-07
4.62125e-09
1.75189e-08
2.89124e-08
3.51465e-08
7.98007e-09
5.54887e-08
3.4647e-10
1.50683e-07
2.36919e-07
2.21618e-08
2.42272e-07
3.86352e-08
2.11188e-07
2.69971e-08
2.60743e-07
3.1442e-07
1.18817e-08
1.24388e-07
1.07283e-08
1.7564e-08
1.823e-07
1.14842e-08
5.31885e-09
1.26314e-07
4.36286e-09
5.8541e-07
1.35187e-08
1.72457e-06
1.96426e-06
6.57081e-06
1.3388e-05
4.33872e-06
2.74855e-06
1.95771e-06
7.13374e-07
1.24971e-06
4.74536e-07
2.09048e-09
6.46257e-08
2.75429e-09
1.02431e-07
7.57288e-09
2.46792e-07
7.31608e-08
9.94705e-07
2.31554e-07
8.41349e-07
1.16056e-07
7.32255e-08
1.01614e-07
2.63739e-06
2.82277e-06
5.85496e-07
1.90063e-07
4.23687e-07
2.4874e-07
4.21031e-07
2.29993e-07
3.37083e-07
1.85082e-07
2.62089e-07
1.56056e-07
2.19729e-07
1.72625e-07
1.85416e-07
5.60603e-08
2.61949e-07
1.24701e-07
2.40946e-07
1.22088e-07
2.33667e-07
1.39239e-07
1.11918e-07
6.48648e-07
8.26088e-08
6.09895e-07
7.8708e-08
5.11375e-07
1.05631e-07
1.62801e-07
1.36606e-06
2.87972e-08
9.01192e-07
2.19806e-08
5.96354e-07
2.13383e-08
2.21673e-08
1.0516e-06
1.03502e-10
3.55174e-07
2.25236e-09
2.43731e-10
1.05599e-07
7.86671e-07
1.74416e-07
2.78123e-06
4.27642e-06
3.17641e-06
2.33598e-06
8.09745e-07
1.35144e-06
5.45387e-07
3.91075e-06
3.2519e-06
4.09808e-06
2.99502e-06
4.03968e-06
2.70483e-06
4.12543e-06
2.09708e-06
3.29313e-06
9.65173e-07
2.45108e-06
9.73695e-07
1.88417e-06
1.52832e-06
3.55288e-06
3.9003e-06
3.10202e-08
2.4387e-07
4.98875e-08
4.41414e-07
8.21404e-08
4.94812e-07
6.25949e-08
4.86918e-07
3.49863e-08
4.21941e-07
2.28584e-08
3.08795e-07
3.20021e-09
4.41228e-11
8.36022e-08
4.24773e-09
4.24441e-08
1.80109e-08
1.28476e-08
7.0688e-08
1.44313e-07
1.3961e-08
1.80195e-07
4.45584e-08
2.19744e-07
8.33638e-08
3.96694e-07
5.76382e-07
1.52217e-07
4.01002e-07
8.72586e-08
2.56772e-07
1.20586e-08
2.70825e-07
2.27981e-07
6.4941e-09
9.09911e-08
5.3739e-08
2.20199e-07
2.33528e-07
2.75886e-07
3.91674e-06
1.06185e-05
1.14178e-05
8.30165e-06
7.18842e-06
2.00392e-06
3.18682e-06
1.02697e-06
8.96346e-09
1.9728e-08
9.37689e-09
5.44779e-08
1.89505e-08
1.23964e-07
7.16084e-08
5.59057e-07
1.84759e-07
9.46993e-07
2.10209e-07
5.11999e-07
5.06278e-08
4.51086e-08
3.52868e-07
2.33083e-06
2.56387e-06
1.15128e-07
1.02076e-07
3.05837e-07
1.26185e-07
3.01721e-07
1.35723e-07
2.48157e-07
1.29984e-07
1.87457e-07
1.21757e-07
1.44224e-07
2.47369e-08
1.5858e-07
1.00994e-07
1.39157e-07
9.38383e-08
1.29303e-07
9.49746e-08
4.28479e-08
3.36347e-07
5.50841e-08
3.44374e-07
6.29698e-08
3.32321e-07
8.55015e-08
1.32012e-07
8.98383e-07
4.32683e-08
8.01176e-07
4.51873e-08
7.80246e-07
4.31807e-08
1.17157e-07
1.24271e-06
9.56156e-09
9.15555e-07
1.20446e-08
6.21345e-08
2.45056e-06
1.82893e-07
5.50557e-07
2.53466e-06
4.53223e-06
5.96099e-06
4.67585e-06
2.52902e-06
3.90012e-06
1.56789e-06
2.62026e-06
1.64925e-06
2.52824e-06
1.65838e-06
2.54529e-06
1.45011e-06
2.71285e-06
1.3092e-06
2.40161e-06
6.95435e-07
2.16499e-06
6.25588e-07
1.8719e-06
6.71951e-07
1.15126e-06
2.25163e-06
4.7297e-06
3.2638e-06
3.44904e-08
6.36777e-08
1.65226e-08
2.15039e-07
4.60102e-08
2.78214e-07
3.719e-08
2.87837e-07
1.80499e-08
2.52815e-07
1.84439e-09
3.84635e-10
6.16378e-08
2.56998e-11
5.32995e-08
1.30026e-09
2.96678e-08
1.18674e-08
2.47625e-08
6.61898e-09
9.79026e-08
2.34161e-08
1.24082e-07
7.8335e-08
2.08088e-07
3.4506e-07
2.76535e-07
5.55391e-07
2.98485e-07
4.47161e-07
3.58037e-07
4.88326e-07
7.32649e-07
3.08474e-07
3.94645e-07
1.28417e-07
5.11663e-07
5.50069e-07
6.96899e-07
1.77143e-07
4.10748e-06
1.28184e-06
1.8305e-05
1.77726e-05
6.26708e-06
1.10762e-05
2.57214e-06
9.05727e-08
6.34452e-08
8.32874e-08
5.35056e-08
7.02204e-08
2.38303e-08
5.10814e-08
1.10523e-08
1.266e-08
1.05168e-07
1.28532e-09
8.29397e-08
1.10439e-10
4.11781e-08
6.59987e-09
7.74518e-10
1.82658e-06
1.80796e-06
1.42632e-06
4.85107e-08
1.5493e-08
1.85361e-07
3.44495e-08
2.0775e-07
4.99692e-08
2.20066e-07
6.27462e-08
2.06521e-07
5.63201e-08
8.11477e-08
1.80477e-07
8.47216e-08
1.74252e-07
7.96461e-08
1.7427e-07
2.76723e-08
1.69674e-07
8.81763e-08
1.70988e-07
1.23297e-07
1.6068e-07
1.72364e-07
3.3941e-08
4.44533e-07
8.42486e-08
4.3707e-07
1.95303e-07
3.94851e-07
3.53491e-07
3.1871e-07
9.32368e-07
3.33382e-07
1.01144e-06
5.93176e-07
5.93318e-07
3.54815e-06
6.06731e-07
4.5808e-06
7.6251e-08
7.8173e-06
4.99916e-07
1.52333e-06
8.33529e-08
3.52722e-07
5.56908e-08
7.94382e-09
8.0076e-08
2.10842e-08
1.08403e-07
2.51352e-08
2.03483e-07
8.26453e-08
4.89948e-07
1.83923e-07
8.5273e-07
2.58243e-07
6.9472e-07
2.33102e-07
3.87376e-07
1.03987e-07
3.94572e-08
3.85242e-07
1.49676e-06
4.30315e-06
2.95387e-06
1.07168e-08
1.43967e-07
4.33156e-08
1.46317e-07
4.816e-08
1.25248e-07
5.17845e-08
9.3826e-08
8.86828e-09
7.88926e-08
7.0716e-08
6.68638e-08
6.33399e-08
6.58869e-08
6.31384e-08
3.48525e-08
1.49882e-07
5.40232e-08
1.60138e-07
5.0139e-08
1.77607e-07
6.37875e-08
1.39073e-07
5.04733e-07
4.54366e-08
4.85701e-07
5.74546e-08
5.08926e-07
9.78018e-08
1.62794e-07
1.1716e-06
2.57564e-08
8.97601e-07
2.81976e-08
1.68863e-07
4.86518e-06
6.69652e-10
2.49736e-07
1.32054e-06
6.5742e-06
4.26882e-07
2.79814e-06
4.61712e-06
7.59025e-06
3.98665e-06
1.22527e-06
9.94947e-07
1.27441e-06
9.9835e-07
1.25259e-06
9.25268e-07
1.34615e-06
8.27119e-07
1.27857e-06
5.71322e-07
1.27472e-06
5.76602e-07
1.25182e-06
5.39761e-07
1.0646e-06
4.36751e-07
5.17748e-07
6.23717e-07
2.31853e-06
1.91397e-06
2.93241e-06
2.17732e-07
3.10734e-09
1.62112e-07
2.8818e-08
2.81379e-07
3.8174e-08
3.17527e-07
1.90486e-08
1.37496e-08
2.09566e-07
1.00433e-08
1.68835e-07
5.37801e-09
1.31014e-07
2.43332e-10
8.85139e-10
3.8701e-08
6.738e-09
1.01538e-08
2.46624e-08
5.34418e-11
8.95645e-08
1.55024e-07
5.73532e-08
2.2018e-07
1.37832e-07
3.58587e-07
2.55168e-07
6.29884e-07
7.49761e-07
4.37289e-07
8.34029e-07
5.0848e-07
1.45466e-06
2.05806e-06
2.27183e-06
1.07301e-06
3.90557e-06
1.4526e-07
4.73689e-06
1.07667e-05
1.69873e-05
2.74244e-05
9.13376e-06
9.5145e-09
2.07671e-08
8.46854e-09
2.22225e-08
1.47857e-08
5.28959e-08
3.812e-08
2.34994e-07
9.02516e-08
4.71487e-07
1.29497e-07
4.95575e-07
1.42214e-07
4.38266e-07
1.50697e-07
3.32658e-07
9.94392e-08
2.71946e-08
1.03311e-07
5.0216e-07
2.2742e-06
2.01244e-06
2.58339e-07
7.93445e-08
3.92217e-08
1.19505e-07
5.07064e-08
1.1235e-07
1.77495e-08
8.85889e-08
9.4227e-08
8.05633e-08
7.62708e-08
7.4633e-08
5.76989e-08
1.07081e-08
1.00437e-07
3.98833e-08
9.6273e-08
3.60336e-08
9.84568e-08
3.95583e-08
2.77344e-08
2.1949e-07
2.64496e-08
2.44755e-07
3.53038e-08
2.87748e-07
6.47902e-08
1.12908e-07
6.69373e-07
3.28872e-08
7.7295e-07
6.20023e-08
2.75344e-07
2.777e-06
1.06365e-08
2.81474e-06
2.51575e-08
1.95173e-08
1.6945e-08
1.07668e-06
7.28819e-07
4.46682e-06
9.732e-06
7.40736e-07
4.65272e-07
6.96271e-07
4.5025e-07
7.13611e-07
4.08057e-07
7.8168e-07
4.06133e-07
7.89909e-07
2.73494e-07
8.44197e-07
2.85417e-07
9.97171e-07
2.78355e-07
1.0485e-06
2.12111e-07
4.88154e-07
4.44292e-07
4.12541e-07
4.31659e-07
1.4011e-06
1.25664e-06
2.40755e-06
1.19073e-06
1.06962e-08
4.43968e-08
8.15049e-09
1.63192e-07
1.61842e-08
1.94174e-08
9.7969e-08
1.28292e-08
1.10533e-07
3.04688e-09
1.1598e-07
1.56352e-11
5.12549e-09
1.60034e-08
5.31858e-11
1.58742e-08
3.86218e-09
7.89002e-09
1.26817e-08
2.01679e-08
1.07641e-08
7.79551e-08
4.24922e-08
9.94003e-08
1.40573e-07
1.74073e-07
3.98896e-07
3.6463e-07
5.22662e-07
7.06854e-07
7.97852e-07
1.87099e-06
2.42927e-06
3.33008e-06
8.45235e-06
7.77143e-06
1.39185e-07
5.29208e-07
5.66765e-06
3.02309e-05
1.20841e-05
2.93902e-08
2.25637e-08
2.48097e-08
1.71771e-08
2.19689e-08
7.72577e-09
1.59031e-08
1.36669e-09
4.9348e-09
2.21795e-08
1.09251e-09
2.03114e-08
4.08027e-11
1.5019e-08
1.91292e-09
1.15634e-08
5.36541e-08
4.0413e-09
1.28387e-08
2.75986e-09
2.5739e-08
4.0594e-07
1.21536e-06
1.42283e-06
9.63669e-07
3.67159e-09
2.00854e-08
3.46474e-08
1.8524e-08
1.22048e-08
8.7475e-08
1.91602e-08
9.20983e-08
2.38257e-08
9.40845e-08
2.10793e-08
4.52701e-08
7.76909e-08
4.71703e-08
8.0955e-08
4.71322e-08
8.36817e-08
2.91691e-08
9.08199e-08
4.77388e-08
9.64127e-08
6.80834e-08
7.05193e-08
1.08876e-07
4.21397e-08
2.71444e-07
5.93899e-08
2.16223e-07
1.58363e-07
7.64717e-08
9.28179e-07
6.65257e-08
1.78348e-06
6.94504e-07
2.09761e-07
7.40062e-06
2.72376e-07
1.20695e-05
1.68839e-06
1.38195e-06
1.06157e-08
2.37942e-08
8.3844e-09
2.95891e-08
1.28483e-08
6.67469e-08
3.43852e-08
1.773e-07
7.59406e-08
3.294e-07
1.09248e-07
3.90661e-07
1.3215e-07
4.07663e-07
1.48658e-07
3.68521e-07
3.35578e-07
9.05418e-08
1.68954e-07
2.92284e-08
1.85295e-08
6.69357e-09
4.91957e-07
8.6204e-07
2.12174e-06
1.86002e-06
9.96323e-08
3.32431e-08
3.95354e-09
2.44771e-08
5.74022e-08
2.93908e-08
5.70738e-08
3.70637e-08
4.79298e-08
5.75931e-09
5.43015e-08
3.38797e-08
4.99429e-08
2.66789e-08
5.13641e-08
2.29157e-08
1.19316e-08
9.44558e-08
2.06485e-08
1.04713e-07
2.0498e-08
1.51289e-07
2.99565e-08
7.54817e-08
3.13584e-07
2.8433e-08
4.22163e-07
5.19709e-08
2.7038e-07
1.25415e-06
5.10557e-08
4.3133e-06
5.85228e-07
3.47626e-06
2.74745e-06
3.4477e-06
1.71307e-08
3.87546e-06
5.22294e-06
3.83662e-07
2.72957e-07
3.68704e-07
2.67024e-07
3.70854e-07
2.60039e-07
4.08676e-07
2.58414e-07
4.15322e-07
2.07498e-07
4.49119e-07
2.33371e-07
5.23773e-07
2.53894e-07
5.90436e-07
2.50801e-07
3.02333e-07
4.2807e-07
2.72415e-07
3.70047e-07
2.42122e-07
2.97412e-07
2.21757e-07
4.77025e-07
9.09248e-07
1.08526e-06
1.80505e-06
7.52121e-07
8.78287e-09
3.94128e-11
6.99437e-08
8.62264e-09
1.19696e-07
1.3729e-08
1.44654e-07
9.32884e-09
1.1651e-08
7.7783e-08
4.1216e-09
5.9205e-08
1.02063e-11
4.14726e-08
4.59451e-09
5.22608e-09
4.20891e-09
1.72333e-08
4.77228e-11
3.15794e-08
6.65585e-09
7.53377e-08
1.2757e-07
8.48256e-08
2.01781e-07
2.14214e-07
4.10433e-07
7.57582e-07
8.53745e-07
2.1427e-06
5.04979e-06
1.04215e-05
4.79923e-06
1.90228e-05
6.15129e-07
2.74092e-07
1.67849e-06
6.50967e-09
6.04696e-09
6.47663e-09
4.032e-09
4.85767e-09
8.71479e-10
2.77057e-09
5.10761e-09
5.0321e-10
2.51685e-08
3.41076e-11
2.94476e-08
2.36154e-10
3.02336e-08
1.84812e-09
2.03011e-08
5.59581e-08
2.50366e-11
4.98273e-08
6.4026e-10
3.58991e-08
3.9873e-10
9.79566e-09
7.18023e-10
1.89665e-08
3.41833e-07
6.89771e-07
1.18629e-06
6.95032e-07
7.07308e-09
2.84942e-08
2.27424e-09
3.91047e-08
5.58297e-09
4.1947e-08
5.33158e-09
1.44662e-08
4.5752e-08
1.83616e-08
5.48046e-08
2.07787e-08
6.05658e-08
1.23603e-08
4.64253e-08
4.75396e-08
4.87566e-08
5.40843e-08
4.94086e-08
6.5756e-08
3.8054e-08
1.18924e-07
4.73546e-08
1.20645e-07
8.34307e-08
6.17394e-08
3.86772e-07
4.94002e-08
6.17597e-07
3.10029e-07
6.55416e-08
1.44225e-05
7.29696e-09
1.76254e-05
2.52769e-10
6.99071e-06
5.62963e-10
1.24939e-08
7.20739e-10
1.91568e-08
3.5656e-09
4.32121e-08
1.28561e-08
8.63162e-08
3.50252e-08
1.54333e-07
5.74099e-08
1.83741e-07
7.15923e-08
2.09173e-07
8.64201e-08
2.19605e-07
2.91315e-07
5.60418e-08
2.27386e-07
4.84264e-08
1.48012e-07
3.48388e-08
5.62225e-08
8.84113e-09
5.75e-10
1.44466e-08
4.69134e-07
6.54778e-07
2.0317e-06
1.54486e-06
5.08881e-07
1.40809e-09
2.08589e-08
8.40359e-09
3.39747e-08
2.70847e-09
2.05594e-08
3.63237e-08
2.41556e-08
3.23579e-08
2.6972e-08
2.86768e-08
6.2491e-09
5.05075e-08
1.99496e-08
4.50625e-08
1.6681e-08
4.54537e-08
2.63932e-08
1.35851e-08
1.15752e-07
1.09003e-08
1.28693e-07
2.25488e-08
7.54664e-08
4.32629e-07
2.10973e-08
1.08188e-06
1.61454e-07
4.76999e-06
1.93664e-05
2.1924e-07
9.45845e-08
5.37894e-06
1.43645e-05
1.86747e-07
1.559e-07
1.80693e-07
1.54762e-07
1.89228e-07
1.53582e-07
2.07943e-07
1.42184e-07
2.11383e-07
1.18898e-07
2.26816e-07
1.40474e-07
2.63805e-07
1.63682e-07
2.98905e-07
1.88562e-07
1.75989e-07
3.24403e-07
1.58477e-07
3.01975e-07
1.38972e-07
2.59441e-07
1.27783e-07
2.16169e-07
1.19723e-07
1.8222e-07
1.0922e-07
2.04243e-07
4.38902e-07
1.14342e-06
1.04836e-06
1.25596e-06
3.08325e-07
1.76847e-09
2.3398e-08
1.19071e-08
1.08718e-08
9.82055e-08
1.4041e-08
1.02296e-07
1.40901e-08
9.54783e-08
9.81363e-09
4.0165e-09
5.23879e-08
4.22069e-10
3.25081e-08
2.02327e-10
1.66491e-08
6.62082e-09
2.47898e-08
5.59205e-10
4.75399e-08
1.27124e-08
1.09102e-07
1.73728e-07
1.5318e-07
4.93776e-07
8.01281e-07
3.25583e-06
7.47965e-06
1.89389e-05
1.15862e-05
3.16452e-05
7.82935e-06
1.65806e-09
2.72942e-09
2.6459e-09
6.51986e-09
5.22062e-09
1.64709e-08
1.34461e-08
5.16772e-08
2.43728e-08
8.68714e-08
3.01884e-08
1.0392e-07
3.69418e-08
1.20583e-07
4.69425e-08
1.28889e-07
1.45023e-07
4.85633e-08
1.45534e-07
4.77265e-08
1.38862e-07
4.36689e-08
1.17405e-07
3.38535e-08
9.06404e-08
2.40658e-08
4.62011e-08
5.4491e-09
2.13162e-09
2.94357e-07
3.43255e-07
1.02603e-06
1.07258e-06
1.02732e-06
3.17292e-07
1.11045e-09
5.76189e-09
2.09894e-08
6.98784e-09
2.15648e-08
1.06189e-08
2.40386e-08
2.72543e-09
2.81602e-08
2.01774e-08
3.43658e-08
2.02419e-08
4.24386e-08
1.97595e-08
9.17804e-09
7.40756e-08
1.24503e-08
9.08839e-08
1.21389e-08
2.29468e-08
1.80737e-07
7.47606e-09
3.11956e-07
2.96833e-08
3.76401e-07
7.34235e-06
2.17787e-08
1.10262e-05
4.31772e-07
5.91178e-08
1.17607e-07
6.9412e-08
1.15187e-07
7.14796e-08
1.21324e-07
6.77955e-08
1.35769e-07
7.27146e-08
1.3692e-07
5.09641e-08
1.40654e-07
5.47461e-08
1.69342e-07
5.84975e-08
2.07345e-07
6.30991e-08
1.05209e-07
1.48849e-07
1.06793e-07
1.63587e-07
1.00896e-07
1.74595e-07
8.93364e-08
1.76069e-07
7.38023e-08
1.79015e-07
6.48556e-08
1.79623e-07
5.25025e-08
9.51235e-08
1.19464e-07
2.84293e-07
4.39403e-07
7.23456e-07
7.60736e-07
1.03489e-06
7.34658e-08
5.11677e-10
1.54879e-10
1.17158e-08
4.68975e-09
3.87132e-08
5.80022e-09
1.86676e-08
3.42659e-08
1.67698e-08
4.18314e-08
5.69566e-09
4.15402e-08
2.67892e-10
2.40989e-09
2.04025e-09
1.65249e-09
4.33103e-11
3.02161e-08
1.49695e-08
4.37315e-08
7.19298e-08
1.8223e-07
3.47004e-07
1.49885e-06
6.16522e-06
7.06457e-06
3.59749e-05
2.12916e-05
5.35893e-09
2.84782e-09
4.87924e-09
2.13093e-09
4.27717e-09
6.01098e-10
2.68142e-09
1.83932e-10
1.13381e-09
2.48215e-09
4.02872e-10
2.19667e-09
9.41278e-11
1.73598e-09
2.70391e-11
1.02237e-09
1.21893e-08
4.41673e-09
1.5026e-08
3.04426e-09
1.6285e-08
1.15852e-09
1.40283e-08
4.9407e-11
9.83439e-09
4.19056e-10
5.75938e-09
1.71255e-09
3.61466e-09
3.01289e-09
7.43481e-10
2.43276e-10
1.24471e-08
1.27052e-07
2.34313e-07
4.29933e-07
8.53453e-07
2.70876e-07
2.3431e-09
4.91133e-09
2.94425e-09
1.01921e-08
6.55042e-09
2.60966e-09
2.18928e-08
4.41996e-09