/*--------------------------------*- C++ -*----------------------------------*\
| =========                 |                                                 |
| \\      /  F ield         | OpenFOAM: The Open Source CFD Toolbox           |
|  \\    /   O peration     | Version:  v2012                                 |
|   \\  /    A nd           | Website:  www.openfoam.com                      |
|    \\/     M anipulation  |                                                 |
\*---------------------------------------------------------------------------*/
FoamFile
{
    version     2.0;
    format      ascii;
    class       volScalarField;
    location    "1e-06";
    object      nut;
}
// * * * * * * * * * * * * * * * * * * * * * * * * * * * * * * * * * * * * * //

dimensions      [0 2 -1 0 0 0 0];


internalField   nonuniform List<scalar> 
10302
(
8.5448e-06
8.44557e-06
8.61097e-06
8.33217e-06
8.4255e-06
7.86855e-06
7.83023e-06
6.96768e-06
6.76201e-06
5.85267e-06
5.70722e-06
5.30758e-06
5.17171e-06
4.87161e-06
4.8516e-06
4.4568e-06
4.71502e-06
4.58405e-06
4.73738e-06
4.75292e-06
4.66673e-06
4.65545e-06
4.88411e-06
4.89839e-06
5.02103e-06
4.911e-06
4.59309e-06
4.46267e-06
3.71443e-06
3.92033e-06
3.91963e-06
3.68182e-06
3.55746e-06
2.48394e-06
2.24504e-06
9.28198e-07
1.3917e-06
1.40224e-06
1.91862e-06
1.99787e-06
1.50061e-06
1.40438e-06
9.77179e-07
6.57987e-07
5.14946e-07
5.02637e-07
4.84418e-07
4.77536e-07
3.9672e-07
4.04071e-07
5.16231e-07
5.43652e-07
7.13831e-07
6.5786e-07
5.10084e-07
6.91061e-07
6.84135e-07
2.28105e-07
1.89758e-07
4.39278e-08
2.07594e-07
2.24598e-07
3.87524e-07
3.22839e-07
4.61117e-07
1.01941e-05
9.83864e-06
1.0233e-05
9.66503e-06
9.97355e-06
9.02093e-06
9.17986e-06
7.96707e-06
7.87548e-06
6.63011e-06
6.58465e-06
5.95804e-06
5.98312e-06
5.58189e-06
5.64248e-06
5.74132e-06
5.47317e-06
5.6741e-06
5.41759e-06
5.28158e-06
5.28975e-06
5.19516e-06
5.47284e-06
5.46143e-06
5.59408e-06
5.59401e-06
5.31744e-06
5.32129e-06
4.99911e-06
4.82111e-06
4.67879e-06
4.82819e-06
4.75072e-06
3.84456e-06
3.81634e-06
3.36728e-06
2.83749e-06
2.46138e-06
3.26784e-06
3.18842e-06
2.34462e-06
2.30453e-06
1.88995e-06
1.40113e-06
1.1625e-06
1.4184e-06
1.37673e-06
1.27619e-06
1.37407e-06
1.10655e-06
1.52604e-06
1.4527e-06
1.80145e-06
1.96975e-06
3.29443e-06
1.76327e-06
1.54123e-06
6.1913e-07
6.17856e-07
3.15447e-07
6.53439e-07
6.57613e-07
9.87225e-07
1.09206e-06
1.099e-06
1.34764e-05
1.29633e-05
1.34374e-05
1.26077e-05
1.29808e-05
1.15699e-05
1.1752e-05
9.99207e-06
9.83161e-06
8.28775e-06
8.24076e-06
7.40524e-06
7.45318e-06
6.85594e-06
6.9867e-06
6.93849e-06
6.65767e-06
6.37654e-06
6.54424e-06
6.37008e-06
6.46124e-06
6.35605e-06
6.55731e-06
6.54137e-06
6.68962e-06
6.73713e-06
6.57063e-06
6.68535e-06
6.01463e-06
6.37763e-06
6.19689e-06
6.63188e-06
6.59681e-06
6.51209e-06
6.55529e-06
5.42636e-06
5.71646e-06
5.11549e-06
6.18968e-06
6.07665e-06
5.00803e-06
5.00123e-06
3.49442e-06
4.10096e-06
3.65657e-06
4.53963e-06
4.48874e-06
4.23938e-06
4.63114e-06
3.74136e-06
5.02879e-06
4.86575e-06
5.67158e-06
6.13456e-06
6.05763e-06
5.35489e-06
4.81009e-06
2.11954e-06
2.15949e-06
1.17553e-06
2.40523e-06
2.43051e-06
3.41086e-06
3.772e-06
3.68742e-06
1.48249e-05
1.41718e-05
1.47137e-05
1.37326e-05
1.40943e-05
1.24588e-05
1.25515e-05
1.18833e-05
1.03135e-05
8.6899e-06
8.46084e-06
7.7827e-06
7.60346e-06
7.26846e-06
7.10214e-06
6.98102e-06
6.71574e-06
6.75397e-06
6.61442e-06
6.61635e-06
6.54913e-06
6.51994e-06
6.66975e-06
6.64813e-06
6.87981e-06
6.82268e-06
6.97955e-06
6.77451e-06
6.5636e-06
6.48116e-06
6.47341e-06
6.79851e-06
6.78079e-06
6.91343e-06
6.73301e-06
6.39987e-06
5.89724e-06
5.83836e-06
6.45098e-06
6.42158e-06
5.51112e-06
5.21524e-06
4.34882e-06
4.28589e-06
4.27719e-06
4.87941e-06
4.79663e-06
5.14233e-06
4.84203e-06
4.96911e-06
5.33638e-06
5.27361e-06
6.46065e-06
6.41421e-06
8.56452e-06
5.63265e-06
5.19587e-06
2.4199e-06
2.24143e-06
1.69882e-06
2.52799e-06
2.60719e-06
3.98789e-06
3.90765e-06
4.51437e-06
1.85423e-05
1.77253e-05
1.83763e-05
1.71478e-05
1.75128e-05
1.54487e-05
1.55642e-05
1.3127e-05
9.90119e-06
9.31372e-06
8.6977e-06
8.26539e-06
7.59182e-06
7.71041e-06
6.94186e-06
6.97027e-06
6.3082e-06
6.92795e-06
6.09581e-06
6.55371e-06
5.95887e-06
6.15792e-06
5.97611e-06
5.96231e-06
6.25761e-06
5.96065e-06
6.70202e-06
6.03626e-06
6.67204e-06
5.86637e-06
6.07807e-06
5.6295e-06
5.7748e-06
7.04337e-06
6.69145e-06
7.99011e-06
7.40522e-06
7.81211e-06
9.05905e-06
9.15858e-06
8.72443e-06
8.54081e-06
7.68933e-06
7.87237e-06
7.68784e-06
9.01344e-06
8.98775e-06
9.51602e-06
9.50479e-06
9.3694e-06
1.05444e-05
1.04452e-05
1.18729e-05
1.20211e-05
1.41674e-05
1.06659e-05
9.9898e-06
5.3712e-06
5.19992e-06
4.08265e-06
5.92152e-06
6.06059e-06
8.24696e-06
8.34393e-06
8.69371e-06
2.32054e-05
2.22891e-05
2.29929e-05
2.15807e-05
2.21139e-05
1.9426e-05
1.95696e-05
1.57838e-05
1.54042e-05
1.25076e-05
1.2309e-05
1.07524e-05
1.07145e-05
9.74058e-06
9.78334e-06
9.13e-06
9.00031e-06
8.7436e-06
8.72768e-06
8.54594e-06
8.58751e-06
8.48081e-06
8.59455e-06
8.56512e-06
8.71417e-06
8.75784e-06
8.87518e-06
8.95967e-06
8.84311e-06
9.12711e-06
8.99117e-06
9.5373e-06
9.53948e-06
1.00255e-05
1.00965e-05
1.01571e-05
1.051e-05
1.02277e-05
1.11976e-05
1.1169e-05
1.12161e-05
1.12032e-05
1.02499e-05
1.09874e-05
1.06213e-05
1.2366e-05
1.24451e-05
1.33685e-05
1.37176e-05
1.35569e-05
1.56853e-05
1.55852e-05
1.71145e-05
1.75542e-05
1.80361e-05
1.58175e-05
1.49662e-05
9.20874e-06
9.22493e-06
6.84676e-06
1.05164e-05
1.0676e-05
1.31814e-05
1.35946e-05
1.32033e-05
2.49584e-05
2.39472e-05
2.46866e-05
2.32156e-05
2.37166e-05
2.0961e-05
2.09688e-05
1.68212e-05
1.62409e-05
1.31911e-05
1.27463e-05
1.12816e-05
1.09807e-05
1.01927e-05
9.96553e-06
9.48531e-06
9.09989e-06
9.08826e-06
8.82241e-06
8.80678e-06
8.68962e-06
8.66204e-06
8.71773e-06
8.6917e-06
8.88513e-06
8.85339e-06
9.11874e-06
9.04559e-06
9.165e-06
9.21969e-06
9.24334e-06
9.66327e-06
9.69664e-06
1.02493e-05
1.02217e-05
1.05948e-05
1.0647e-05
1.07019e-05
1.13902e-05
1.14371e-05
1.16358e-05
1.14425e-05
1.09941e-05
1.12349e-05
1.12549e-05
1.27389e-05
1.28117e-05
1.42766e-05
1.40557e-05
1.48837e-05
1.62355e-05
1.62834e-05
1.81853e-05
1.80507e-05
1.97239e-05
1.63272e-05
1.56594e-05
9.9847e-06
9.51504e-06
8.06929e-06
1.0923e-05
1.1226e-05
1.43186e-05
1.39737e-05
1.4502e-05
2.93079e-05
2.82539e-05
2.9053e-05
2.75271e-05
2.81317e-05
2.50706e-05
2.51109e-05
2.00518e-05
1.55441e-05
1.40194e-05
1.50844e-05
1.30741e-05
1.28371e-05
1.16548e-05
1.1503e-05
1.08912e-05
1.03392e-05
1.02828e-05
9.91373e-06
9.7659e-06
9.6673e-06
9.56664e-06
9.60099e-06
9.5509e-06
9.67525e-06
9.67272e-06
9.867e-06
9.87945e-06
9.42227e-06
1.02405e-05
1.0185e-05
1.06651e-05
1.06714e-05
1.11939e-05
1.12339e-05
1.17469e-05
1.20278e-05
1.19846e-05
1.27637e-05
1.27782e-05
1.32353e-05
1.32112e-05
1.33481e-05
1.35338e-05
1.33707e-05
1.49023e-05
1.50203e-05
1.66534e-05
1.68132e-05
1.8002e-05
2.01693e-05
2.025e-05
2.23198e-05
2.24792e-05
2.41502e-05
2.07454e-05
1.99955e-05
1.42582e-05
1.40932e-05
1.21469e-05
1.61335e-05
1.63976e-05
1.93687e-05
1.93805e-05
1.89754e-05
3.09767e-05
2.99247e-05
3.06862e-05
2.92276e-05
2.9692e-05
2.67105e-05
2.65264e-05
2.40549e-05
2.35576e-05
1.64824e-05
1.56681e-05
1.37414e-05
1.31997e-05
1.21968e-05
1.17501e-05
1.12135e-05
1.04722e-05
1.05252e-05
1.00327e-05
1.00536e-05
9.79122e-06
9.77401e-06
9.74194e-06
9.69918e-06
9.85775e-06
9.78363e-06
1.00888e-05
9.96948e-06
1.02493e-05
1.032e-05
1.04134e-05
1.07793e-05
1.08255e-05
1.13844e-05
1.1351e-05
1.19526e-05
1.21227e-05
1.22519e-05
1.29009e-05
1.29918e-05
1.35231e-05
1.33907e-05
1.37474e-05
1.3724e-05
1.28872e-05
1.51596e-05
1.36962e-05
1.71737e-05
1.70561e-05
1.8808e-05
2.06181e-05
2.08422e-05
2.3212e-05
2.29459e-05
2.46439e-05
2.12461e-05
2.06852e-05
1.51953e-05
1.44935e-05
1.35261e-05
1.6662e-05
1.71177e-05
2.06186e-05
1.98466e-05
2.02819e-05
2.90513e-05
2.92881e-05
3.11099e-05
2.94986e-05
2.84733e-05
2.81031e-05
2.54215e-05
2.57892e-05
2.49377e-05
1.31004e-05
1.14866e-05
1.1278e-05
1.01323e-05
1.10451e-05
9.54925e-06
1.05522e-05
8.44993e-06
9.62613e-06
7.882e-06
8.6953e-06
7.46258e-06
7.76213e-06
7.2354e-06
7.0723e-06
7.25986e-06
6.60618e-06
7.47522e-06
6.28057e-06
7.35026e-06
6.31803e-06
7.00697e-06
6.75458e-06
6.86078e-06
7.27106e-06
6.61792e-06
8.15512e-06
6.99021e-06
8.2367e-06
7.61184e-06
8.00853e-06
8.50851e-06
7.89996e-06
1.02318e-05
8.27721e-06
9.22827e-06
8.60407e-06
8.59207e-06
1.06684e-05
9.71478e-06
1.42123e-05
1.47224e-05
1.63047e-05
2.59673e-05
2.60393e-05
2.7483e-05
2.48029e-05
2.42097e-05
1.94737e-05
1.92462e-05
1.79715e-05
2.21236e-05
2.24728e-05
2.56175e-05
2.53712e-05
2.47271e-05
4.1278e-05
4.02722e-05
4.11454e-05
3.96308e-05
4.03691e-05
3.70628e-05
3.71806e-05
3.01974e-05
2.80343e-05
1.9075e-05
2.21656e-05
1.5895e-05
1.83061e-05
1.59309e-05
1.59271e-05
1.42643e-05
1.36622e-05
1.31167e-05
1.27249e-05
1.23584e-05
1.20728e-05
1.18624e-05
1.16839e-05
1.16116e-05
1.15086e-05
1.15471e-05
1.12551e-05
1.16415e-05
1.10145e-05
1.09548e-05
1.19826e-05
1.11855e-05
1.24526e-05
1.14583e-05
1.30381e-05
1.18051e-05
1.3338e-05
1.24885e-05
1.31026e-05
1.49229e-05
1.38637e-05
1.57553e-05
1.59679e-05
1.70314e-05
1.57586e-05
1.57154e-05
1.81374e-05
1.64222e-05
1.98431e-05
2.0532e-05
2.40133e-05
2.43768e-05
2.72555e-05
2.74543e-05
2.87238e-05
2.71586e-05
2.66509e-05
2.31354e-05
2.33761e-05
2.1918e-05
2.71847e-05
2.74559e-05
3.0329e-05
3.0676e-05
2.90117e-05
4.32798e-05
4.21618e-05
4.30469e-05
4.15744e-05
4.22496e-05
3.9067e-05
3.89677e-05
3.19626e-05
2.89344e-05
2.41234e-05
2.3195e-05
1.95017e-05
1.70632e-05
1.67428e-05
1.60511e-05
1.49732e-05
1.39361e-05
1.37119e-05
1.29594e-05
1.27766e-05
1.22837e-05
1.21529e-05
1.18871e-05
1.18102e-05
1.17217e-05
1.16892e-05
1.17506e-05
1.17515e-05
1.19275e-05
1.21374e-05
1.21755e-05
1.25426e-05
1.25943e-05
1.30759e-05
1.26222e-05
1.21677e-05
1.42096e-05
1.25918e-05
1.49977e-05
1.34104e-05
1.58185e-05
1.37103e-05
1.44708e-05
1.71628e-05
1.55625e-05
1.82447e-05
1.55965e-05
1.78255e-05
1.55404e-05
1.67973e-05
2.29319e-05
1.94387e-05
2.75466e-05
2.68739e-05
2.94923e-05
2.75443e-05
2.71149e-05
2.39462e-05
2.38239e-05
2.33347e-05
2.78336e-05
2.82533e-05
3.15923e-05
3.12535e-05
3.04681e-05
4.86105e-05
4.74881e-05
4.84826e-05
4.69625e-05
4.77822e-05
4.45407e-05
4.46522e-05
3.70881e-05
3.06608e-05
2.59623e-05
2.72145e-05
1.80908e-05
2.21596e-05
1.67034e-05
1.89968e-05
1.69128e-05
1.59478e-05
1.53246e-05
1.46445e-05
1.42092e-05
1.36849e-05
1.34172e-05
1.30374e-05
1.29258e-05
1.26583e-05
1.26684e-05
1.25169e-05
1.26171e-05
1.24549e-05
1.21533e-05
1.2835e-05
1.20849e-05
1.325e-05
1.21917e-05
1.38004e-05
1.21331e-05
1.2586e-05
1.27548e-05
1.31456e-05
1.57828e-05
1.38338e-05
1.67101e-05
1.50319e-05
1.63381e-05
1.65516e-05
1.69605e-05
1.94915e-05
1.70079e-05
2.09966e-05
1.80679e-05
2.11935e-05
2.2092e-05
2.66533e-05
2.80004e-05
2.9868e-05
2.90397e-05
2.86746e-05
2.65113e-05
2.68093e-05
2.6758e-05
3.1996e-05
3.24003e-05
3.58971e-05
3.62263e-05
3.4869e-05
5.05451e-05
4.95037e-05
5.04196e-05
4.89925e-05
4.97361e-05
4.66029e-05
4.64427e-05
3.90687e-05
3.66555e-05
2.17699e-05
2.85438e-05
2.23655e-05
2.13506e-05
2.00947e-05
1.80918e-05
1.77149e-05
1.63248e-05
1.60035e-05
1.49674e-05
1.47187e-05
1.39743e-05
1.37887e-05
1.33072e-05
1.31848e-05
1.29161e-05
1.28494e-05
1.27601e-05
1.27482e-05
1.28231e-05
1.29894e-05
1.30224e-05
1.33389e-05
1.33868e-05
1.38328e-05
1.37773e-05
1.35346e-05
1.49892e-05
1.35346e-05
1.58099e-05
1.38381e-05
1.6721e-05
1.39939e-05
1.47008e-05
1.84107e-05
1.55798e-05
1.95636e-05
1.65014e-05
1.9602e-05
1.65616e-05
1.70987e-05
2.47351e-05
1.82289e-05
2.49392e-05
2.15429e-05
3.04206e-05
2.94224e-05
2.90746e-05
2.71558e-05
2.72121e-05
2.78427e-05
3.25978e-05
3.31378e-05
3.71073e-05
3.68303e-05
3.63956e-05
5.62303e-05
5.26703e-05
5.19984e-05
5.49422e-05
5.58897e-05
5.25925e-05
5.27876e-05
4.49719e-05
4.37245e-05
2.98509e-05
2.24951e-05
2.75157e-05
2.69616e-05
1.802e-05
2.28216e-05
1.80305e-05
1.77147e-05
1.78778e-05
1.70196e-05
1.64684e-05
1.56844e-05
1.53341e-05
1.4712e-05
1.45501e-05
1.40506e-05
1.40345e-05
1.36692e-05
1.3756e-05
1.35507e-05
1.35911e-05
1.36815e-05
1.32785e-05
1.39999e-05
1.32206e-05
1.44765e-05
1.30775e-05
1.36208e-05
1.43252e-05
1.34297e-05
1.64412e-05
1.392e-05
1.74261e-05
1.39953e-05
1.54063e-05
1.59555e-05
1.69393e-05
2.05946e-05
1.79186e-05
2.21403e-05
1.80671e-05
1.9697e-05
2.3622e-05
2.22165e-05
2.83527e-05
3.04473e-05
3.11683e-05
3.09314e-05
2.95537e-05
2.99726e-05
3.02486e-05
3.5594e-05
3.62427e-05
4.09771e-05
4.14728e-05
4.11056e-05
5.86546e-05
5.76426e-05
5.85864e-05
5.72342e-05
5.79297e-05
5.48788e-05
5.473e-05
4.71246e-05
4.55614e-05
3.65529e-05
2.40512e-05
2.59839e-05
2.81001e-05
2.22228e-05
2.15034e-05
2.02032e-05
1.9283e-05
1.88595e-05
1.74593e-05
1.71127e-05
1.60754e-05
1.58141e-05
1.50699e-05
1.48914e-05
1.43827e-05
1.42742e-05
1.39712e-05
1.39249e-05
1.38109e-05
1.38807e-05
1.3879e-05
1.41019e-05
1.41379e-05
1.45052e-05
1.45779e-05
1.51003e-05
1.56054e-05
1.51641e-05
1.64246e-05
1.51436e-05
1.73775e-05
1.51135e-05
1.56706e-05
1.93129e-05
1.58402e-05
2.05822e-05
1.65556e-05
2.15973e-05
1.73099e-05
1.84863e-05
2.54502e-05
1.86112e-05
2.32931e-05
1.88322e-05
2.4196e-05
3.16583e-05
3.15e-05
3.02918e-05
3.04367e-05
3.08728e-05
3.60843e-05
3.6837e-05
4.20851e-05
4.2072e-05
4.27612e-05
5.99942e-05
6.12827e-05
6.55372e-05
6.39061e-05
6.4953e-05
6.10603e-05
6.19198e-05
5.38594e-05
5.25673e-05
4.16107e-05
3.22602e-05
2.11228e-05
3.30145e-05
2.17717e-05
2.7665e-05
1.7562e-05
1.7529e-05
1.75295e-05
1.76672e-05
1.80354e-05
1.78226e-05
1.77262e-05
1.6825e-05
1.66082e-05
1.58099e-05
1.57857e-05
1.51059e-05
1.52179e-05
1.47164e-05
1.48184e-05
1.46472e-05
1.47388e-05
1.47991e-05
1.45691e-05
1.51336e-05
1.42194e-05
1.60641e-05
1.48191e-05
1.42081e-05
1.69025e-05
1.45801e-05
1.78863e-05
1.43534e-05
1.63998e-05
1.54958e-05
1.63757e-05
2.132e-05
1.7794e-05
2.29418e-05
1.86213e-05
1.96037e-05
2.63347e-05
2.06175e-05
2.8931e-05
1.99087e-05
3.35494e-05
3.35854e-05
3.35897e-05
3.39741e-05
3.32931e-05
3.80038e-05
3.88419e-05
4.50313e-05
4.58297e-05
4.74491e-05
6.78038e-05
6.67883e-05
6.78199e-05
6.63937e-05
6.71574e-05
6.41028e-05
6.39975e-05
5.63579e-05
5.45309e-05
4.45894e-05
4.26996e-05
2.36331e-05
1.89821e-05
2.96458e-05
2.86624e-05
2.55075e-05
2.29877e-05
2.24353e-05
2.05481e-05
2.00672e-05
1.86883e-05
1.83234e-05
1.72799e-05
1.70251e-05
1.62401e-05
1.60724e-05
1.55202e-05
1.54127e-05
1.50866e-05
1.49576e-05
1.48813e-05
1.49497e-05
1.49381e-05
1.51608e-05
1.52137e-05
1.55913e-05
1.60804e-05
1.61875e-05
1.68424e-05
1.695e-05
1.77722e-05
1.79173e-05
1.8917e-05
1.98403e-05
2.00422e-05
2.11995e-05
2.13782e-05
2.27377e-05
2.29908e-05
2.44336e-05
2.61506e-05
2.64176e-05
2.8595e-05
2.89862e-05
3.13256e-05
3.38476e-05
3.40899e-05
3.44668e-05
3.44351e-05
3.31873e-05
3.82494e-05
3.91559e-05
4.58358e-05
4.61828e-05
4.90547e-05
6.76449e-05
6.72235e-05
6.95265e-05
6.80032e-05
6.88123e-05
6.56521e-05
6.54158e-05
6.3632e-05
5.61163e-05
4.61422e-05
4.38999e-05
3.1559e-05
2.15868e-05
2.21363e-05
2.93632e-05
2.62576e-05
2.34054e-05
2.02874e-05
2.09523e-05
2.00014e-05
1.91041e-05
1.8823e-05
1.77035e-05
1.74029e-05
1.66557e-05
1.63426e-05
1.58874e-05
1.55975e-05
1.53631e-05
1.50969e-05
1.5111e-05
1.50972e-05
1.5094e-05
1.53053e-05
1.53097e-05
1.56998e-05
1.61155e-05
1.62739e-05
1.68811e-05
1.70196e-05
1.78192e-05
1.79729e-05
1.8403e-05
1.98648e-05
1.82731e-05
2.12572e-05
1.85393e-05
2.09454e-05
1.89676e-05
1.94373e-05
2.62178e-05
2.06785e-05
2.09279e-05
2.08495e-05
2.05526e-05
3.41418e-05
2.64627e-05
3.55668e-05
3.49828e-05
3.48732e-05
3.85382e-05
3.94821e-05
4.63877e-05
4.6504e-05
5.0206e-05
6.43272e-05
7.66317e-05
6.88436e-05
6.824e-05
6.91366e-05
6.96032e-05
7.39215e-05
6.6858e-05
6.42386e-05
5.35389e-05
5.13037e-05
4.29226e-05
2.71806e-05
1.79823e-05
3.37379e-05
3.06339e-05
2.2427e-05
2.65892e-05
2.08641e-05
2.36269e-05
2.10882e-05
2.13577e-05
1.99926e-05
1.9644e-05
1.85872e-05
1.83297e-05
1.75417e-05
1.7334e-05
1.67617e-05
1.64019e-05
1.62415e-05
1.60978e-05
1.60193e-05
1.60348e-05
1.60347e-05
1.62084e-05
1.65815e-05
1.66015e-05
1.71752e-05
1.72447e-05
1.78604e-05
1.81307e-05
1.83166e-05
1.72893e-05
2.02503e-05
1.798e-05
2.1641e-05
1.92687e-05
2.33108e-05
2.03958e-05
2.04273e-05
2.68466e-05
2.17855e-05
2.94241e-05
2.25364e-05
2.63236e-05
3.4269e-05
3.89307e-05
3.87149e-05
3.83422e-05
4.0981e-05
4.15561e-05
4.80228e-05
4.88565e-05
5.42346e-05
7.17379e-05
7.92435e-05
7.88514e-05
7.58173e-05
7.85854e-05
7.64927e-05
7.62457e-05
6.85533e-05
6.64609e-05
5.57567e-05
5.33245e-05
4.53594e-05
3.70756e-05
2.30221e-05
1.72738e-05
2.57563e-05
2.83418e-05
2.66545e-05
2.50328e-05
2.22841e-05
2.25253e-05
2.15076e-05
2.06169e-05
2.02493e-05
1.91319e-05
1.87961e-05
1.79665e-05
1.76784e-05
1.71109e-05
1.66483e-05
1.65649e-05
1.63282e-05
1.62667e-05
1.62275e-05
1.61987e-05
1.63435e-05
1.6618e-05
1.67041e-05
1.71908e-05
1.73033e-05
1.79896e-05
1.81613e-05
1.9039e-05
1.99978e-05
2.02551e-05
2.1412e-05
2.0662e-05
2.30192e-05
2.04578e-05
2.14381e-05
2.65315e-05
2.18279e-05
2.89958e-05
2.22069e-05
2.34777e-05
3.49685e-05
2.43966e-05
3.97889e-05
3.31822e-05
3.96864e-05
4.15987e-05
4.2107e-05
4.8395e-05
4.92007e-05
5.50678e-05
7.32555e-05
7.76797e-05
7.76285e-05
7.62757e-05
7.60665e-05
7.8024e-05
8.62724e-05
7.82265e-05
7.63404e-05
6.46793e-05
6.23381e-05
5.31342e-05
5.02311e-05
3.57911e-05
2.47981e-05
1.79258e-05
3.34008e-05
3.21725e-05
2.23698e-05
2.68956e-05
2.07661e-05
2.53534e-05
2.11532e-05
2.31075e-05
2.16681e-05
2.13609e-05
2.01922e-05
1.9978e-05
1.90289e-05
1.84508e-05
1.817e-05
1.77782e-05
1.76294e-05
1.7362e-05
1.7324e-05
1.72015e-05
1.73479e-05
1.72698e-05
1.76136e-05
1.76281e-05
1.81581e-05
1.82662e-05
1.8992e-05
1.90369e-05
2.00923e-05
1.95864e-05
2.14607e-05
2.01705e-05
2.3128e-05
2.05902e-05
2.09548e-05
2.67361e-05
2.23881e-05
2.92915e-05
2.26721e-05
2.48799e-05
3.65553e-05
3.44018e-05
4.22695e-05
4.46546e-05
4.5893e-05
4.58354e-05
5.005e-05
5.13928e-05
5.73839e-05
9.27256e-05
9.08715e-05
9.03526e-05
9.14832e-05
8.9594e-05
8.9149e-05
8.88421e-05
8.10468e-05
7.88897e-05
6.74692e-05
6.47624e-05
5.55535e-05
5.32257e-05
4.63318e-05
3.18351e-05
1.92391e-05
1.63856e-05
3.36864e-05
3.03548e-05
2.95578e-05
2.69575e-05
2.46545e-05
2.43596e-05
2.33648e-05
2.23471e-05
2.19762e-05
2.07523e-05
2.04412e-05
1.95215e-05
1.88167e-05
1.86225e-05
1.81182e-05
1.79887e-05
1.76479e-05
1.75788e-05
1.7396e-05
1.74532e-05
1.74279e-05
1.76857e-05
1.77317e-05
1.8176e-05
1.83121e-05
1.89421e-05
1.98202e-05
2.00374e-05
2.11439e-05
2.14116e-05
2.27473e-05
2.31039e-05
2.45961e-05
2.6284e-05
2.40594e-05
2.87608e-05
2.4074e-05
2.64184e-05
3.60571e-05
2.53785e-05
4.24481e-05
2.96659e-05
4.42297e-05
4.68928e-05
4.68027e-05
5.06504e-05
5.18214e-05
5.80017e-05
9.06691e-05
8.55565e-05
8.69101e-05
9.12035e-05
8.93654e-05
9.16061e-05
9.79243e-05
9.18593e-05
9.03083e-05
7.75428e-05
7.55406e-05
6.45214e-05
6.29961e-05
5.40211e-05
5.29452e-05
3.39941e-05
1.76168e-05
1.81412e-05
3.56823e-05
3.26047e-05
2.46462e-05
2.4734e-05
2.18023e-05
2.35487e-05
2.13061e-05
2.4878e-05
2.18232e-05
2.34432e-05
2.19149e-05
2.12153e-05
2.07372e-05
2.01333e-05
1.9905e-05
1.93091e-05
1.92862e-05
1.8748e-05
1.87139e-05
1.8461e-05
1.85487e-05
1.84669e-05
1.86671e-05
1.87314e-05
1.91207e-05
1.97856e-05
1.99129e-05
2.08469e-05
2.1012e-05
2.1553e-05
2.24628e-05
2.15872e-05
2.19986e-05
2.60112e-05
2.29859e-05
2.84667e-05
2.30427e-05
2.43805e-05
3.62396e-05
2.74374e-05
4.43643e-05
4.84074e-05
5.27096e-05
5.2296e-05
5.43712e-05
5.57495e-05
6.01984e-05
0.000106884
0.000105986
0.000106985
0.000105712
0.000106446
0.000103451
0.000103252
9.55147e-05
9.32994e-05
8.14281e-05
7.8431e-05
6.82844e-05
6.54294e-05
5.75302e-05
5.48899e-05
4.93094e-05
2.60017e-05
1.80703e-05
1.62626e-05
3.62364e-05
3.27431e-05
3.19185e-05
2.92566e-05
2.86294e-05
2.65622e-05
2.6063e-05
2.44788e-05
2.40191e-05
2.28728e-05
2.17344e-05
2.14343e-05
2.06283e-05
2.04138e-05
1.97866e-05
1.96399e-05
1.91943e-05
1.89355e-05
1.87954e-05
1.87281e-05
1.86738e-05
1.87805e-05
1.8833e-05
1.90423e-05
1.97377e-05
1.98298e-05
2.07173e-05
2.09133e-05
2.20067e-05
2.23686e-05
2.36511e-05
2.53894e-05
2.57847e-05
2.78403e-05
2.83259e-05
3.07051e-05
3.48757e-05
3.58534e-05
4.27164e-05
4.43404e-05
5.15485e-05
5.37374e-05
5.34986e-05
5.5143e-05
5.63385e-05
6.06131e-05
0.000100685
0.00010807
0.000109197
0.000107768
0.000108613
0.000105395
0.000105193
9.74716e-05
9.52377e-05
8.34994e-05
8.03731e-05
7.0105e-05
6.71637e-05
5.89393e-05
5.63339e-05
5.01283e-05
3.55301e-05
2.41827e-05
1.52172e-05
1.48797e-05
3.37102e-05
3.28998e-05
3.01445e-05
2.94438e-05
2.73423e-05
2.67066e-05
2.51069e-05
2.45111e-05
2.33312e-05
2.21458e-05
2.19303e-05
2.10624e-05
2.08429e-05
2.02054e-05
1.99693e-05
1.95512e-05
1.91411e-05
1.90995e-05
1.89391e-05
1.89016e-05
1.89686e-05
1.89689e-05
1.92629e-05
1.97622e-05
1.98955e-05
2.06866e-05
2.08928e-05
2.19288e-05
2.23067e-05
2.35626e-05
2.52224e-05
2.56372e-05
2.7592e-05
2.81992e-05
3.05623e-05
3.46028e-05
3.17012e-05
3.13297e-05
3.13222e-05
3.16886e-05
5.47645e-05
4.99937e-05
5.66495e-05
5.70237e-05
6.1557e-05
9.85269e-05
9.4857e-05
0.000107771
0.000103962
0.000104179
0.000106982
0.000117108
0.000110914
0.000108872
9.66109e-05
9.36605e-05
8.241e-05
7.95997e-05
7.00555e-05
6.75022e-05
5.97864e-05
5.29317e-05
4.72759e-05
2.45785e-05
1.68137e-05
1.57804e-05
3.77996e-05
3.53816e-05
3.45128e-05
2.81534e-05
3.11634e-05
2.61057e-05
2.84843e-05
2.66168e-05
2.54017e-05
2.49519e-05
2.38753e-05
2.3557e-05
2.26678e-05
2.24391e-05
2.1723e-05
2.11922e-05
2.09282e-05
2.05563e-05
2.03907e-05
2.01739e-05
2.01165e-05
2.0073e-05
2.03088e-05
2.02656e-05
2.07602e-05
2.08372e-05
2.15594e-05
2.17885e-05
2.27894e-05
2.42329e-05
2.45369e-05
2.63343e-05
2.67759e-05
2.84142e-05
2.79955e-05
3.3377e-05
2.98973e-05
4.00345e-05
3.59393e-05
4.86243e-05
5.86611e-05
6.25855e-05
6.33055e-05
6.61582e-05
0.00012163
0.000118132
0.000114389
0.000118898
0.00011893
0.000121925
0.000121541
0.000114165
0.000111941
0.000100128
9.69128e-05
8.57827e-05
8.25544e-05
7.30748e-05
7.00093e-05
6.24047e-05
5.50211e-05
5.34754e-05
4.09589e-05
2.8989e-05
1.63974e-05
1.64851e-05
2.36536e-05
3.59427e-05
3.30342e-05
3.23019e-05
2.99897e-05
2.93643e-05
2.75893e-05
2.6103e-05
2.57159e-05
2.45151e-05
2.42244e-05
2.32247e-05
2.29799e-05
2.21869e-05
2.15654e-05
2.13636e-05
2.09053e-05
2.07715e-05
2.04554e-05
2.03934e-05
2.02417e-05
2.04086e-05
2.03872e-05
2.0791e-05
2.08874e-05
2.14804e-05
2.17646e-05
2.25965e-05
2.39891e-05
2.43197e-05
2.59972e-05
2.6557e-05
2.85731e-05
3.19636e-05
3.28797e-05
3.7996e-05
3.45373e-05
3.7771e-05
5.57714e-05
4.34365e-05
6.38145e-05
4.98881e-05
6.71661e-05
0.000107082
0.000124148
0.000114441
0.000114975
0.000116216
0.000118152
0.000128274
0.000128642
0.000127203
0.000114383
0.000112191
9.93816e-05
9.74891e-05
8.55606e-05
8.40526e-05
7.35199e-05
6.60331e-05
6.31833e-05
5.71e-05
4.91333e-05
3.08643e-05
2.22598e-05
1.75077e-05
1.89091e-05
3.88251e-05
3.82132e-05
3.11501e-05
3.47252e-05
2.74788e-05
2.70728e-05
2.74766e-05
2.66541e-05
2.77483e-05
2.64118e-05
2.62621e-05
2.4979e-05
2.43637e-05
2.38259e-05
2.32712e-05
2.29804e-05
2.24165e-05
2.23606e-05
2.18389e-05
2.18117e-05
2.15696e-05
2.16788e-05
2.16364e-05
2.18936e-05
2.20064e-05
2.25323e-05
2.34383e-05
2.3621e-05
2.49398e-05
2.51656e-05
2.70493e-05
2.95004e-05
3.02284e-05
3.14492e-05
3.7442e-05
2.86013e-05
3.92615e-05
4.42437e-05
6.22549e-05
6.84393e-05
7.36071e-05
0.000134315
0.000142313
0.000143286
0.000142225
0.000142926
0.000140278
0.000140111
0.000133265
0.000131049
0.000119651
0.000116219
0.000104972
0.000101212
9.1172e-05
8.7248e-05
7.88766e-05
6.92051e-05
6.77149e-05
5.9822e-05
5.84204e-05
5.21475e-05
3.97179e-05
2.23842e-05
1.71287e-05
1.68017e-05
3.98553e-05
3.69559e-05
3.593e-05
3.36452e-05
3.14536e-05
3.08961e-05
2.91867e-05
2.87565e-05
2.73701e-05
2.70081e-05
2.59367e-05
2.49478e-05
2.46541e-05
2.38327e-05
2.36022e-05
2.29668e-05
2.27938e-05
2.23617e-05
2.20908e-05
2.19515e-05
2.18943e-05
2.18583e-05
2.19786e-05
2.21018e-05
2.24234e-05
2.33008e-05
2.34627e-05
2.45633e-05
2.49805e-05
2.62851e-05
2.89244e-05
2.95404e-05
3.44464e-05
3.68309e-05
4.53455e-05
5.73315e-05
5.98754e-05
6.9309e-05
6.91129e-05
7.52365e-05
0.000123663
0.000125563
0.000130992
0.000129258
0.000133659
0.000142403
0.000142208
0.000135284
0.000133257
0.000121929
0.000118677
0.000107122
0.000103638
9.29204e-05
8.94726e-05
8.02384e-05
7.0987e-05
6.89804e-05
6.14986e-05
5.98059e-05
5.36999e-05
4.94516e-05
3.53512e-05
2.56943e-05
1.63255e-05
1.538e-05
2.98197e-05
3.68493e-05
3.4445e-05
3.22164e-05
3.16744e-05
2.99201e-05
2.94683e-05
2.80229e-05
2.7603e-05
2.64579e-05
2.53732e-05
2.51303e-05
2.42781e-05
2.40577e-05
2.33823e-05
2.31681e-05
2.27051e-05
2.23439e-05
2.22564e-05
2.21402e-05
2.20953e-05
2.21914e-05
2.22406e-05
2.25955e-05
2.33114e-05
2.34812e-05
2.45171e-05
2.48975e-05
2.62904e-05
2.86292e-05
2.92556e-05
3.40058e-05
3.62591e-05
4.50542e-05
5.45406e-05
4.62778e-05
6.87479e-05
5.11612e-05
5.8433e-05
0.000137583
0.00012252
0.000120843
0.000118871
0.000128772
0.000133927
0.000145321
0.000152792
0.000151033
0.000139699
0.000136912
0.000124914
0.000122039
0.000110143
0.000107306
9.62437e-05
8.62069e-05
8.35808e-05
7.48749e-05
7.26427e-05
6.52198e-05
6.33242e-05
5.72928e-05
4.19071e-05
3.00048e-05
1.92914e-05
1.77799e-05
2.0053e-05
4.10384e-05
3.83589e-05
3.74787e-05
3.52963e-05
3.4654e-05
3.27671e-05
3.23012e-05
3.06638e-05
2.93938e-05
2.88355e-05
2.77382e-05
2.73548e-05
2.63954e-05
2.61521e-05
2.53414e-05
2.47961e-05
2.44937e-05
2.41083e-05
2.39454e-05
2.37101e-05
2.36759e-05
2.36121e-05
2.38838e-05
2.38732e-05
2.44322e-05
2.45846e-05
2.54846e-05
2.69827e-05
2.73329e-05
3.0359e-05
3.14981e-05
3.51989e-05
3.89493e-05
5.33656e-05
4.90209e-05
6.9949e-05
7.12274e-05
0.000165385
0.000165113
0.000165793
0.000165089
0.000165524
0.000163324
0.000162888
0.000156718
0.000154639
0.000144227
0.000140955
0.000129924
0.000126038
0.00011539
0.000111006
0.000102204
9.00581e-05
8.8294e-05
7.82273e-05
7.65118e-05
6.81166e-05
6.64351e-05
5.98099e-05
5.8249e-05
5.30765e-05
3.88931e-05
2.25768e-05
1.75859e-05
1.67917e-05
3.98319e-05
3.90844e-05
3.65864e-05
3.5964e-05
3.38967e-05
3.33435e-05
3.1653e-05
3.02072e-05
2.97374e-05
2.84774e-05
2.81292e-05
2.70453e-05
2.67653e-05
2.58859e-05
2.5249e-05
2.50141e-05
2.45133e-05
2.43645e-05
2.40192e-05
2.39603e-05
2.37994e-05
2.40068e-05
2.40026e-05
2.44051e-05
2.46063e-05
2.51527e-05
2.66918e-05
2.6983e-05
2.95603e-05
3.09597e-05
3.62098e-05
4.97944e-05
5.26859e-05
6.6425e-05
6.94241e-05
8.07608e-05
0.000122558
0.000129747
0.000123002
0.000136223
0.000142773
0.000155274
0.000164222
0.000159283
0.000157492
0.000147003
0.000143861
0.000132669
0.00012906
0.000117846
0.000114004
0.000103609
9.213e-05
9.00521e-05
8.039e-05
7.84281e-05
7.02537e-05
6.83581e-05
6.17846e-05
6.00269e-05
5.48532e-05
5.14665e-05
3.43334e-05
2.64346e-05
1.65699e-05
1.64062e-05
2.21822e-05
3.77272e-05
3.70562e-05
3.5012e-05
3.42823e-05
3.26784e-05
3.08741e-05
3.06086e-05
2.92047e-05
2.88682e-05
2.77773e-05
2.73638e-05
2.65785e-05
2.56769e-05
2.5565e-05
2.49786e-05
2.48029e-05
2.44851e-05
2.42752e-05
2.42212e-05
2.42485e-05
2.42659e-05
2.46395e-05
2.47237e-05
2.54472e-05
2.66516e-05
2.6977e-05
2.94719e-05
3.06227e-05
3.68316e-05
4.85868e-05
5.15873e-05
5.48501e-05
5.65012e-05
5.46377e-05
0.00012986
0.000124537
0.000124353
0.000144917
0.000146076
0.000167799
0.000167777
0.000179285
0.000177434
0.000167679
0.000164651
0.000154062
0.000150643
0.000139543
0.000135732
0.000124705
0.000112638
0.000110127
9.89905e-05
9.66674e-05
8.67298e-05
8.45206e-05
7.62531e-05
7.41329e-05
6.75251e-05
6.55004e-05
6.02588e-05
5.47164e-05
3.26132e-05
1.84556e-05
1.8648e-05
1.6701e-05
2.17227e-05
4.19906e-05
4.11429e-05
3.89685e-05
3.684e-05
3.62006e-05
3.43686e-05
3.38284e-05
3.22978e-05
3.18188e-05
3.05803e-05
2.94556e-05
2.90626e-05
2.81566e-05
2.78657e-05
2.71773e-05
2.69551e-05
2.64542e-05
2.61297e-05
2.59782e-05
2.5915e-05
2.58888e-05
2.60676e-05
2.66477e-05
2.67252e-05
2.7941e-05
2.8477e-05
3.16582e-05
4.07447e-05
4.28954e-05
4.56383e-05
5.99149e-05
5.73542e-05
0.000143154
0.000127777
0.000142791
0.000151267
0.000165534
0.000176904
0.000188299
0.00018267
0.000180874
0.000171468
0.000168617
0.000158201
0.00015477
0.000143864
0.000139871
0.000129082
0.00011698
0.000114214
0.000102972
0.000100488
9.02893e-05
8.79927e-05
7.93186e-05
7.71602e-05
7.00829e-05
6.80387e-05
6.23853e-05
6.04546e-05
5.60386e-05
3.76804e-05
2.93672e-05
1.90903e-05
1.83153e-05
1.78601e-05
2.45602e-05
4.02041e-05
3.80213e-05
3.73444e-05
3.54362e-05
3.48987e-05
3.32039e-05
3.27451e-05
3.13221e-05
3.01659e-05
2.97648e-05
2.87871e-05
2.85137e-05
2.76739e-05
2.74755e-05
2.68671e-05
2.64953e-05
2.63678e-05
2.61747e-05
2.6175e-05
2.62118e-05
2.67051e-05
2.67963e-05
2.78095e-05
2.836e-05
3.09544e-05
3.92866e-05
4.13509e-05
5.46302e-05
5.94049e-05
6.58582e-05
0.000109931
0.000118017
0.000129012
0.000138512
0.000144043
0.000165132
0.000181085
0.00020328
0.000202251
0.000192372
0.000190548
0.000179705
0.000178026
0.00016593
0.000164372
0.000151242
0.000139805
0.000135881
0.000124712
0.000121162
0.000110324
0.000107328
9.73534e-05
9.51423e-05
8.60528e-05
8.45509e-05
7.64071e-05
7.55232e-05
6.8366e-05
6.3584e-05
6.16201e-05
4.49383e-05
3.09965e-05
2.19546e-05
2.10052e-05
1.81087e-05
3.47294e-05
4.46851e-05
4.24947e-05
4.16873e-05
3.94907e-05
3.9121e-05
3.69455e-05
3.56228e-05
3.47899e-05
3.35188e-05
3.30898e-05
3.17845e-05
3.17001e-05
3.04202e-05
2.97586e-05
2.94057e-05
2.88184e-05
2.87754e-05
2.82908e-05
2.83263e-05
2.81927e-05
2.85348e-05
2.86698e-05
2.99906e-05
3.41712e-05
3.52084e-05
4.58532e-05
4.81053e-05
4.57642e-05
0.000152449
0.000167673
0.00018386
0.000193463
0.000203542
0.000214303
0.000214223
0.000209131
0.000207309
0.000198907
0.000195969
0.000187001
0.000183474
0.000173984
0.000169716
0.000159851
0.000146786
0.000144476
0.000131494
0.000129083
0.000116818
0.000114199
0.000103554
0.00010078
9.20071e-05
8.90359e-05
8.20691e-05
7.89574e-05
7.33455e-05
6.70458e-05
6.58164e-05
6.09201e-05
5.96931e-05
5.04546e-05
3.47493e-05
2.18681e-05
1.84715e-05
2.12691e-05
4.45587e-05
4.38269e-05
4.15062e-05
4.07358e-05
3.89219e-05
3.69861e-05
3.64554e-05