/*--------------------------------*- C++ -*----------------------------------*\
| =========                 |                                                 |
| \\      /  F ield         | OpenFOAM: The Open Source CFD Toolbox           |
|  \\    /   O peration     | Version:  v2012                                 |
|   \\  /    A nd           | Website:  www.openfoam.com                      |
|    \\/     M anipulation  |                                                 |
\*---------------------------------------------------------------------------*/
FoamFile
{
    version     2.0;
    format      ascii;
    class       volScalarField;
    location    "1e-06";
    object      omega;
}
// * * * * * * * * * * * * * * * * * * * * * * * * * * * * * * * * * * * * * //

dimensions      [0 0 -1 0 0 0 0];


internalField   nonuniform List<scalar> 
10302
(
261948
274388
265977
269142
260372
251433
244589
238182
244922
266769
276978
295639
298654
305886
303074
340985
278243
310478
253682
245878
232656
228680
219501
219640
200591
200644
178918
177869
183700
153561
148106
134419
132467
111644
115290
129244
111919
108655
108929
109108
109334
114553
140942
109156
102682
99517.4
100452
97116.1
103387
102006
98897.6
97475.7
90695.1
94116.5
105014
89576.3
89004.5
93515.8
99265.4
120957
96776.6
95441.5
90174.2
96363.4
88763.1
203319
220890
206725
217722
204574
204782
193959
189857
189420
210482
210523
228071
223523
232294
224329
200119
204873
188693
192973
200166
182077
185590
174978
175498
162576
158872
143170
138159
117733
121860
125130
114439
113481
92270.5
90136.4
73728.1
81617.2
86649.6
80506.1
81932.9
80038.7
78720.6
67111.9
70466.7
74647.3
67017.3
67704.4
67510.7
63946.6
70459
63805.5
66235.8
62703.4
59828
43676.4
57107.4
60164.4
65359.1
63368.4
70526.9
62759.8
64484
61966.5
58402.2
62485.6
133272
143390
135278
144464
136715
141423
134629
136203
134744
145703
144149
156299
151379
161030
152698
144364
145146
153262
139701
144077
133779
135419
128741
128282
121703
118789
111452
106710
102990
99227.4
101564
92325.6
91174.1
76369.8
74443.4
65627.9
61602.4
63539.4
55548.9
55343.1
50665.5
49819.9
51834.5
42442.7
43568.5
37823.2
37710.7
36369
34500.8
37186.4
33143.2
33977.6
32823.3
31493.5
32165.1
28600.4
29524.9
33990.6
33123.2
38841.5
31469.9
31872.8
30207.9
28629.8
30839
116322
125762
118589
127841
121520
126962
122434
103218
126004
134786
138381
143301
146657
145565
148848
142337
141975
140016
136441
135993
130566
131079
125030
125680
117062
117232
105794
105815
95322.6
97816.5
98410
91089.9
90266.2
75255.6
74112.9
61027.5
60980.6
60881.4
54655.4
54243
48763.2
49004.6
44382.3
41815.1
41217
36768.1
36745.9
33408.9
33863.9
32333.5
32166.5
32618.3
30685.8
30793.2
26201.2
27766.8
28190
31800.5
32523.8
32928.5
30677.1
30729.8
27674.2
28082.3
27478.2
84383.4
90402.1
85604.6
92837.7
88669.5
95278.2
92128
94685.1
98405.8
105330
106899
112202
113089
115125
115616
113181
113517
111608
111136
111966
108523
109196
105548
105792
101150
100763
94737.2
93673
86761.7
86174.8
86468.8
83465.6
83136.1
71350.8
70034.3
59871.2
56432.1
55858.6
50020.5
49321.2
42626.9
42303.2
38610.3
35518.8
35014.1
30099.8
29667.6
26114.3
25786.6
24160.5
22840.3
22964.6
22008.5
21706.5
18999.8
18623.1
18768.6
20873.8
21011.6
21078.5
19259.2
19224
17900.9
17910.4
18516
61360
64623.8
61674.1
66562.7
63920.1
70608.3
68564.7
76041.3
76323.1
84098.5
84125.4
90285
89220.6
93981.1
91930.3
95421.8
92610.8
95513
92226.5
94285.5
91646.1
92651.2
90783.6
90738.2
89162.2
88111.1
86407
84378.2
81863.9
78070.6
78274.7
74751.5
74368.9
68703.1
67445.3
60710
55935.5
54938.5
49877
49100.2
42945.5
42470.6
38764.8
35556.3
34872.3
30196
29507.8
24849.7
24432.7
21767.5
19843.5
19732.6
18520.9
18177.2
17057.7
15221.8
15213.9
15968
15802.6
16896.9
14127.3
14111.5
13643.5
13530.3
14519.8
55197.7
58151.7
55572.4
59868.1
57752.6
63916.8
62799.7
70531.9
71878.8
78932.4
80929.5
84789.7
86614
88215.5
89830.8
90315.3
90652.1
90326
90299.3
90341.9
89663
90164.4
88598.5
89244.5
86676.3
87251.3
83985.7
83960.6
80785.4
77347.8
77032.3
73760
73661.8
68153.7
67425.8
61023.1
55909.6
55071.1
49949.3
49338.6
43394.2
42703.4
38503.1
35681.6
35316.7
30457.1
29758.6
25103.6
24510.2
21566.9
19738.5
19576.5
18154.9
18032.9
16457.9
15058.4
14958.3
15422.4
15608.7
15611.8
13884.2
13776.6
13072.6
13354.3
13812
43863.5
45843.2
43916.8
46916.9
45333.3
50548.6
49680.7
57420.9
58296.1
65838.4
66720.1
71166.8
71556.6
74335.3
74463.7
74937.2
76283.7
75656.8
76875.2
77893.9
77395.8
78142
77609.3
77887.1
77358.5
77140
76532.8
75862.3
74741.2
71864.5
71815.5
68639.6
68338.7
65695.4
64965.5
61548.3
56650.9
55727.1
51550.2
50845.8
46020.4
45263.7
40763.7
38113.7
37527.3
33534.9
32718.2
27428.7
26794.1
22429.8
19937.1
19574.9
17536.1
17303.4
15534
14008.3
13827.7
13330.2
13253.4
12998.9
11514.5
11455.5
11187.7
11286.5
11995.4
40392.1
42082.3
40471.8
43032.7
41785.2
46324.9
46074.2
46404.1
46349.5
61450.8
64042.8
67130
69339.6
70276.7
72619.5
72149.9
74659.4
73456.4
75249.5
74746.6
75618.1
75850.9
75602.4
76352
74997.5
76156.3
73988.6
75263.4
72894
71150.8
70671.3
67859
67779.2
64914
64832.2
60866.4
56604.6
55920.8
51655.3
51168.8
46595.9
45604.9
41679.4
38275
38137.8
34009
33227.7
28544.6
27112.2
23194.7
20087
19758.7
17654.1
17344.4
15874.4
13987.1
13779.3
13077.8
13150
12524
11378.8
11264.3
10893.5
11179.7
11639.3
32678.3
33880.3
32643.4
34371.8
33355.6
36987.5
36678.1
42676.9
43545.4
51971.8
53284.6
57277.8
58179.9
60435.5
61204.5
62022.1
63564.8
63287.8
64624.8
65116.8
65612.7
66214.2
66367.3
66902.7
66827.6
67261.5
67042.9
67393.8
67063.5
65768.9
65772.1
63579
63509.3
61899.7
61812.8
60025.3
56731.9
56107.6
52988.5
52503.9
49077.6
48394.8
44139.9
41296.8
40629.9
37753.2
37143.2
32691.2
31573.8
26338.4
22782.3
22123
19064.7
18718.2
16421.7
14386.1
14040.5
12460.6
12338.1
11243.1
10265.6
10180.4
9967.59
10097.6
10664.3
26159
27003.8
25991.1
27248.3
26405.9
29212
28782.2
35033.3
35715.9
43052.2
43452.6
48459.5
48195.2
51955.9
51157.7
54231.8
53845
55700.2
55191.5
56665
56488.7
57403.9
57700.1
57912.8
58831.8
58333.7
59910.1
58763.9
60718.9
58924.1
59797.9
58088.3
58057.2
57520
56901.2
56804.8
54379.1
54591.7
52219.2
51934
49824
49218.8
45747.8
43162.4
42323.2
40245.4
39838.7
36493.6
35913.1
30487.4
27130.9
26072.6
22120.5
22028.2
18513.3
16138.1
15510.8
12919.2
12753.3
11108.3
9864.02
9752.05
9481.84
9534.43
10053.1
24341.8
25002.4
24143.5
25240
24546.3
26980.8
26818.8
32518.3
33552.2
40331.3
41431.1
45764.2
46525.3
49216.8
49760.6
51297.2
52505.1
52766
53814.1
54354.7
55015
55608.8
56046.1
56578.1
56917
57345.2
57717
58024.6
58437.4
57953.2
58299.3
57077.2
57265.6
56385
56471.4
56016.8
54028.1
54032
51928.3
51837.8
49770.4
49356
46602.4
43288.8
42730.3
40425.1
40151
37411.7
36309.7
32112.1
27752.5
26870.2
23052.3
22465.7
19077.7
16442.4
15893
13158.1
12861.5
10907.8
9857.09
9732.92
9405.21
9503.3
9896.21
20144.2
20708.7
19999.7
20854.9
20240.2
22194.4
21882.6
26684.5
27377.6
33988.7
34506.7
39202.9
39274.7
42741.5
42407.5
45086.7
45353.7
46712.6
46796
47922
48143.5
48912
49391.9
49650.7
50558.9
50294.9
51665.5
50952.7
52682
51811.4
52657.4
51819.2
51931.5
51903.2
51439.1
51983.7
50631
51235.2
49837.1
49837.2
48919.8
48444.7
46755.2
44266.2
43684.4
41677.5
41327.5
39498.5
39070.8
35689.2
32461.9
31504.4
27597.8
27311.7
23024.9
19926.2
18968.7
15048.5
14761.6
11652.8
10088.9
9879.73
9285.44
9328.21
9540.92
18814.8
19307.7
18699.4
19424
18962.8
20598.8
20513.7
24870
25713.3
31830.5
32846.6
37000.2
37767.3
40572
41135.7
42887.3
44169.5
44485
45571.4
46036.1
46836.3
47339.2
47941.8
48412.2
48919.1
49329.8
49842.9
50194.6
50705.1
50819
51165.2
50731.9
50988.3
50666.5
50850.5
50853.3
50070.7
50279.8
49291.2
49413.8
48463.2
48347.7
47197.2
44266.8
43893.1
41724.7
41509.5
39770.7
39305.7
36837.6
33027.2
32318
28803.1
27899.4
23932.5
20484.3
19723.9
15643.1
15053.4
11838.4
10157.2
9946.58
9286.6
9328.19
9446.39
15597.8
16023
15480.4
16098.3
15620.7
16984
16762.2
20293.8
20881.9
26426.9
27127.6
31498
31705.5
35137.6
34978.2
37647.3
38210.1
39415.6
39751.7
40728
41121.7
41797.8
42361.1
42616.3
43511.8
43332.3
44615.3
44047.9
45636.6
45134
45931.7
45566.4
45742.1
46037.3
45658.5
46527.7
45751.3
46569.7
45907.9
46116.6
46048
45697.3
45521.2
43742.5
43668.5
41891.9
41583.1
40272.5
39925.1
38331
36147.2
35633
33050.7
32841.8
29233.1
25897.3
24497
18918.5
18418
13515.9
11127.7
10722
9499.15
9508.08
9281.14
14592.9
14928.5
14493.5
15027.4
14638.8
15791.4
15736.1
18889.3
19599.2
24647.7
25660.3
29677.3
30338.2
33251.4
33802.5
35733.8
37135.1
37503.5
38652.1
39106.3
39961.1
40413.7
41093
41492.5
42093.4
42431.7
43008.8
43319.4
43813
44190.4
44534.6
44504.1
44770.9
44804.9
44992.1
45133.9
45088.7
45387.3
45170.3
45428.1
45270.6
45361.9
45299.8
43533.4
43521.3
41777.7
41629.2
40260
40029.3
38674.9
36389.4
36088.8
33899
33330.6
31588.5
26688
25608.7
19827.6
18915.9
13787.6
11307.7
10910.4
9583.77
9549.69
9239.99
12027.7
12357.7
11958.2
12393.5
12026.3
13015.9
12817.4
15365.9
15780.8
20245.7
20851.8
25070.9
25239.4
28657.9
28507.9
31335
32035.4
33273.8
33711.1
34677
35139.1
35782.7
36383.8
36621.3
37523.5
37341.4
38623.4
38036.6
39587.4
39157.4
39949.5
39772.8
39971.4
40437.4
40070.6
41150.9
40527.8
41509.5
41173.4
41493.3
41900.3
41588.9
42406.4
41352.8
41843.6
40709.5
40556
39787.9
39377.6
38669
37363.5
37129.5
36031.4
36066.1
34641.5
32284.6
30917.8
24351.4
23738.2
16765.1
13261
12536.7
10279.2
10258.7
9344.59
11290.6
11533.1
11224.2
11568.3
11316.4
12124
12083.6
14269.1
14859.4
18854.8
19696.6
23411.7
24147.6
26910.9
27481.8
29453.3
31075
31432.6
32751
33206.5
34142.1
34548.2
35293.5
35620.7
36270.8
36531.4
37094.3
37370.3
37762
38325.7
38628.1
38809.4
39029
39253.1
39388.3
39523.7
39895
40170.3
40384.5
40639.5
40932.4
41057.5
41332.7
40943.1
41150.9
40336.2
40293.3
39540.5
39277.2
38574.3
37307.6
37153
36209.3
36181.2
36833.1
33005.6
32029.7
25438.7
24263.1
17640.5
13557.7
12863.7
10468.1
10336.2
9376.83
10740.5
11035.2
10682.9
11051.9
10798.3
11586.3
11577.1
11691.9
14126.9
17832.9
18936.8
22266
23395.7
25870.3
26792.1
28502.3
30496.1
30596.5
32110.9
32245.5
33401.9
33665.5
34439
34861.1
35311.5
35914.9
36157.1
36892.7
37033
37741.7
37722.4
38050.8
38289.6
38326.9
38859.5
38743.8
39450.3
39303.8
39769.4
39956.5
40121.6
40634.1
40500.4
40633.3
40567.5
40006.6
40071.5
39212.2
39252.6
38383.5
37290.7
37209.2
36339.1
36327.8
35959.4
33695.1
33109.5
26753.9
24938.3
18826.6
13903
13275.4
10790.2
10455.5
9507.21
8816.82
9009.16
8759.92
9018.48
8832.78
9415.01
9384.69
10753.5
11362.4
14322
15104.1
18150.2
18937.3
21663.8
22323.3
24291.5
25988.3
26451.2
27775.4
28190.4
29241.1
29612.6
30429.1
30719.4
31394.3
31623.8
32178.6
32417.7
32960.9
33387.3
33625.8
33904.9
34079
34368.7
34467.7
34746.4
35116.1
35341.6
35740.9
35962.2
36432.8
36533.8
36987.3
37255.2
37512
37512.9
37571.4
37492.4
37308.3
37212
36562.1
36501.6
36141.1
36077.5
36633.4
36782.9
36677.3
31998.9
30482.3
22905.2
17072.1
16052.5
12331.9
12060.6
10158.6
8296.88
8437.78
8227.82
8466.43
8302.05
8837.68
8836.47
10258.4
10689
13409.1
14187.1
17095.9
17944.8
20574.3
21356.9
23307.3
25078
25470.8
26868.7
27198.3
28314.3
28648.3
29482.2
29837.5
30456.4
30854.4
31339.2
31766.4
32165.9
32634.4
32752.5
33054.3
33263.7
33466.9
33793.1
33983.4
34459
34528.1
34950.3
35168.9
35538.9
35921.6
36249.3
36656.6
36790.1
36857
37065.4
36880.3
37061.9
36802.4
36264.4
36304.5
35883.5
36038.5
36454.8
36956.2
37119.2
33313.8
31401.2
24105.1
17676.2
16758.6
12864.4
12335
10419.8
6756.7
6890.39
6704.96
6901.57
6751.53
7175.96
7125.26
8207.52
8480.44
10606.2
11129.5
13569.5
14159.6
16638.2
17208.8
19456.2
21026
21671.9
22963.7
23486.5
24566.4
24987.3
25867.9
26152.9
26924
27085.8
27803.9
27873.9
28594.8
28875.5
29177.5
29425.2
29592.4
29915.2
29941.1
30368.2
30554.2
30893.7
31202
31442
31925.4
31978.7
32619.6
32915
33311.8
33622.1
33770.9
34147.1
34035.5
34484.3
34333.7
34447
34477.5
34379.2
35062
37225.2
37783.6
37282.7
35791
29645.1
22328.6
20830
15503
15050.3
11971.1
6369.08
6455.25
6331.25
6470.32
6376.78
6720.28
6731.67
7698.31
7985.46
9899.36
10448.5
12695.8
13355.4
15697.5
16350.3
18482.6
20238.3
20704.4
22103.2
22526.9
23712.3
24076.3
25018.8
25333.3
26092.7
26377.2
27009.9
27277.3
27803.5
28201.8
28378.9
28687.5
28864.3
29136.2
29330.6
29604.7
29951
30104.1
30487.1
30698.2
31122.8
31380.6
31848.3
32294.7
32535.9
32906.8
33152.3
33456.3
33647.4
33931
33861.8
34038.6
34035.9
34169.5
34649.4
36803
37496.6
37992.2
36400.6
30971.5
23211.6
21823.6
16175.2
15509.7
12377.7
5223.29
5339.68
5195.74
5344.75
5219.88
5529.84
5463.11
6211.89
6357.64
7873.22
8157.2
10054.8
10343
12519.9
12787.4
15058.6
16533.5
17417.1
18543.2
19231.5
20286.6
20791.5
21733.5
22014.5
22931.5
22994.3
23945.7
23810.8
24784.6
24917.7
25342.6
25534.9
25705.9
26096.6
26005.7
26620.6
26554.2
27069.1
27180.3
27438.5
27894.5
27828.7
28651.7
28693.4
29281.2
29551.2
29720.8
30387
30139
31093.3
31106.9
31384.6
31765
31598.9
32501.1
34385.5
35153
38512.4
38255.5
35567
28995.3
27073.9
20138.1
19690.1
14898.8
4944.17
5003.79
4919.74
5010.5
4946.64
5173.26
5177.34
5809.24
6004.72
7279.3
7665.3
9232.31
9747.01
11472.6
12110.3
13765.2
15713.6
16227.7
17769
18167.8
19469.8
19842.8
20902.8
21205.4
22059.2
22318.4
22988.2
23251.4
23722.7
24294.7
24483.2
24850.5
25002.6
25308.2
25442
25579
26020.5
26153.9
26532.3
26702.8
27084.3
27260.1
27494.2
28117.1
28336.4
28826.5
29036.9
29487.6
29670.9
30134.5
30524.7
30746
31101.3
31217.1
31672.9
33709.6
34369.1
38257.4
38129.7
38101.7
30051.9
28275.1
21040.1
20192.5
15608.4
4756.36
4825.34
4733.93
4833.02
4763.11
4993.41
4994.84
5588.14
5775.99
6955.3
7343.37
8813.37
9335.24
10992
11632.9
13326.5
15206
15644.7
17282.8
17629.7
18889.3
19225.6
20288.5
20633.6
21451.9
21816.9
22442.7
22833.4
23299
23843.8
23959.7
24335.8
24505.7
24771.9
25021.3
25212.1
25647
25676.1
26050.2
26201
26527.8
26832
27118.8
27704
27794.6
28270.9
28526
28884.1
29300.4
29606.3
30054.9
30259
30549.7
30901.4
31299.4
33208.1
33834
37474.4
37861.6
37808.2
31072.4
29488.9
22290.3
20913.2
16421.8
3935
3989.22
3916.87
3990.31
3931.97
4098.78
4084.38
4507.41
4629.4
5485.12
5734
6827.66
7156.93
8460.63
8868.96
10313.9
11867
12353.6
13857.4
14329
15702.9
16067
17174.8
17493.5
18431.2
18681.5
19466.4
19665.7
20355.1
20850.5
21065.3
21473.5
21626.6
21988.9
22086.1
22428
22694.6
22876
23184.6
23337.2
23674.3
23778.1
24152.3
24511.7
24730.8
25151.7
25318.5
25770.7
25877.1
26461.1
26933.6
27162.5
27671.2
27767.9
28423.9
29685.2
30173.3
34160
35319.8
38790.3
35494.5
34343.9
27712
26374.8
20407.6
3765.33
3791.41
3747.45
3795.35
3762.24
3894.15
3906
4283.8
4404.94
5168.55
5411
6405.69
6742.9
7935.84
8375.39
9700
11215.3
11662.3
13149.4
13591.2
14986.6
15371.6
16493.6
16789.6
17768.1
18045.5
18859.6
19115.2
19769.5
20285.6
20473.2
20897.4
21058.9
21429.1
21584.3
21919.3
22218.8
22352.6
22658.6
22800.8
23124.8
23295.7
23624.9
24009.8
24158.6
24568.1
24758.4
25174.6
25418
25860.4
26347.1
26574.7
27060.8
27311.4
27875.2
29026.1
29497.6
33181.1
34624.7
39008.8
36195
35347.8
28842.2
27317.1
21281.3
3152.16
3198.33
3135.14
3195.65
3141.39
3266.68
3236.15
3523.22
3579.82
4165.05
4281.44
5062.85
5194.71
6195.04
6331.16
7546.39
8585.48
9118.57
10235.7
10766.5
11943.7
12415.5
13572.7
13885.6
14931.2
15085.7
16123.2
16128.4
17113.8
17514.1
17871.9
18256.4
18432.9
18900.7
18894.2
19459.6
19556.7
19927.3
20108
20305.5
20655.7
20645.5
21179.2
21268
21635.3
21875.6
22011.6
22508.7
22389
23146.5
23386.9
23667.8
24204.5
24139.6
25029
25569.7
26020.9
28694.6
29299
34900.2
36343.8
36753.7
33389.6
32355.7
26429.3
3008.05
3027.68
2993.33
3026.56
3001.49
3088.39
3091.1
3326.47
3407.16
3880.54
4043.51
4657.44
4894.73
5639.05
5974.47
6825.98
8029.07
8281.99
9584.68
9903.96
11222.4
11574.7
12806.3
13138.1
14172.2
14439.8
15294.6
15589.3
16287.2
16938.9
17128.9
17646.9
17804.7
18229.7
18379.3
18703.2
19088.7
19214.6
19579.8
19712.1
20038.4
20171.1
20428.6
20807.5
20936.3
21306.2
21448.1
21770.7
21955
22293.8
22814.2
22998.2
23449
23654.5
24077.7
24935.2
25238.6
27369.3
28572.8
32983.8
36059.2
36767.6
34991
32944
28041
2923.49
2945.19
2910.8
2945.83
2919.51
3007.8
3010.13
3236.99
3307.57
3754.64
3902.41
4496.24
4706.78
5452.15
5736.65
6616.09
7722.03
8018.71
9200
9532.01
10771.8
11134.1
12302.6
12667.1
13720.8
14052
14878.1
15188.5
15891.7
16541.9
16721.3
17230.3
17400.1
17826.3
18013.4
18370.8
18761.4
18868.7
19205
19341
19654.1
19832.1
20122.5
20482.2
20587.6
20919.3
21078.9
21401.8
21639.4
21969.3
22413.5
22590.8
23016.5
23295.5
23737.1
24492.5
24780
26767.7
27961.9
32145.5
35486.1
36290.7
35105.8
33512.9
28983.3
2454.75
2477.47
2443.79
2475.55
2448.16
2518.71
2508.52
2669.91
2714.55
3032.01
3121.08
3541.06
3657.52
4199.01
4348.88
5020.57
5778.24
6029.55
6908.51
7191.94
8180.82
8496.9
9532.69
9837.14
10861
11150.7
12121.9
12337.9
13179
13833.5
14093.7
14650.6
14831.3
15338.3
15452.2
15927.4
16254.6
16461
16794.3
16945.6
17294.2
17385.2
17759.7
18020.3
18214.1
18515.7
18641.7
18987.1
19043.3
19484.8
19818.1
19993
20392.5
20477.6
20994.4
21476.3
21717.9
22842.3
23264.8
26501.7
31093.4
32398.1
34891.9
34582.5
32973.5
2371.16
2377.16
2361.01
2376.78
2366.09
2415.21
2423.15
2563.39
2612.43
2885.81
2980.36
3338.36
3478.74
3923.83
4129.03
4619.32
5425.09
5584.31
6491.58
6693.37
7702.08
7954.18
8993.04
9290.86
10287.7
10602.3
11530.1
11851.5
12629.5
13323.2
13538.5
14148.2
14318.1
14849.5
14999.7
15441.2
15839.3
15972.8
16357.1
16480.8
16842.2
16972.4
17276.1
17624
17743.6
18081.9
18203.3
18528
18672.6
18982.1
19377.8
19513.9
19898.7
20066.9
20416.4
20980.2
21158.1
22107.5
22685.8
24849.4
29835.5
31138.2
34874
34352.1
34337.9
2300.84
2319.01
2292.12
2318.36
2297.13
2358.06
2354.6
2491.65
2532.42
2792.47
2880.84
3220.39
3347.53
3781.67
3958.33
4487.73
5230.02
5386.62
6221.21
6420.71
7349.71
7606.57
8561.72
8869.15
9806.91
10165.4
11019.7
11417.4
12162.6
12955.3
13096
13695.6
13878.7
14377.2
14605.5
14992.4
15504.3
15562.5
15969.4
16093.9
16422.4
16625
16884.1
17298.4
17357.2
17689
17839.7
18105.9
18356.2
18594.9
18999.1
19133.8
19463.7
19730.3
20026.7
20582.1
20747
21620.4
22228.8
24514.1
28780.6
30029
33271.8
33792.3
33629.6
1943.69
1955.59
1937.09
1955.18
1941.2
1982.7
1980.45
2075.07
2106.29
2282.3
2342.43
2567.48
2648.91
2936.19
3048.36
3408.58
3888.49
4010.34
4592.56
4741.21
5430.06
5616.24
6369.19
6598.14
7371.57
7646.15
8421.96
8729.79
9473.8
10270.1
10493.1
11174.5
11355.3
11922.9
12106.2
12604.8
13077.6
13237.4
13672.1
13808.9
14194.7
14325
14659.3
15008.2
15129.7
15468.3
15585.8
15887.2
16014.9
16333.9
16696.3
16823.3
17161.2
17290.4
17633.7
18052.4
18196.3
18730.2
18969.7
20149.2
23148.6
23969.4
28172.7
29502.5
32419.5
1889.91
1894.56
1883.57
1894.86
1887.42
1920.44
1924.76
2011.71
2040.08
2201.7
2254.4
2463.68
2538.51
2803.81
2910.34
3239.43
3678.7
3802.01
4337.17
4482.92
5125.91
5302.47
6024.36
6236.82
7001.38
7252.26
8024.61
8316.63
9065.21
9812.26
10044.9
10732
10925
11538.5
11695.6
12225.9
12680.5
12858.4
13277.5
13418.1
13824.1
13952.7
14324.3
14651.3
14780.7
15102
15222.5
15545.1
15682.2
15998.2
16326
16458.8
16798.9
16946
17291.5
17661.2
17810.1
18306.7
18566.3
19563.8
22197.8
22985.6
27072
28534.2
31952.6
1612.05
1625.5
1606.9
1624.99
1609.09
1644.91
1635.4
1705.49
1718.16
1845.62
1871.2
2030.09
2056.91
2262.88
2291.62
2559.52
2830.78
2943.88
3280.29
3411.2
3835.27
3978.68
4489.16
4625.3
5230.23
5344.85
6040.97
6118.05
6884.78
7466.33
7734.76
8310.79
8510.34
9149.46
9247.37
9922.42
10300.2
10591.2
10997.1
11187.3
11645.6
11714.7
12221.3
12478
12722.8
13016.3
13136.4
13516.1
13503.7
13979.3
14213.8
14383.8
14722.5
14732.6
15204.2
15427.1
15624.8
16019.3
16035.9
16840.8
18054.3
18519.3
21487.7
21913.2
26363.2
1551.55
1557.02
1547.27
1557.15
1550.31
1574.82
1575.75
1632.9
1653.68
1754.99
1792.44
1914.21
1965.17
2113.15
2184.77
2366.59
2643.02
2701.57
3046.63
3123.35
3543.37
3650.13
4125.16
4270.34
4778.64
4976.71
5494.77
5755.54
6282.22
6959.78
7121.53
7764.76
7943.24
8524.82
8740.59
9253.88
9827.81
9978.02
10489.7
10642.6
11108.5
11263.7
11653.6
12058
12187.2
12560.4
12679.1
12997.9
13135.6
13427.5
13787.1
13901
14209
14345.5
14615.1
14993.8
15112.3
15463.3
15629
16076.8
17275.3
17622.6
19786.2
20991.8
24221.7
1524.87
1528.93
1520.72
1529.62
1523.6
1547.1
1548.96
1605.22
1622.48
1720.52
1751.75
1874.19
1915.48
2067.84
2123.64
2313.3
2562.33
2635.87
2941.93
3033.17
3411.9
3525.18
3970.75
4108.63
4611.15
4780.66
5324.48
5532.24
6091.9
6705.71
6885.88
7479.64
7662.07
8253.42
8443.75
9000.48
9554.04
9731.41
10229.4
10376
10831.6
10976
11401.6
11791.1
11929.8
12284
12407.6
12749.5
12881.6
13201.5
13523.2
13643
13957.9
14091.7
14400.5
14724.8
14849.8
15199.3
15362.2
15855.4
16879.1
17222.8
19316.2
20350.7
23551.4
1302.07
1309.18
1298.41
1308.67
1299.84
1322.3
1317.93
1361.6
1371.47
1447.77
1466.27
1555.92
1576.12
1685.69
1708.72
1846.69
2000.94
2054.25
2247.67
2311.66
2558.12
2634.02
2933.29
3016.8
3373.59
3460.22
3878.45
3962.25
4436.97
4875.15
5033.09
5490.66
5630.57
6127.4
6243.5
6781.77
7228.91
7448.4
7912.39
8089.49
8578.91
8698.62
9183.56
9552.27
9752.12
10127.6
10263
10658.8
10726.8
11154.3
11467.7
11612.5
11944.6
12011.8
12387.9
12657.6
12801.6
13116.9
13175.8
13611.3
14117.7
14328
15432.8
15687.9
18005.4
1263.02
1264.53
1259.55
1264.25
1261.15
1275.66
1277.98
1314.7
1328.8
1391.69
1415.52
1487.05
1519.02
1599.15
1644.36
1735.53
1893.09
1916.75
2115.14
2151
2393.77
2449.87
2728.58
2812.29
3114.95
3240.43
3545.34
3734.15
4047.72
4541.54
4635.52
5114.73
5243.78
5695.06
5876.78
6265.96
6824.31
6934.79
7470.76
7613.45
8101.04
8278.69
8673.96
9153.36
9271.9
9713.41
9844.01
10224.7
10380.1
10706.6
11097
11210.4
11546.1
11673.5
11943.2
12298.1
12397.1
12702.3
12834.4
13098.8
13658.6
13810.6
14607.5
15131.6
16515.6
1240.73
1244.17
1237.31
1243.63
1238.49
1255.83
1255.9
1293.29
1303.98
1366.47
1386.06
1460.03
1484.41
1572.39
1603.27
1709.81
1850.21
1886.98
2058.71
2106.46
2320.82
2383.32
2640.51
2719.87
3019.35
3120.24
3458.28
3586.45
3952.67
4380
4495.49
4927.58
5056.11
5502.05
5654.02
6099.4
6597.31
6731.98
7217.6
7362.64
7834.41
8004.56
8445.7
8917.83
9046.46
9451.23
9582.88
9957.32
10111.5
10457.8
10828
10948
11279.1
11418
11718
12045
12149.6
12450.9
12587.3
12902.8
13383.5
13542.9
14355.8
14763.9
16302.5
1064.51
1067.97
1061.73
1067.68
1062.88
1076.6
1075.14
1103.78
1112.12
1160.59
1174.98
1229.69
1245.71
1308.5
1327.03
1401.07
1489.41
1516.51
1623.79
1656.79
1792.54
1833.89
1999.15
2049.74
2246.7
2307.74
2538.58
2609.8
2874.09
3163.04
3249.3
3556.2
3648.82
3982.36
4083.34
4440.05
4814.78
4942.79
5334.21
5462.54
5869.14
5999.1
6416.4
6824.99
6979.67
7390.22
7526.37
7929.75
8054.42
8446.99
8824.01
8960.99
9321.23
9436.59
9790.54
10120.7
10246.2
10561.5
10658.8
10988.6
11338.5
11467.3
11938.7
12096.2
12919.9
1040.64
1040.69
1037.86
1040.45
1038.84
1048.47
1050.89
1075.78
1084.49
1129.62
1144
1194.09
1211.72
1267.44
1289.92
1352.42
1434.59
1456.85
1558.98
1585.1
1714.17
1748.1
1904.02
1950.03
2130.69
2195.41
2395.51
2487.99
2702.39
2986.74
3055.51
3358.39
3441.87
3758.07
3869.62
4182.97
4558.83
4659.72
5061.23
5172.39
5578.62
5715.01
6097.95
6520.7
6646.11
7065.84
7194.37
7602.68
7752.78
8126.44
8516.06
8633.23
9015.36
9137.09
9490.11
9820.56
9934.74
10270.5
10375
10695.8
11033.1
11146
11581.4
11771.9
12378.6
1013.45
1017.87
1010.8
1017.34
1011.57
1025.93
1023.35
946.515
944.32
1092.71
1113.01
1160.72
1177.3
1230.83
1251.13
1312.54
1399.84
1413.49
1514.33
1534.45
1656.45
1686.54
1830.79
1873.37
2041.23
2100.23
2291.88
2371.28
2583.05
2861.73
2916.19
3198.07
3275.25
3567.51
3676.8
3973.32
4373.72
4430.85
4816.65
4914.77
5287.3
5437.79
5784.35
6250.88
6321.33
6736.31
6866.12
7227.89
7429.71
7753.35
8192.23
8302.89
8644.82
8825.27
9100.4
9491.2
9575.42
9878.99
10055.1
10302.9
10700.5
10798.8
11192.5
11438.7
12006.8
884.803
886.086
882.886
885.703
883.464
891.506
891.85
907.58
914.42
949.574
961.547
996.009
1010.16
1047.35
1064.77
1105.48
1161.72
1174.81
1240.86
1256.48
1336.17
1357.19
1449.84
1479.51
1584.52
1627.95
1743.76
1806.07
1934.8
2119.81
2159.51
2354.98
2410.13
2610.87
2692.82
2890.85
3167.62
3226.23
3523.37
3602.97
3895.39
4011.52
4280.33
4642.68
4727.13
5086.15
5196.62
5518.84
5675.22
5975.94
6382.69
6495.17
6848.62
6999.25
7303.65
7695.7
7803.15
8127.33
8253.22
8538.14
8901.8
9009.11
9350.5
9500.92
9872.02
867.135
868.735
865.179
868.493
865.906
874.839
874.869
893.737
899.165
930.088
939.766
974.461
985.775
1024.33
1037.55
1080.77
1133.09
1147.51
1207.25
1224.56
1296.58
1318.09
1404.24
1431.11
1533.7
1568.2
1688.68
1733.52
1870.56
2034.8
2080.12
2257.51
2310.37
2506.78
2572.63
2785.04
3034.36
3102.68
3367.19
3446.69
3730.23
3827.96
4119.5
4448.28
4542.05
4870.42
4976.17
5307.91
5438
5763.73
6127.24
6242.37
6592.08
6727.34
7057.65
7417.52
7530.7
7862.55
7993.05
8295.46
8627.47
8734.52
9069.45
9212.18
9589.91
760.56
762.228
758.927
761.863
759.24
766.384
765.638
780.756
785.315
810.224
817.791
844.945
853.101
882.797
891.836
924.821
962.182
973.808
1015.77
1028.92
1078.58
1093.99
1151.81
1169.87
1237.61
1259.39
1339.1
1365.26
1458.28
1565.11
1596.57
1714.07
1749.52
1882.31
1923.7
2072.33
2240.49
2293.88
2480.24
2538.3
2743.7
2809.8
3030.68
3272.5
3352.47
3607.35
3690.16
3956.3
4045.61
4329.34
4631.85
4732.69
5030.55
5131.31
5434.02
5746.11
5856.59
6158.13
6258.49
6565.53
6882.61
6994.88
7307.05
7411.7
7745.74
745.267
745.57
743.789
745.609
744.496
750.123
751.047
765.007
769.587
792.386
799.634
825.135
833.577
861.14
871.081
901.13
935.549
946.903
986.401
998.668
1045.6
1059.52
1114.31
1130.95
1194.17
1215.77
1287.63
1317.34
1397.16
1497.41
1524.99
1637.05
1669.52
1794.05
1837.03
1969.78
2129.29
2175.05
2355.42
2407.04
2603.82
2671.19
2872.08
3106.36
3175.17
3426.55
3502.92
3761.43
3861.76
4115.75
4415.56
4505.54
4804.67
4910.33
5193.63
5503.16
5599.28
5903.85
6010.9
6299.65
6611.75
6711.71
7030.48
7148.33
7455.88
661.144
663.373
659.915
663.016
660.033
666.597
664.962
677.504
679.975
700.692
705.205
727.356
731.678
755.891
760.143
786.949
813.248
822.709
851.675
861.75
895.836
906.568
946.167
956.994
1003.63
1014.29
1069.79
1079.9
1145.62
1210.84
1232.42
1306.26
1326.65
1415.15
1433.35
1538.85
1641.87
1682.46
1801.47
1838.95
1981.52
2012.47
2180.15
2336.14
2401.08
2577.84
2630.56
2838.11
2873.41
3116.62
3334.41
3413.77
3656.57
3705.16
3983.67
4217.87
4313.7
4571.07
4618.82
4916.73
5159.42
5259.79
5538.73
5578.66
5912.26
645.108
645.314
644.047
645.23
644.493
648.501
649.402
659.97
663.969
681.24
687.35
705.741
713.096
731.902
741.074
759.356
787.243
793.019
823.464
830.301
864.548
873.165
910.683
921.893
962.056
977.72
1018.66
1042.36
1081.16
1152.73
1166.6
1238.51
1258.11
1332.9
1363.49
1428.1
1546.05
1566.36
1691.23
1722.36
1848.47
1897.96
2000.66
2187.5
2222.98
2406.9
2459.91
2629.43
2717.18
2873.49
3123.1
3185.69
3408.17
3502.39
3670.46
3970.44
4041.79
4285.97
4385.65
4583.02
4882.54
4961.04
5213.61
5328.8
5547.76
633.442
635.157
632.634
635.151
633.103
638.85
638.135
649.059
651.719
669.054
674.307
692.863
698.869
718.701
725.542
747.024
773.686
779.015
807.447
814.114
845.89
854.39
889.54
900.073
939.173
952.354
996.126
1012.78
1061.52
1123.04
1137.15
1202.45
1220.78
1293.27
1317.92
1397.71
1500.85
1522.21
1631.91
1661.86
1781.36
1823.24
1950.15
2111
2146.16
2309.54
2359.66
2529.12
2600.14
2775.39
2993.71
3054.24
3264.91
3351.53
3556.77
3809.32
3876.21
4105.93
4204.39
4419.54
4688.35
4763.1
5004.6
5123.06
5346.73
564.862
565.658
564.088
565.69
564.584
568.505
568.65
577.147
580.297
593.825
598.75
613.053
618.575
633.535
639.848
655.495
675.12
680.421
701.603
707.429
731.171
738.054
763.811
772.197
799.821
810.5
840.074
853.757
885.696
927.089
937.614
981.762
995.046
1042.41
1060.87
1111.02
1177.59
1194.07
1268.94
1290.34
1370.25
1401.44
1483.17
1592.12
1619.33
1736.03
1772.81
1889.12
1943.76
2064.02
2227.42
2273.55
2429.4
2496.04
2645.29
2843.74
2898.61
3080.01
3156.49
3324.23
3547.5
3611.76
3809.64
3900.15
4086.04
555.749
556.706
555.205
556.894
555.791
559.896
559.925
568.296
570.676
583.885
588.011
602.38
606.965
622.256
627.339
643.846
662.432
667.657
687.538
693.432
715.626
722.398
746.916
754.618
781.733
790.743
820.755
831.606
864.499
902.643
913.467
954.438
966.828
1012.84
1028.12
1079.44
1140.69
1157.84
1225.72
1246.22
1323.04
1349.05
1433.33
1532.49
1560.86
1667.6
1701.36
1817.86
1861.91
1986.38
2133.41
2178.2
2330.61
2386.79
2543.38
2721.94
2776.15
2953.82
3020.22
3197.33
3398.84
3461.43
3660.31
3740.24
3932.98
499.422
500.393
499.088
500.624
499.632
503.039
502.917
509.795
511.973
522.938
526.348
537.996
541.613
553.911
557.803
570.798
585.422
589.859
605.245
610.052
627.153
632.5
651.069
656.994
677.18
683.874
705.952
713.524
737.677
764.785
772.801
801.544
810.389
842.198
852.544
887.873
928.833
941.46
987.419
1001.66
1053.42
1070.64
1127.89
1194.55
1215.19
1288.46
1311.92
1391.89
1420.33
1509.54
1613.53
1646.17
1754.12
1792.11
1907.08
2038.03
2079.48
2210.63
2256.5
2393.32
2548.46
2598.6
2752.01
2806.9
2966.72
491.84
492.465
491.615
492.824
492.284
495.243
495.658
502.118
504.181
514.381
517.599
528.747
532.318
544.098
548.066
560.631
574.089
578.598
593.109
597.891
614.094
619.26
637.06
642.684
662.126
668.542
689.614
697.325
719.837
745.046
752.85
780.048
788.442
818.694
828.765
861.872
899.826
911.833
954.856
968.109
1017.16
1033.74
1087.22
1149.18
1168.4
1237.58
1259.35
1335.68
1364.64
1445.81
1543.53
1573.36
1677.35
1714.82
1821.81
1945.29
1983.07
2110.58
2156.56
2284.42
2431.84
2477.63
2628.58
2686.26
2833.32
447.353
448.442
447.316
448.815
447.906
450.867
450.548
456.16
457.594
466.504
468.847
478.292
480.649
490.647
493.058
503.701
514.849
518.377
529.959
533.704
546.537
550.528
564.476
568.586
583.824
588.053
604.81
609.101
627.467
646.247
652.102
671.912
677.729
699.961
705.858
730.988
757.545
766.649
796.395
805.661
840.068
849.567
889.008
930.896
945.37
992.328
1006.65
1060.62
1074.82
1137.71
1204.35
1225.94
1299.22
1319.52
1402.61
1488.2
1517.08
1608.83
1633.72
1736.91
1841.86
1877.56
1990.72
2019.81
2146.88
440.429
440.889
440.478
441.384
441.181
443.335
443.891
448.92
450.648
458.553
461.074
469.684
472.525
481.5
484.734
494.145
504.33
507.784
518.874
522.396
534.759
538.486
551.905
555.976
570.295
575.05
590.057
595.967
611.491
629.232