/*--------------------------------*- C++ -*----------------------------------*\
| =========                 |                                                 |
| \\      /  F ield         | OpenFOAM: The Open Source CFD Toolbox           |
|  \\    /   O peration     | Version:  v2012                                 |
|   \\  /    A nd           | Website:  www.openfoam.com                      |
|    \\/     M anipulation  |                                                 |
\*---------------------------------------------------------------------------*/
FoamFile
{
    version     2.0;
    format      ascii;
    class       volScalarField;
    location    "1e-06";
    object      p;
}
// * * * * * * * * * * * * * * * * * * * * * * * * * * * * * * * * * * * * * //

dimensions      [1 -1 -2 0 0 0 0];


internalField   nonuniform List<scalar> 
10302
(
-32663.8
-31347.7
-31596
-30449.6
-30806
-28732
-28283.4
-20207.9
-17478.5
-8784.22
-7479.21
-5276.41
-5312.26
-4337.11
-4305.21
-3025.12
-3405.53
-3311.24
-3061.31
-2733.25
-2646.19
-2472.44
-2376.65
-2328.08
-2225.74
-2186.52
-2034.76
-1903.17
-1299.17
-2237.13
-2460.38
-1072.77
-1029.03
-2166.12
-1834.17
-1736.97
-1994.5
-2147.44
-1020.03
-723.939
-1824.84
-1584.53
-1651.47
-2021.82
-2120.73
-2159.13
-2087.34
-1904.91
-1721.66
-1350.18
-1350.48
-1182.87
-728.302
-96.784
2004.77
2003.98
2003.49
1932.65
2000.86
1948.03
2031.97
1944.27
2391.88
1999.81
2063.49
-14498.9
-14012.2
-14221.2
-14487.3
-15021.9
-15745.9
-16156.8
-14470.5
-12841.3
-7960.68
-6843.94
-5098.58
-5172.8
-4279.18
-4270.2
-3039.52
-3401.82
-3323.39
-3066.96
-2742.54
-2661.42
-2487.03
-2391.46
-2342.86
-2239.37
-2204.68
-2051.04
-1921.72
-1307.74
-2072.72
-2296.26
-1560
-1514.42
-2045.46
-2048.75
-1748.07
-2037.81
-2035.75
-1468.95
-1279.12
-1763.15
-1812.65
-1650.5
-2021.82
-2119.93
-2158.9
-2087.15
-1904.85
-1721.5
-1349.32
-1353.43
-1187.79
-745.998
-114.498
1934.64
2000.31
1974.42
1917.83
1974.71
1955.43
2031.19
1948.68
2389.54
2001.56
2059.59
-5743.19
-5781.03
-5937.97
-6715.63
-7263.33
-9099.16
-9708.94
-11346.8
-9826.49
-7309.83
-6316.77
-4936.29
-4966.34
-4202.12
-4167.19
-2972.78
-3354.55
-3293.58
-3049.71
-2734.42
-2651.12
-2481
-2385.54
-2335.25
-2235.35
-2197.92
-2049.31
-1916.37
-1299.04
-2091.36
-2302.65
-1610.34
-1579.38
-2058.17
-2062.73
-1743.08
-2056.74
-2045.29
-1507.82
-1326.99
-1766.36
-1818.02
-1650.21
-2019.5
-2118.27
-2159.14
-2086.85
-1904.6
-1721.22
-1347.41
-1354.43
-1187.83
-745.352
-129.941
1794.7
2000.94
2000.84
1943.08
2000
1976.16
2034.8
1957.09
2379.23
1998.25
2052.12
-293.942
-394.213
-386.579
-755.847
-1257.48
-3840.91
-4772.76
-7332.31
-6862.31
-6510.84
-5714.85
-4714.41
-4726.22
-4096.04
-4046.32
-2925.67
-3326.86
-3267.13
-3032.86
-2731.53
-2649.72
-2483.74
-2387.73
-2336.46
-2237.26
-2200.08
-2052.32
-1915.96
-1293.1
-2083.4
-2294.7
-1629.53
-1590.95
-2060.28
-2065.14
-1737.53
-2056.48
-2043.06
-1510.51
-1329.99
-1764.06
-1818.58
-1647.19
-2017.07
-2116.56
-2158.71
-2086.1
-1904.09
-1720.68
-1344.02
-1356.3
-1187.61
-757.29
-153.496
1723.44
2000.7
2000.59
1939.93
1994.96
1978.81
2031.86
1965.16
2368.69
1999.53
2046.74
1587.76
1533.53
1552.32
1563.28
1440.68
-300.776
-1692.81
-4397.9
-5172.24
-5983.01
-5370.93
-4598.27
-4607.64
-4038.52
-4018.69
-2947.01
-3344.38
-3255.64
-3054.83
-2756.38
-2682.51
-2514.44
-2415.05
-2360.63
-2255.66
-2220.93
-2065.49
-1935.09
-1291.12
-2085.94
-2294.6
-1729.39
-1674.99
-2065.53
-2070.11
-1730.22
-2058.87
-2042.55
-1571.16
-1387.59
-1762.11
-1819.78
-1645.2
-2015.5
-2114.29
-2159.03
-2085.54
-1903.77
-1720.28
-1339.22
-1358.32
-1187.47
-762.524
-191.651
1428.08
2000.13
2000.9
1922.34
1973.51
1968.07
2017.01
1963.91
2361.41
2010.78
2050.18
2054.02
2014.6
2048.76
2062.95
2102.19
2005.91
1467.9
-2601.65
-3275.14
-4812.33
-4345.19
-4132.05
-4081.22
-3789.26
-3728.92
-2806.67
-3220.77
-3158.98
-2978.51
-2714.04
-2642.53
-2484.33
-2389.44
-2330.75
-2236.76
-2196.92
-2055.3
-1915.88
-1262.74
-2063.44
-2272.92
-1770.09
-1698.31
-2061.74
-2060.16
-1710.03
-2053.51
-2036.23
-1594.42
-1408.44
-1756.93
-1816.22
-1636.68
-2009.9
-2112.05
-2157.02
-2082.43
-1902.93
-1719.11
-1332.39
-1360.62
-1187.47
-770.632
-207.545
1301.85
1892.79
2000.4
1947.08
1987.22
1989.73
2018.49
1973.22
2335.94
2003.94
2032.53
2526.49
2399.19
2573.59
2408.64
2707.78
2497.12
2399.56
-1340.12
-2042.52
-3870.85
-3630.89
-3811.63
-3766.71
-3629.17
-3580.14
-2770
-3175.71
-3107.88
-2951.32
-2708.33
-2640.71
-2490
-2392.17
-2332.95
-2236.98
-2200.57
-2057.88
-1915.6
-1250.42
-2051.28
-2258.33
-1822.58
-1735.56
-2065.48
-2059.1
-1691.61
-2052.49
-2033.7
-1623.6
-1435.27
-1754.57
-1814.69
-1628.07
-2005.72
-2109.04
-2156.2
-2080.48
-1902.21
-1717.92
-1324.93
-1363.95
-1187.33
-780.789
-228.974
1177.67
1795.41
1975.27
1950.42
1982.65
1989.8
2007.93
1976.27
2312.61
2007.03
2025.51
2866.03
2654.63
2868.36
2570.31
3141.71
2887.34
3290.35
-276.273
-1542.74
-3327.84
-3158.82
-3569.9
-3553.41
-3486.7
-3472.48
-2725.87
-3127.57
-3030.15
-2908.76
-2689.46
-2629.49
-2484.24
-2386.5
-2322.57
-2228.9
-2192.31
-2052.66
-1911.79
-1225.43
-2025.84
-2232.7
-1872.44
-1767.71
-2065.9
-2049.8
-1662.41
-2045.59
-2026.97
-1652.3
-1459.42
-1750.74
-1810
-1613.93
-1999.51
-2104.2
-2156.55
-2076.95
-1901.08
-1716.38
-1315.18
-1367.17
-1186.78
-791.29
-250.773
1067.76
1684.67
1906.05
1929.29
1965.33
1985.24
1997.63
1976.48
2288.12
2013.13
2020.16
3248.86
2869.53
3164.91
2838.13
3582.77
3183.92
4002.3
2011.82
202.933
-2675.23
-2837.24
-3387.03
-3449.84
-3352.6
-3396.32
-2646.21
-3077.37
-2933.64
-2860.58
-2656.38
-2603.16
-2464.73
-2366.98
-2301.23
-2208.64
-2174.65
-2036.9
-1896.94
-1191.71
-1995.07
-2199.56
-1918.92
-1798.94
-2063.09
-2037.67
-1626.83
-2036.39
-2019.53
-1683.3
-1486.64
-1747.86
-1803.88
-1592.85
-1991.78
-2098.66
-2155.07
-2073.66
-1899.67
-1714.1
-1305
-1370.99
-1189.55
-804.14
-274.775
962.165
1576.24
1823.02
1910.04
1938.66
1976.66
1981.25
1968.94
2253.52
2013.12
2017.79
3437.96
2960.5
3418.59
2990.99
3920.96
3381.91
4578.19
2976.92
2113.49
-2432.42
-3023.8
-3540.77
-3705.57
-3424.11
-3568.16
-2729.64
-3166.42
-2927.19
-2906.97
-2680.47
-2646.14
-2496.9
-2397.96
-2325.5
-2222.71
-2196.46
-2044.8
-1923.7
-1181.68
-1985.28
-2174.68
-1983.7
-1847.84
-2076.73
-2041.93
-1596.52
-2039.73
-2017.88
-1728.15
-1524.19
-1753.22
-1803.1
-1570.13
-1989.33
-2095.07
-2157.84
-2072.36
-1903.36
-1716.1
-1292.85
-1374.82
-1189.65
-819.109
-300.715
860.591
1448.66
1723.18
1860.44
1887.69
1961.86
1954.83
1952.99
2218.03
2015.48
2012.02
3717.25
3282.34
3807.48
3336.53
4388.76
3675.63
5234.01
3834.97
3611.92
-1219.81
-1804.4
-2780.6
-2849.09
-2959.2
-3023.19
-2468.21
-2871.26
-2694.24
-2690.15
-2515.8
-2488.15
-2358.1
-2278.07
-2197.38
-2124.02
-2080.69
-1968.45
-1829.02
-1106.81
-1891.54
-2078.86
-1978.77
-1829.82
-2036.74
-1978
-1521.97
-1990.74
-1983.13
-1742.96
-1533.58
-1737.35
-1771.43
-1521.9
-1965.27
-2077.38
-2148.93
-2059
-1898.47
-1706.37
-1280.72
-1377.74
-1189.46
-833.232
-322.957
775.979
1352.96
1659.66
1888.82
1918.11
1984.19
1964.98
1961.85
2179.34
2012.02
2003.85
4070.86
3573.92
4212.87
3733.28
4737.54
3929.21
5767.3
4418.85
5005.88
460.53
-582.424
-2032.27
-2087.33
-2573.16
-2596.59
-2294.09
-2656.53
-2536.92
-2532.53
-2394.11
-2369.65
-2256.61
-2184.85
-2104.32
-2041.99
-1996.61
-1901.46
-1763.66
-1052.02
-1808.23
-1990.73
-1973.47
-1822.91
-2001.59
-1930.01
-1453.31
-1952.49
-1955.22
-1767.36
-1557.22
-1729.36
-1749.57
-1474.35
-1943.98
-2061.26
-2142.1
-2050.45
-1896.39
-1701.67
-1267.28
-1382.45
-1195.84
-853.134
-350.954
694.418
1239.04
1579.55
1908.57
1930.29
1990.67
1955.83
1953.74
2129.53
1994.09
2000.47
4328.35
3802.83
4575.05
3969.12
4973.05
4202.34
6216.59
4905.83
6200.98
2055.51
550.322
-1394.03
-1501.41
-2170.26
-2169.4
-2060.12
-2411.95
-2334.27
-2344.1
-2232.15
-2216.92
-2116.6
-2058.81
-1974.28
-1928.71
-1875.16
-1804.18
-1664.55
-978.449
-1702.22
-1871.79
-1933.3
-1781.25
-1943.56
-1855.2
-1364.19
-1889.67
-1905.22
-1775.85
-1563.87
-1711.29
-1710.48
-1405.61
-1907.11
-2033.23
-2128.61
-2033.65
-1890.74
-1690.43
-1246.44
-1385.04
-1200.14
-874.526
-376.481
628.923
1130.94
1508.02
1923.42
1932.68
1997.75
1954.08
1951.59
2085.12
1976.51
2001.87
4577.76
4157.44
4858.89
4172.27
5299.16
4532.02
6635.1
5261.97
7194.06
3914.2
2015.69
-591.836
-911.479
-1776.07
-1773.95
-1867.6
-2197.34
-2148.24
-2143.7
-2058.28
-2037.36
-1955.5
-1902.56
-1822.52
-1786.79
-1729.39
-1679.72
-1540.21
-896.192
-1570.7
-1732.98
-1851.3
-1710.49
-1857.12
-1758.35
-1259.31
-1807.89
-1841.05
-1766.29
-1562.68
-1684.31
-1664.72
-1329.74
-1864.98
-1999.92
-2107.71
-2013.63
-1882.46
-1678.64
-1224.68
-1389.22
-1209.21
-900.136
-407.905
557.55
989.005
1435.35
1935.62
1924.91
1980.83
1936
1934.28
2019.62
1950.72
1999.52
4923.8
4544.47
5104.87
4491.4
5620.67
4890.84
6961.8
5629.66
8109
5366.33
4627.94
394.193
-364.669
-1376.74
-1363.32
-1623.35
-1926.98
-1916.83
-1904
-1844.74
-1820.3
-1755.72
-1712.77
-1633.08
-1616.19
-1548.15
-1530.28
-1383.69
-799.426
-1418.42
-1569.2
-1731.54
-1601.06
-1743.7
-1633.66
-1139.39
-1699.56
-1749.73
-1731.97
-1535.66
-1641.52
-1598.95
-1232.47
-1798.81
-1944.33
-2071.82
-1977.72
-1866.5
-1657.07
-1191.18
-1390.76
-1215.81
-926.82
-438.859
519.867
888.164
1393.05
1950.13
1910.94
1977.89
1933.29
1932
1991.86
1947.03
2001.1
5343.96
4824.62
5405.38
4889.26
5952.35
5324.45
7243.13
6015.85
8905.14
6385.08
6952.06
2011.01
631.115
-763.344
-863.804
-1324.74
-1625.15
-1664.52
-1628.39
-1600.17
-1564.93
-1527.5
-1493.52
-1423.07
-1425.19
-1353.88
-1362.99
-1217.1
-696.152
-1250.66
-1397.97
-1575.57
-1468
-1601.95
-1492.9
-1004.06
-1568.84
-1638.39
-1664.83
-1489.98
-1578.96
-1521.16
-1118.93
-1721.05
-1879.08
-2021.6
-1935.07
-1842.48
-1631.6
-1151.12
-1392.82
-1228.8
-959.747
-477.07
469.947
763.349
1338.38
1955.47
1879.09
1980.05
1917.84
1916.33
1952.98
1927.09
1996.53
5615.48
5045.25
5740.86
5224.24
6268.88
5681.98
7486.91
6389.83
9622.67
7257.1
8890.39
5969.69
2011.14
-103.728
-268.464
-980.766
-1135.31
-1323.44
-1256.68
-1301.03
-1280.22
-1280.41
-1275.24
-1212.46
-1249.17
-1166.59
-1217.85
-1059.71
-614.165
-1100.29
-1238.95
-1418.17
-1327.91
-1458.23
-1348.29
-878.482
-1432.22
-1513.59
-1581.9
-1423.02
-1506.21
-1429.43
-998.848
-1626.43
-1789.68
-1952.29
-1869.39
-1806.07
-1592.36
-1095.16
-1392.47
-1239.97
-998.18
-521.06
419.115
681.442
1331.97
2000.25
1889.96
2000.26
1933.51
1930.95
1957.22
1940.22
2000.78
5897.51
5439.15
6122.85
5630.35
6685.52
6122.98
7812.43
6753.92
10187.8
8061.71
10610.1
9819.18
10249.9
1498.47
1017.95
101.217
-101.249
-581.123
-560.772
-768.012
-808.56
-866.81
-928.696
-872.595
-978.587
-874.309
-992.541
-809.327
-461.536
-873.657
-1026.46
-1181.01
-1116.43
-1243.64
-1136.33
-694.132
-1213.78
-1324.86
-1404.7
-1279.79
-1357.69
-1269.46
-818.329
-1455.54
-1641.34
-1813.42
-1746.62
-1720.63
-1501.1
-1001.03
-1356.79
-1231.32
-1021.4
-548.938
396.622
635.025
1337.86
2000.95
1897.2
2008.38
2001.31
1987.17
1992.68
2000.03
2003.83
6204.13
5798.17
6420.95
5987.74
7026.22
6522.41
7995.03
7157.45
10561
8525.83
11567.1
11645
14820.6
2015.16
1354
180.328
-483.585
-795.046
-934.383
-1026.29
-1094.66
-1099.62
-1117.22
-1069.85
-1093.73
-1035.46
-1060.17
-940.316
-548.831
-929.869
-1031.04
-1156.38
-1109.66
-1190.67
-1116.27
-649.648
-1169.53
-1248.8
-1348.25
-1243.19
-1298.08
-1221.86
-723.089
-1391.98
-1555.95
-1741.64
-1690.81
-1676.35
-1478.77
-943.908
-1367.96
-1263.84
-1079.81
-627.434
333.568
489.265
1269.13
1979.35
1671.64
1979.5
1896.98
1890.99
1922.78
1911.66
1988.56
6569.36
6168.08
6789.66
6416.74
7303.34
6940.98
8300.44
7690.01
10841.2
9142.84
12505.9
12831.6
16889
5561.63
2017.26
786.181
-358.961
-547.034
-911.296
-955.798
-1142.42
-1132.38
-1167.69
-1133.42
-1113.96
-1097.9
-1049.93
-988.697
-565.864
-918.442
-980.195
-1075.35
-1037.87
-1086.3
-1034.67
-560.273
-1055.26
-1111.25
-1217.49
-1127.72
-1175.97
-1104.36
-581.04
-1251.57
-1397.46
-1599.03
-1553.25
-1571.06
-1386.46
-825.393
-1331.25
-1253.17
-1116.81
-680.856
313.08
415.698
1283.31
2000.56
1597.5
2001.08
1881.71
1876.16
1916.01
1899.53
1997.64
6999.92
6568.22
7186.01
6909.8
7608.38
7413.24
8642.41
8157.84
11140.1
9647.39
13260.1
13480.9
17609.3
8364.56
5952.75
2009.49
277.785
-42.6321
-625.564
-749.286
-1083.95
-1113.54
-1216.4
-1199.03
-1167.53
-1180.54
-1075.91
-1061.95
-618.172
-933.597
-960.788
-1018.17
-989.167
-1001.37
-964.774
-494.567
-955.369
-987.964
-1084.48
-1010.81
-1045.3
-979.091
-446.629
-1104.71
-1231.92
-1434.09
-1399.72
-1443.76
-1276.31
-699.843
-1279.34
-1235.29
-1144.97
-734.747
290.819
338.218
1268.46
1893.58
1493.16
2000.2
1835.04
1822.87
1876.94
1857.21
1971.12
7395.48
7002.1
7577.11
7258.58
7953.11
7878.29
8976.82
8632.91
11402.2
10087.3
13701.7
13996.1
17802.1
10469.5
9506.88
7635.11
1222.09
518.473
-179.754
-339.767
-762.953
-838.058
-1058.33
-1065.67
-1097.48
-1125.99
-1027.96
-1037.58
-603.898
-897.207
-896.28
-934.719
-905.698
-901.659
-875.073
-422.862
-842.05
-852.164
-941.108
-873.904
-905.545
-844.637
-315.282
-941.101
-1043.76
-1248.07
-1214.87
-1288.79
-1135.21
-541.363
-1191.43
-1177.01
-1152.25
-778.386
277.148
256.578
1284.68
1885.63
1636.11
2001.59
1859.31
1818.62
1881.4
1856.2
1986.69
7794.22
7468.78
8012.33
7598.91
8347.38
8368.64
9369.26
9155.47
11691.6
10628.2
13982.8
14279.6
17688.2
11920.4
11683.7
12366.8
2065.37
2003.59
535.356
315.116
-244.997
-382.19
-756.48
-805.731
-949.269
-970.511
-917.184
-921.006
-530.677
-790.924
-777.627
-797.354
-772.124
-760.918
-739.672
-321.674
-698.484
-697.872
-771.768
-714.458
-739.062
-685.181
-172.064
-757.812
-840.577
-1032.75
-1006.38
-1095.64
-961.601
-367.867
-1067.56
-1085.21
-1117.85
-788.373
286.155
188.52
1287.18
1868.56
1764.94
2000.81
1784.45
1741.19
1832.44
1797.63
1953.52
8176.31
7920.42
8521.13
8022.51
8746.02
8835.29
9757.69
9631.42
11958.3
11140.9
14261
14411.1
17418.7
13060.1
13329.4
15151.2
8955.06
21217.9
1255.73
805.319
295.121
140.921
-243.93
-296.314
-560.965
-529.408
-649.508
-573.003
-359.767
-572.038
-594.612
-613.619
-590.839
-607.258
-572.567
-231.179
-541.778
-554.921
-611.295
-557.89
-591.308
-532.985
-65.3442
-583.535
-650.553
-830.455
-798.82
-911.761
-782.631
-202.315
-920.805
-956.394
-1055.81
-766.297
289.842
110.573
1269.22
1883.81
1977.07
2002.83
1961.86
1802.47
1875.89
1828.48
1991.24
8618.11
8380.4
9049.22
8497.7
9175.76
9326.79
10195.6
10151
12280.4
11729.9
14580
14674.8
17196.1
14168.6
14626.7
16999.1
13344.5
24206.6
2027.02
2001.48
1464.96
1233.04
893.587
836.888
424.153
485.735
67.607
238.069
110.527
-90.1759
-190.3
-241.155
-227.903
-298.221
-246.252
16.2394
-245.203
-298.277
-334.067
-299.348
-337.274
-282.094
148.126
-299.131
-379.141
-525.062
-503.465
-618.085
-490.32
50.8565
-642.379
-712.07
-850.288
-604.109
399.028
162.691
1301.15
2004.5
2016.66
2005.87
2001.34
2000.1
2002.31
2000.93
2018.87
9077.47
8961.88
9362.08
8963.95
9622.39
9819.23
10636.5
10640.9
12578.2
12240.7
14786.3
14886.5
17016.7
14692.7
15409.8
17828.5
15193.9
23179.8
14746.9
3974.59
2000.86
1349.07
727.166
578.128
133.815
81.1947
-292.441
-239.323
-310.913
-481.438
-507.653
-521.562
-492.58
-496.508
-469.37
-153.103
-404.092
-402.564
-422.003
-375.466
-376.852
-337.864
103.334
-316.425
-348.847
-466.742
-447.568
-526.597
-438.271
107.473
-560.338
-627.184
-768.439
-579.722
384.703
52.2375
1145.88
1712.29
2003.13
2001.78
1822.14
1546.29
1779.32
1690.74
1898.52
9508.17
9569.96
9626.5
9447.26
10056.6
10305.7
11071.5
11114.5
12879.3
12743.5
14996.9
15146
16987.3
15254.4
16113.8
18559.1
16868.2
23511.9
20837.6
11568.5
9927.27
2010.11
1144.72
825.268
420.68
300.965
-37.2645
-101.319
-189.171
-472.287
-478.819
-536.313
-517.61
-514.555
-512.043
-182.446
-425.28
-385.448
-394.761
-342.973
-323.151
-296.483
137.465
-238.278
-241.223
-332.759
-310.885
-367.368
-295.634
239.924
-380.787
-437.488
-581.372
-430.592
457.576
55.1248
1021.73
1468.51
2002.95
2006.33
2000.25
1715.92
1916.2
1668.74
1970.06
9998.37
9929.08
10024.4
10021.2
10529.7
10830.9
11558.7
11636.9
13250.2
13294.8
15278.6
15489.1
17095.5
15886.4
16748.6
18966.8
17932.9
23644.2
22820.4
15585.7
12787.6
17380.8
2009.76
1685.35
1060.96
862.59
526.644
328.619
143.983
-276.709
-322.631
-468.738
-473.581
-502.463
-507.558
-208.257
-417.397
-350.091
-342.894
-288.077
-248.229
-225.515
190.606
-144.386
-126.499
-191.164
-167.322
-194.497
-139.062
373.604
-190.03
-232.418
-357.584
-239.066
557.778
111.295
918.914
1347.96
2006.07
2008.72
2000.07
1619.95
1702.7
1409.8
1824.51
10674.7
10258.6
10453.6
10585.5
11002.5
11350.8
12036.1
12142.9
13614.6
13790.3
15535.4
15784.7
17213.7
16402.1
17377.7
19269.2
18774.6
23852
23266.6
18882.3
16969.6
26207
18743.6
2396.05
1565.42
1232.18
855.726
792.334
493.768
217.242
83.7357
-67.8039
-87.6889
-219.667
-175.134
-48.3663
-194.292
-180.139
-173.407
-128.384
-120.892
-76.4051
262.254
-10.0925
-1.09098
-49.3464
-13.6172
-52.7408
18.6275
480.301
-14.6392
-39.1687
-164.678
-49.8441
638.141
176.916
783.878
1140.7
1988.19
2010.23
2000.36
1881.37
1854.21
1586.16
2001.14
11356.7
10715.5
10880.3
11095.6
11449.5
11829.4
12491.6
12635.2
13990.2
14278.1
15832.1
16148.4
17434
16998.6
18034.5
19753.6
19431.1
23805.1
23442.4
21259.9
19918.7
30120.5
29023.3
14873.2
2043.37
2002.54
1802.02
1731.39
1524.51
1337.57
1186.05
1017.16
962.496
702.989
759.686
649.038
483.742
368.564
326.964
332.116
267.278
334.773
575.378
345.996
314.078
282.975
310.961
268.764
356.028
744.529
325.28
284.409
189.059
290.786
877.118
429.213
818.077
1182.49
2006.99
2069.21
2006.29
2004.24
2002.33
2001.11
2007.09
11707.7
11243.5
11478.7
11711
12029.3
12402.4
13048.1
13206.9
14454.6
14814.9
16172.7
16543
17682.6
17525.2
18544.4
20105
19903.6
23550.2
23388
22724.1
21716.5
31229.2
31818.9
21313.7
12291.4
4404.06
2007.68
1839.21
1523.87
1125.03
1042.29
748.066
663.768
385.089
342.061
249.016
49.7899
-10.3184
-29.6854
-1.43245
-6.71529
54.6718
346.72
156.824
167.444
172.587
206.378
215.486
272.803
666.195
299.791
276.691
226.499
300.433
842.102
399.549
654.402
988.114
1785.23
2016.03
2001.92
2001.08
1862.3
1527.59
1796.48
11973.6
11738
12046.9
12265.7
12583.6
12937.9
13565.8
13742.3
14888.5
15310.1
16511.3
16919.7
17965.1
18011.9
19031.6
20411.6
20464.5
23525.5
23373.9
23686.9
23495.3
31358.3
32142.7
25698.5
19442.5
17954.7
26800.7
2029.13
1782.64
1326.4
1229.22
1012.38
931.757
687.602
638.195
483.186
300.04
213.112
181.201
173.81
147.176
179.366
431.737
243.013
242.397
253.016
275.191
287.848
335.63
698.515
377.688
355.153
329.324
387.003
873.211
462.89
595.121
860.497
1476.96
2007.6
2000.08
2001.7
1918.98
1800.9
2001.15
12441.1
12207.9
12545.4
12723.3
13075.3
13403.1
14029.1
14240.4
15302.1
15766.3
16860.5
17310
18297.3
18523.3
19541
20811.2
21071.2
23659.4
23576.2
24410.8
24647.7
30912.6
31764.6
28071.3
23682.8
24194.8
38370.9
18057
2397.93
2001.93
2000.6
1817.7
1760.29
1635.54
1614.67
1529.81
1352.79
1220.93
1097.63
1035.04
857.344
876.218
876.29
716.964
626.283
594.808
604.615
553.555
627.279
892.864
606.483
581.919
560.587
614.875
1035.04
651.15
698.486
887.408
1369.01
2014.31
2007.54
2010.51
2004.76
2003.82
2004.31
13013.4
12927.3
13246.5
13379.1
13756.2
14037.6
14649.4
14890.4
15876.9
16348
17330.2
17809.5
18715.9
19065.7
20049.8
21183.8
21553.8
23739.6
23814.2
24965.7
25280.4
30198.5
31132.9
29050.9
25710
27196.3
38693.4
25634.9
16288.6
2028.78
2012.35
2000.35
1829.39
1538.07
1437.8
1344.64
1028.24
934.894
712.283
637.457
420.175
400.091
344.485
200.379
146.555
149.527
163.334
156.348
207.808
489.916
270.458
259.617
289.604
314.231
737.077
396.987
413.454
575.769
950.166
2003.4
2000.04
2004.87
2001.78
2000.72
2001.03
13505.8
13550.1
13823.8
13960.9
14351
14593.6
15179
15466.3
16377.9
16847.3
17748.6
18250.8
19110.7
19535.1
20508.9
21492.7
22000.8
23855
24126.2
25435.6
25976.1
29766.5
30419
29488.7
27573.1
29500.3
37063.8
29676.1
23826.4
15510.3
12975.8
3761.03
2014.31
2000.11
1785.17
1506.1
1255.74
1199.41
1018.54
942.92
756.613
675.521
622.746
366.828
341.218
255.984
230.685
192.699
175.674
430.844
185.662
184.887
208.212
203.141
619.061
295.041
312.808
421.619
649.563
1661.06
1498.73
2000.9
2000.24
2001.31
2002.9
14143.9
14198.6
14425
14584
14975
15186.7
15735.7
16090.4
16914.6
17403
18227
18752.8
19568.3
20063.6
21011.5
21896.7
22545.4
24123.6
24561
25892.9
26555.2
29486.4
29849.9
29643
28334.1
30111.8
34693.8
30519.4
26553.3
20505.1
20306.7
17050.6
20103.5
2094.81
2012.55
2001.6
1766.98
1721.19
1565.27
1516.33
1358.2
1250.1
1187.79
846.738
789.237
576.717
501.914
355.893
269.968
418.452
156.194
162.649
151.082
149.074
511.304
230.342
273.768
336.56
482.09
1381.92
1280.25
2000.42
2002.33
2004.42
2005.17
14835.5
14881.9
15076.4
15253.8
15632.4
15820.3
16316.9
16751.4
17481
17982.1
18735.4
19270.7
20049.3
20579.8
21503.4
22267.3
22992.5
24361.8
24905.1
26204.2
26927.6
29240.9
29600.6
29837.4
28880.7
30438.1
33030.8
30840.2
28093.4
23783.3
24470.8
23544
27910.7
17375.3
13443.3
13845.3
2004.94
1970.69
1721.43
1694.23
1558.55
1524.28
1420.35
1235.39
1151.11
976.699
936.658
693.75
718.723
668.841
475.563
463.065
354.694
422.442
618.233
405.199
437.637
413.91
535.438
1180.71
1083.12
1664.18
1711.55
2001.86
2006.72
15331
15377.2
15551.3
15740.3
16113.8
16294.1
16745.2
17282.5
17929.1
18415.2
19139.2
19671.2
20444.1
20998.7
21912.1
22604.1
23390.9
24621.1
25250.8
26500.3
27276.4
29132.2
29556.1
30036.6
29519.2
30760.7
32068.4
30818.7
28785.7
25501.3
26497.6
26220.6
29822.7
23318.6
21039.6
22430.7
54281.2
2080.87
2002.85
2001.66
2000.28
1970.61
1947.63
1884.06
1833.03
1785.99
1762.3
1648.68
1699.46
1635.83
1483.83
1412.01
1285.19
1329.59
1368.08
1150.27
1090.51
1002.09
1072.72
1431.66
1317.62
1678.06
1953.16
2005.21
2012.14
16154.1
16226.3
16399.5
16584.5
16920.1
17101.7
17497.7
18107.2
18673.3
19143.5
19810.9
20345.1
21066.1
21643.2
22497
23124.8
23959.6
25033.6
25721.7
26850.6
27652
29132.8
29598.3
30148.5
29926.3
30883.5
31561.6
30785.9
29169.9
26684.8
27875.9
27426
30166.9
25772.9
24542.9
24129.3
32119.1
17744.1
2944.39
2016.7
2007.84
2001.96
2000.38
1884.22
1874.12
1779.44
1744.84
1671.43
1585.55
1595.46
1323.84
1262.56
1107.42
1038.71
1081.99
802.341
760.068
657.551
668.239
943.534
821.467
1092.44
1354.34
1839.58
2007.67
16813
16930
17112.5
17318.2
17592.3
17805.5
18150.8
18792.2
19306.9
19762.9
20387.7
20925.2
21615.8
22189.8
23022.3
23561.2
24409.2
25399.1
26093.6
27147.2
27928
29161.5
29653
30247.9
30220.4
30977.3
31288
30859.1
29668.5
27795.1
28686.5
28277.8
30348.8
27661.4
27305.8
27390
30490.9
26414.4
20917.8
21056
25303.6
27578.2
2012.32
1990.4
1897.98
1824.99
1811.27
1722.01
1702.43
1651.31
1501.64
1453.83
1293.22
1277.8
1187.57
1021.93
964.507
816.044
847.84
920.756
828.055
933.274
1061.29
1442.53
2001.3
17231.7
17369.1
17570.8
17775.2
18032.6
18282.4
18638
19262.7
19750
20182.5
20796
21319.1
22009.2
22577
23398.7
23901.5
24765.5
25703.2
26398
27403.5
28157.8
29236.4
29754.9
30375.5
30493
31109.6
31271.2
31038.6
30205.1
28816.6
29370.2
29017.7
30228.1
28523.1
28392.5
28794.6
29605
29298.4
26534.5
29733.5
38357.4
36110.5
32240.5
2017.08
2006.24
2001.95
2001.16
2000.36
2000.08
2000.13
1986.81
1962.17
1931.61
1925.25
1949.73
1858.6
1799.18
1737.86
1733.24
1788.44
1649.27
1608.85
1647.32
1850.53
2003.8
18184
18308.7
18525.5
18685.1
18949.8
19162
19591.6
20153
20615.1
21024.2
21600.8
22111.8
22757
23320
24086.4
24542.7
25406.7
26258.4
26947.1
27848.5
28580.9
29491.7
30030.6
30601.4
30813.7
31287.4
31386.2
31223.3
30662.3
29663.6
30020.1
29721.7
30423.4
29293.7
29305.4
29736.4
29561.9
30565.5
29477.4
33683.3
41696.3
41047.8
47815.4
38022.9
33049.2
2015.65
2011.39
2005.85
2001.02
2000.58
2000.03
1998.63
1976.99
1933.86
2000.04
1822.81
1794.04
1719.67
1649.9
1728.08
1465.09
1428.01
1397.23
1495.03
2000.36
18962.1
19089.7
19295.4
19447.7
19705.6
19900.1
20382
20818.2
21272.9
21678.4
22248.1
22746.8
23367.7
23912.4
24658.6
25049.6
25893
26696.5
27358.8
28202.1
28889.6
29709.8
30235.6
30796
31050.1
31460.4
31521.9
31466.3
31048
30392.3
30625.1
30414.8
30869.6
30285.6
30388.9
30730.9
30493
32082.3
32096.6
36565.4
42817
44763.1
51683.1
49480.9
43343.3
20806.9
21705.6
32367.6
4841.17
2011.11
2000.63
2000.05
1960.13
1946.96
1946.94
1865.21
1844.39
1778.57
1755.47
1736.91
1608.81
1567.29
1484.56
1505.95
1673.25
19444.3
19574.8
19775.8
19947.5
20189.4
20433.2
20925.2
21449.6
21901.6
22163.3
22678.3
23156.9
23764
24300
25027.3
25404.8
26261
27027.2
27669.8
28473.4
29123.4
29889.2
30404.2
30962.4
31251.9
31634.2
31717.2
31743.1
31477.5
31117.8
31274.7
31170.5
31484.1
31237.5
31398.9
31756.7
31590.1
33032
33418.2
37365.9
42099.9
45055.3
50338.9
49365.8
42180.8
29684.1
32870.9
47253.7
33721
40191.1
2017.88
2009.3
2003.05
2002.05
2001.48
2000.44
2000.22
2000.2
2000.16
2000.31
2000.15
2000.11
2000.11
2000.1
2000.51
20529.1
20636.4
20815.5
20967.6
21196.6
21497.1
21929.7
22273.2
22703.7
23122.6
23602.9
24067.9
24643.9
25156.7
25841.5
26165.8
26990.8
27706.7
28315.7
29048.9
29660.3
30345
30846.2
31361.9
31672.8
32013
32120.3
32188.1
32003.1
31798.7
31903.5
31885.6
32111.5
32060.6
32278.5
32666.5
32732.9
34038.7
34804.8
38052.9
41678.3
44780.5
48781.5
47788.6
41956.9
34329
37665.9
49026.4
44113.1
56329.9
35198.4
67997.3
2018.99
2013.75
2009.46
2004.48
2001.22
2000.64
2000.34
2000.51
2000.28
2000.23
2000.26
2000.16
2000.41
21304.4
21408.4
21559
21718.3
21940.1
22262.1
22629.8
22775.9
23173.9
23729.5
24228
24671.2
25250.9
25728
26400
26693.9
27484.3
28160.9
28742.8
29437.8
30009.7
30658.3
31132.4
31644.5
31951
32300.8
32417.7
32562
32427
32362.9
32476.8
32505.7
32733.3
32798.1
33100.7
33498.7
33769.9
35018.3
36070
38819.5
41689.6
44390.7
47210.8
46423.8
43244
38458.3
41186.5
48978.6
49219.7
57371
50135.2
67347.9
29100.4
19303.8
20549.6
38342
4995.63
2013.16
2005.09
2003.02
2001.49
2001
2000.44
2000.12
2000.17
22073.5
22189.2
22343.8
22491
22742.2
23078.2
23401.9
23720.7
24120.5
24506
24933.8
25361.7
25904.4
26378.8
27016.1
27283.4
28086.4
28718.9
29282.4
29935.5
30477.3
31083.5
31538.5
32032.7
32342.9
32687.8
32836.2
33018.8
32949.3
33018.4
33150.8
33224
33466.5
33614
33971.3
34401.4
34852.9
35990.3
37139.6
39426.1
41774.3
44012.7
45954.2
45246.2
43242.4
40255.3
42297.5
46873.2
48440
53329.5
49622.4
54655.2
32794.6
24568
27920.5
48055.9
25976.1
30586.1
28366.4
2017.91
2010.99
2008.84
2005.41
2002.25
2001.12
22895.6
23000.4
23152.8
23301.2
23568.1
23845.5
24152.2
24447.7
24825.3
25217.7
25644.2
26061.5
26575.8
27030.8
27644.3
27872.4
28637.8
29243.2
29775.8
30393.6
30908.9
31481.7
31920.4
32400.8
32713.9
33066.5
33231.9
33468.5
33424.1
33570.8
33738.6
33853.9
34121.7
34331.6
34738.7
35149
35697.1
36750.3
37911.6
39837.4
41780.5
43653.4
45082.3
44764.4
43707.1
42181.7
43625.6
46528.2
48424.9
51231.5
49468.4
50152.2
37531.9
31386.5
34741
45762.3
36546.8
40588.5
40554.2
23927.4
16826.4
19405.3
28487
39106
2015.78
23676
23789
23934.8
24110.8
24352.8
24618
24909.9
25196
25553.1
25924.3
26337.4
26742.3
27227.4
27671.2
28253.6
28474.2
29235.8
29797.3
30316.6
30895
31396.9
31935.6
32367.6
32826.1
33149.4
33498.2
33694.1
33954.8
33961.9
34196.6
34387.9
34544.5
34831.5
35094.9
35527
35947.2
36595
37560.6
38680.8
40297.5
41927.6
43491.8
44640.4
44618.8
44144.3
43430
44498.6
46442.5
48045
49573.1
48315.1
47220.6
39388.3
34732
36459.1
41396.5
37753.9
38572.5
35477.4
27292.5
22857.8
27365.9
36882
30335.7
15169.1
24564.8
24662.8
24818.2
25014.7
25208.7
25473.1
25748.2
26035.9
26370
26733.1
27125.4
27528.5
27976.5
28414.3
28962.8
29142.8
29878.5
30427.3
30910.8
31463.4
31936.3
32453.2
32864
33314.2
33636.7
33987.7
34202
34497.1
34496.5
34794.7
35027.8
35213.9
35530.6
35824.2
36288.9
36679.4
37367.4
38279.4
39310.7
40701.4
42076.1
43401.4
44324.6
44512.2
44419
44182.7
45022.7
46330.8
47596.3
48480.4
47542.3
46028.9
41051.1
37765.7
38377.9
40414.6
38906.3
38489.7
35794.1
30573.6
28303.9
31501.5
36782.7
32950.8
26486.7
25070.5
25165.3
25312.1
25507.5
25705.4
25939.1
26216.2
26485.9
26810.8
27151
27535.4
27922.8
28364
28775.5
29317.4
29494.4
30201.4
30739.3
31192.8
31742.3
32188.3
32706.3
33102.1
33563.4
33889.2
34263
34502.6
34842.9
34873.4
35230.4
35512.5
35727
36088.3
36403.4
36907.8
37300.1
38019.5
38889.5
39833.8
41058.8
42238.8
43407
44192.1
44541.2
44690.4
44739.4
45421
46368.7
47276.5
47779.2
47023.1
45571
42292.4
39880.3
39925.8
40384.2
39568.9
38647.2
36207.5
32821.5
30893.2
32717
35468.5
32896.2
29691.8
26235.9
26325.8
26471.3
26649.1
26852.6
27071.1
27336.8
27604
27911.1
28233.7
28597.7
28970.4
29380.6
29776.2
30280
30424.8
31128.8
31621.6
32069.8
32566.6
33006.9
33478
33875.3
34299.5
34635.8
34990.5
35256.9
35591.4
35628.7
36018.8
36312.8
36562.7
36915.4
37258.4
37754.3
38134
38847.7
39645.7
40521.5
41572.7
42606.6
43606.8
44300.4
44735.9
45018
45216.1
45776.1
46459.7
47099.4
47353.2
46695.1
45442
43168.5
41379
41033.3
40825.5
40220.3
39194.1
37175.7
34962.1
33304.2
34339.8
35564.8
34002.5
32222.3
27024.5
27133.2
27285.3
27445
27647.4
27845.9
28102.5
28349.1
28650.1
28948.5
29312
29656.4
30064.2
30430.8
30925
31057.9
31721.1
32188.5
32618.8
33095.4
33516.7
33974.5
34358.3
34780.8
35109.6
35484.1
35750.7
36117.3
36159.1
36576.2
36902.1
37173.4
37549.9
37902.7
38422.8
38776.9
39480.1
40236.4
41034.2
41981.3
42879.9
43785.3
44386.3
44885.5
45252
45538.4
46024.8
46530.4
46994.1
47062.6
46529.9
45509
43884.1
42535.3
41949.3
41488
40915.8
39928.2
38374.1
36860.9
35699
36205
36714.1
35849.2
35009.5
27887.7
27993.1
28126.4
28279.3
28466.4
28663.1
28908.3
29151.4
29439
29720.2
30067.5
30396.7
30784.1
31140.5
31608.5
31725.9
32391.8
32835.8
33252.4
33703.4
34113.5
34552
34931
35342.2
35677.1
36050.3
36335.7
36712.4
36768.6
37238.9
37579
37870.5
38261.4
38625.4
39144.5
39478.1
40195
40901.3
41627.4
42477.7
43270.1
44087.6
44625.1
45177.8
45580.8
45909.6
46335
46726
47051.3
47037.1
46617
45805.7
44607.1
43553.3
42911.5
42340.7
41762.7
40867.8
39681.9
38595.8
37718.5
37936.3
38128
37702.9
37374.2
28786
28883.3
29006.6
29149.1
29322.7
29513.9
29741.1
29973.4
30240.1
30516.2
30849.4
31166
31537.9
31878.3
32329.6
32426.9
33058.5
33490.8
33888.5
34321.3
34718.1
35141.9
35513
35915.5
36251.5
36627.7
36920.3
37310.3
37364.8
37849.3
38208.2
38516.3
38918.4
39289.6
39813
40115.7
40810.8
41485.5
42157
42928.5
43640.7
44398
44865.4
45430.6
45861.5
46202.3
46592.3
46898.7
47156.1
47067.4
46747.5
46117.4