/*--------------------------------*- C++ -*----------------------------------*\
| =========                 |                                                 |
| \\      /  F ield         | OpenFOAM: The Open Source CFD Toolbox           |
|  \\    /   O peration     | Version:  v2012                                 |
|   \\  /    A nd           | Website:  www.openfoam.com                      |
|    \\/     M anipulation  |                                                 |
\*---------------------------------------------------------------------------*/
FoamFile
{
    version     2.0;
    format      ascii;
    class       volScalarField;
    location    "1e-06";
    object      p_rgh;
}
// * * * * * * * * * * * * * * * * * * * * * * * * * * * * * * * * * * * * * //

dimensions      [1 -1 -2 0 0 0 0];


internalField   nonuniform List<scalar> 
10302
(
-32718
-31403.7
-31653.4
-30506.6
-30863.9
-28786
-28337.3
-20252.5
-17522.5
-8818.74
-7513.24
-5304.5
-5340.06
-4361.09
-4329.04
-3045.93
-3424.8
-3329.93
-3078.72
-2750.63
-2662.03
-2488.31
-2391.14
-2342.58
-2239.01
-2199.68
-2046.63
-1915.01
-1309.78
-2257.47
-2480.09
-1123.1
-1081.39
-2184.38
-1853.4
-1743.25
-2012.11
-2160.83
-1070.05
-779.862
-1842.11
-1602.13
-1655.8
-2026.67
-2125.76
-2164.65
-2093
-1910.9
-1727.78
-1356.65
-1357.79
-1190.46
-739.042
-111.995
1972.03
1901.2
1885.67
1759.59
1825.58
1768.79
1850.42
1760.47
2205.74
1811.37
1872.72
-14558.3
-14073.4
-14284
-14549.4
-15085.2
-15804.6
-16215.9
-14518.3
-12888.7
-7996.98
-6879.9
-5127.87
-5202.02
-4304.16
-4295.24
-3061.6
-3421.89
-3343.24
-3085.13
-2760.62
-2677.95
-2503.57
-2406.57
-2358.02
-2253.21
-2218.57
-2063.56
-1934.25
-1318.94
-2083.36
-2306.97
-1598.05
-1554.71
-2054.1
-2057.24
-1754.94
-2044.15
-2042.03
-1506.36
-1320.73
-1768.58
-1818
-1654.83
-2026.71
-2124.97
-2164.46
-2092.83
-1910.84
-1727.63
-1355.78
-1360.6
-1195.16
-755.878
-126.865
1908.82
1907.2
1870.11
1749.87
1805.77
1776.2
1849.63
1764.88
2203.4
1813.11
1868.82
-5805.8
-5845.22
-6003.75
-6781.56
-7330.68
-9162.78
-9773.22
-11399.2
-9878.84
-7349.58
-6356.22
-4967.99
-4998.1
-4228.94
-4194.27
-2996.77
-3376.26
-3314.77
-3069.37
-2753.86
-2669.02
-2498.83
-2401.9
-2351.65
-2250.3
-2212.98
-2062.93
-1930.13
-1311.19
-2102.6
-2313.78
-1620.37
-1589.39
-2067.26
-2071.87
-1750.95
-2063.76
-2051.96
-1514.38
-1333.56
-1772.05
-1823.64
-1654.7
-2024.38
-2123.3
-2164.66
-2092.48
-1910.54
-1727.25
-1353.76
-1361.29
-1194.9
-755.013
-143.489
1766.26
1927.94
1921.08
1777.45
1833.14
1796.89
1853.23
1773.27
2193.08
1809.8
1861.35
-357.687
-459.536
-453.53
-823.245
-1326.25
-3906.08
-4838.23
-7389.82
-6915.8
-6551.38
-5754.71
-4746.83
-4758.2
-4123.56
-4073.54
-2949.66
-3348.64
-3288.88
-3052.62
-2751.32
-2667.72
-2501.77
-2404.23
-2352.97
-2252.43
-2215.21
-2066.34
-1929.77
-1305.52
-2094.69
-2305.97
-1639.49
-1600.91
-2069.55
-2074.32
-1745.71
-2063.53
-2049.95
-1516.98
-1336.5
-1769.83
-1824.22
-1651.62
-2021.95
-2121.58
-2164.23
-2091.73
-1910
-1726.72
-1350.3
-1363.14
-1194.64
-766.84
-166.917
1688.72
1927.81
1921.08
1774.96
1828.16
1799.54
1850.29
1781.33
2182.53
1811.07
1855.96
1523.82
1467.96
1485.07
1494.96
1370.76
-368.256
-1760.76
-4456.91
-5229.69
-6027.34
-5414.61
-4633.53
-4642.61
-4068.25
-4048.31
-2973.14
-3368.04
-3279.12
-3076.32
-2777.77
-2702.11
-2534.02
-2433.04
-2378.63
-2272.2
-2237.5
-2080.76
-1950.32
-1305.02
-2098.45
-2306.99
-1740.7
-1686.3
-2076
-2080.57
-1739.73
-2067.14
-2050.57
-1578.7
-1395.12
-1768.67
-1826.18
-1649.97
-2020.4
-2119.26
-2164.37
-2091
-1909.55
-1726.16
-1345.28
-1364.7
-1194
-770.446
-200.544
1414.22
1930.92
1923.07
1760.34
1809.08
1788.82
1835.43
1780.07
2175.25
1822.32
1859.41
1989.96
1948.88
1981.35
1993.97
2031.6
1935.82
1396.93
-2664.4
-3337.7
-4861.56
-4393.84
-4170.99
-4120.05
-3821.75
-3761.53
-2835.06
-3246.65
-3184.3
-3001.95
-2737.19
-2663.93
-2505.62
-2409.1
-2350.45
-2254.84
-2215.14
-2071.97
-1932.71
-1277.98
-2077.54
-2286.8
-1782.92
-1711.12
-2073.53
-2072.05
-1720.73
-2063.28
-2045.64
-1603.23
-1417.18
-1764.55
-1823.71
-1642.25
-2015.03
-2117.11
-2162.21
-2087.72
-1908.52
-1724.76
-1338.28
-1366.63
-1193.61
-777.848
-215.655
1287.34
1828.14
1926.68
1788.06
1825.45
1810.73
1836.91
1789.37
2149.78
1815.48
1841.81
2462.37
2333.39
2506.1
2339.57
2637.1
2426.53
2327.9
-1404.41
-2106.09
-3921.46
-3680.3
-3851.62
-3805.98
-3662.51
-3613.03
-2798.75
-3201.73
-3133.8
-2974.92
-2731.93
-2662.29
-2511.58
-2412.06
-2352.83
-2255.38
-2218.9
-2074.97
-1932.51
-1265.97
-2065.48
-2272.53
-1835.57
-1748.53
-2077.53
-2071.06
-1702.69
-2062.32
-2043.48
-1632.51
-1444.15
-1762.4
-1822.26
-1633.61
-2010.86
-2114.14
-2161.37
-2085.75
-1907.74
-1723.56
-1330.78
-1369.95
-1193.44
-787.905
-237.038
1163.69
1731.33
1902.5
1791.59
1820.9
1810.78
1826.34
1792.41
2126.44
1818.56
1834.79
2801.88
2588.8
2800.85
2501.14
3070.87
2815.83
3217.53
-343.442
-1609.52
-3382.63
-3212.84
-3613.64
-3596.68
-3522.99
-3508.56
-2757.43
-3155.95
-3058.23
-2934.45
-2714.92
-2652.95
-2507.6
-2408.11
-2344.19
-2248.9
-2212.38
-2071.25
-1930.41
-1242.73
-2041.79
-2248.52
-1887.12
-1782.37
-2079.45
-2063.4
-1674.96
-2057.08
-2038.24
-1662.71
-1469.75
-1759.92
-1819.04
-1621.15
-2005.5
-2109.89
-2161.8
-2082.24
-1906.44
-1721.86
-1320.88
-1372.93
-1192.63
-797.827
-257.966
1057.25
1626.86
1839.64
1776.07
1808.93
1806.25
1816.03
1792.61
2101.95
1824.66
1829.55
3184.67
2803.68
3097.38
2768.92
3511.89
3112.13
3929.19
1940.88
132.29
-2731.99
-2892.32
-3432.19
-3493.81
-3390.04
-3432.85
-2678.59
-3105.98
-2962.32
-2886.49
-2682.37
-2626.85
-2488.46
-2388.89
-2323.11
-2229.04
-2194.89
-2055.98
-1915.69
-1209.38
-2011.16
-2215.76
-1933.82
-1813.83
-2076.99
-2051.39
-1639.79
-2047.97
-2031.21
-1693.85
-1497.17
-1757.31
-1813.03
-1600.58
-1997.82
-2104.58
-2160.34
-2078.97
-1905.01
-1719.58
-1310.65
-1376.74
-1195.38
-810.602
-281.931
950.275
1519.1
1757.97
1758.62
1782.66
1797.74
1799.65
1785.07
2067.34
1824.65
1827.2
3373.78
2894.65
3351.06
2921.79
3850.05
3309.61
4504.46
2905.15
2041.54
-2492.85
-3083.18
-3589.73
-3753.8
-3464.61
-3608.23
-2764.48
-3197.59
-2958
-2935.08
-2708.43
-2671.8
-2522.51
-2421.66
-2349.21
-2244.74
-2218.51
-2065.39
-1944.25
-1200.89
-2003.18
-2192.55
-2000.38
-1864.51
-2092.28
-2057.47
-1610.95
-2053.11
-2031.14
-1740.39
-1536.36
-1764.24
-1813.99
-1579.51
-1996.95
-2102.32
-2163.92
-2078.37
-1908.8
-1721.64
-1298.43
-1380.44
-1195.36
-825.237
-307.384
851.277
1400.44
1667.54
1717.76
1739.28
1782.57
1773.26
1769.13
2031.85
1827.04
1821.65
3653.04
3216.46
3739.92
3267.27
4317.8
3603.11
5159.95
3761.73
3538.03
-1285.21
-1869.42
-2834.99
-2903.25
-3004.13
-3068.19
-2506.56
-2905.76
-2727.72
-2720.99
-2546.09
-2516.15
-2385.88
-2303.84
-2223.18
-2147.92
-2104.79
-1990.73
-1851.6
-1127.64
-1911.4
-2098.5
-1997.36
-1848.43
-2054.09
-1995.56
-1538.07
-2006.13
-1998.11
-1757.11
-1547.61
-1750.14
-1784.31
-1533.03
-1975.07
-2086.55
-2156.65
-2066.53
-1904.66
-1712.75
-1286.5
-1383.46
-1195.23
-839.204
-329.295
766.331
1311.19
1610.66
1756.38
1779.12
1806.51
1783.38
1777.97
1993.17
1823.63
1813.84
4006.63
3508.03
4145.28
3664
4666.56
3856.66
5693.2
4345.15
4931.47
393.393
-648.656
-2088.37
-2142.51
-2619.42
-2642.25
-2333.2
-2691.43
-2571.12
-2563.73
-2425.05
-2398
-2284.85
-2210.99
-2130.43
-2066.31
-2020.92
-1924.23
-1786.39
-1073.34
-1828.29
-2010.79
-1992.34
-1841.78
-2019.33
-1947.74
-1469.89
-1968.03
-1970.67
-1781.73
-1571.52
-1742.5
-1762.6
-1486.02
-1953.96
-2070.95
-2150.08
-2058.2
-1902.83
-1708.12
-1273.12
-1388.19
-1201.63
-859.101
-357.281
686.421
1198.02
1531.79
1777.97
1791.84
1811.34
1774.23
1769.86
1943.36
1805.71
1810.49
4264.11
3736.91
4507.44
3899.83
4902.06
4129.71
6142.31
4831.12
6125.16
1984.19
479.745
-1455.17
-1562.27
-2221.36
-2220.38
-2103.49
-2450.51
-2371.68
-2378.24
-2265.67
-2247.71
-2147.14
-2087.07
-2002.54
-1954.92
-1901.56
-1828.7
-1689.33
-1001.51
-1724.22
-1893.6
-1954.04
-1802.03
-1963.1
-1874.94
-1382.58
-1907.29
-1922.48
-1792.24
-1580.15
-1726.33
-1725.63
-1419.2
-1919.56
-2045.15
-2138.95
-2043.75
-1898.91
-1698.7
-1253.21
-1391.38
-1206.43
-880.601
-382.787
620.561
1097.16
1467.58
1801.17
1802.21
1820.62
1772.48
1767.7
1898.96
1788.2
1812.22
4513.5
4091.51
4791.27
4102.96
5228.16
4459.36
6560.78
5186.99
7117.9
3841.37
1943.27
-655.129
-973.723
-1828.88
-1825.97
-1911.85
-2236.53
-2186.45
-2178.38
-2092.58
-2068.66
-1986.63
-1931.3
-1851.21
-1813.5
-1756.08
-1704.75
-1565.21
-919.72
-1592.96
-1755.24
-1872.38
-1731.59
-1877.09
-1778.32
-1278.16
-1825.71
-1858.82
-1782.96
-1579.31
-1699.77
-1680.08
-1343.81
-1877.64
-2012.39
-2118.42
-2024.07
-1891.15
-1687.08
-1231.7
-1395.64
-1215.6
-906.262
-414.226
550.563
956.143
1396.4
1814.98
1795.09
1803.06
1754.4
1750.39
1833.46
1762.41
1809.88
4859.52
4478.52
5037.24
4422.08
5549.66
4818.13
6887.39
5554.03
8031.93
5290.81
4552
325.806
-432.868
-1435.36
-1421.82
-1673.08
-1970.84
-1959.17
-1942.3
-1882.2
-1854.49
-1789.54
-1743.92
-1664.19
-1644.99
-1577.13
-1557.2
-1410.89
-824.802
-1442.68
-1593.28
-1754.53
-1624.1
-1765.5
-1655.69
-1160.09
-1719.51
-1769.35
-1750.73
-1554.34
-1658.99
-1616.57
-1248.58
-1814
-1959.04
-2085.19
-1990.92
-1877.68
-1668.35
-1200.22
-1398.84
-1223.6
-933.675
-445.876
512.332
862.425
1361.59
1839.47
1790.78
1801.81
1751.71
1748.13
1805.72
1758.77
1811.71
5279.66
4758.66
5337.74
4819.93
5881.32
5251.72
7168.7
5940.07
8827.88
6308.68
6875.27
1939.96
561.36
-824.223
-923.696
-1375.67
-1669.94
-1707.88
-1667.45
-1638.62
-1599.78
-1562.05
-1525.27
-1454.71
-1454.56
-1383.23
-1390.48
-1244.57
-722.048
-1275.23
-1422.54
-1598.94
-1491.4
-1624.2
-1515.19
-1025.27
-1589.03
-1658.53
-1683.92
-1509.04
-1596.89
-1539.02
-1135.6
-1736.49
-1894.36
-2035.39
-1948.65
-1854.34
-1643.12
-1160.81
-1401.14
-1236.88
-966.813
-484.176
463.334
738.554
1308.53
1847.35
1760.05
1800.94
1736.27
1732.46
1766.86
1738.83
1807.09
5551.17
4979.28
5673.21
5154.9
6197.84
5609.23
7412.45
6313.79
9545
7179.13
8811.27
5894.02
1935.52
-170.979
-335.935
-1038.71
-1186.63
-1372.42
-1300.66
-1343.68
-1318.76
-1318.37
-1309.88
-1247.02
-1280.95
-1198.58
-1247.42
-1089.63
-642.007
-1126.97
-1265.42
-1443.51
-1353.32
-1482.35
-1372.69
-901.489
-1454.55
-1535.57
-1603.11
-1444.16
-1526.19
-1449.62
-1017.54
-1644.39
-1807.17
-1968.69
-1885.71
-1820.58
-1607.12
-1107.52
-1403.53
-1250.57
-1007.12
-530.142
411.209
662.108
1308.67
1909.54
1788.31
1826.52
1752.08
1747.13
1771.1
1751.96
1811.5
5833.19
5373.16
6055.18
5560.99
6614.46
6050.22
7737.96
6677.83
10110.1
7983.26
10530.5
9741.53
10172.6
1427.85
948.604
40.6202
-154.219
-631.896
-605.979
-812.179
-848.07
-905.801
-964.166
-907.849
-1011.1
-906.765
-1022.82
-839.578
-490.077
-900.7
-1053.49
-1206.78
-1142.24
-1268.27
-1161.02
-717.78
-1236.39
-1347.43
-1426.27
-1301.35
-1378.16
-1289.93
-837.767
-1473.79
-1659.45
-1830.27
-1763.33
-1735.88
-1516.12
-1014.37
-1368.28
-1242.44
-1030.84
-558.245
388.905
616.2
1315.53
1915.32
1797.84
1830.14
1819.81
1803.29
1806.51
1811.69
1814.4
6139.8
5732.17
6353.27
5918.37
6955.14
6449.63
7920.54
7081.27
10483.3
8447.24
11487.3
11566.7
14742.5
1942.37
1283.54
117.506
-537.296
-847.935
-980.37
-1071.72
-1134.85
-1139.44
-1153.31
-1105.67
-1126.87
-1068.3
-1091.03
-970.853
-577.838
-957.163
-1058.49
-1182.49
-1135.82
-1215.72
-1141.22
-673.702
-1192.33
-1271.79
-1370.11
-1265.1
-1319
-1242.59
-742.96
-1410.45
-1574.53
-1758.88
-1707.9
-1692.21
-1494.05
-957.871
-1379.85
-1275.48
-1089.92
-637.011
324.888
470.606
1247.14
1901.21
1575.7
1806.84
1715.56
1707.19
1736.66
1723.38
1799.27
6505.02
6102.07
6721.96
6347.35
7232.26
6868.19
8225.93
7613.81
10763.3
9063.56
12425.1
12750.5
16807.2
5482.16
1938.92
714.471
-422.048
-608.438
-965.095
-1008.1
-1188.35
-1177.47
-1207.95
-1173.32
-1150.24
-1134.08
-1083.42
-1022.1
-597.248
-948.094
-1009.81
-1103.59
-1066.15
-1113.31
-1061.79
-586.307
-1080.25
-1136.22
-1241.47
-1151.71
-1198.93
-1127.38
-603.087
-1272.55
-1418.33
-1618.79
-1572.95
-1589.53
-1404.82
-842.356
-1346.5
-1268.1
-1129.91
-693.644
302.273
400.938
1267.17
1944.5
1520.21
1834.23
1700.77
1692.57
1729.86
1711.22
1808.13
6935.56
6502.19
7118.3
6840.4
7537.28
7340.44
8567.89
8081.62
11062.2
9568.01
13179.1
13399.4
17526.8
8283.93
5872.74
1935.19
212.376
-106.528
-681.427
-803.759
-1131.54
-1160.22
-1257.92
-1240.03
-1204.78
-1217.46
-1110.1
-1095.87
-650.074
-963.677
-990.922
-1046.87
-1017.91
-1028.87
-992.25
-520.985
-980.656
-1013.35
-1108.84
-1035.21
-1068.72
-1002.44
-469.059
-1126
-1253.25
-1454.3
-1419.84
-1462.76
-1295
-717.32
-1295.09
-1250.82
-1158.79
-747.963
279.368
323.284
1252.11
1841.83
1419.5
1838.78
1654.14
1639.31
1690.81
1668.93
1781.64
7331.1
6936.05
7509.39
7189.17
7881.99
7805.48
8902.28
8556.66
11324.2
10007.7
13620.4
13913.4
17717.9
10385.2
9421.77
7552.81
1146.69
444.162
-246.519
-404.644
-819.883
-893.451
-1106.86
-1113.42
-1139.82
-1168.08
-1066.01
-1075.57
-638.969
-930.139
-929.043
-965.866
-936.862
-931.362
-904.912
-451.435
-869.586
-879.612
-967.6
-900.415
-931.04
-870.254
-339.898
-964.819
-1067.34
-1270.7
-1237.5
-1310.3
-1156.79
-561.66
-1210.43
-1195.78
-1169.45
-795.388
262.291
240.585
1268.31
1849.56
1581.96
1864.46
1686.83
1640.17
1695.22
1667.82
1796.83
7729.83
7402.72
7944.59
7529.48
8276.25
8295.81
9294.72
9079.2
11613.6
10548.5
13901.4
14196.8
17603.8
11835.4
11597.8
12282.3
1986.79
1925.99
465.679
247.19
-304.621
-440.146
-807.067
-855.346
-992.993
-1013.81
-956.072
-959.757
-566.341
-824.434
-811.033
-829.05
-803.832
-791.13
-769.928
-350.651
-726.37
-725.78
-798.662
-741.408
-765.004
-711.149
-197.089
-781.876
-864.65
-1055.84
-1029.44
-1117.66
-983.513
-388.714
-1087.06
-1104.57
-1135.73
-805.821
270.681
172.184
1270.41
1834.33
1712.2
1867.43
1613.01
1563.52
1646.28
1609.28
1763.54
8111.91
7854.34
8453.37
7953.07
8674.88
8762.44
9683.13
9555.14
11880.3
11061.2
14179.6
14327.9
17333.9
12973.9
13241.6
15063.4
8869.22
21132.1
1175.42
726.362
223.251
70.8713
-305.925
-357.086
-613.899
-581.992
-695.356
-619.031
-400.652
-609.888
-631.875
-648.656
-625.799
-640.223
-605.765
-262.607
-572.142
-585.035
-640.434
-587.033
-619.356
-561.262
-92.4491
-609.931
-676.747
-855.842
-824.262
-936.11
-807.27
-225.632
-943.229
-978.651
-1076.8
-787.433
270.817
91.2364
1249.81
1856.08
1942.15
1905.66
1813.4
1641.29
1691.88
1642.27
1800.78
8553.69
8314.31
8981.45
8428.24
9104.61
9253.93
10121
10074.7
12202.4
11650.1
14498.5
14591.6
17111.1
14082.1
14538.6
16909.8
13257.1
24117.4
1943.16
1917.83
1389.13
1158.65
827.878
772.696
368.432
430.837
20.0229
190.633
68.8484
-129.021
-228.683
-277.045
-263.698
-331.92
-280.011
-15.795
-276.024
-329.046
-363.696
-329.021
-365.86
-310.753
120.369
-325.914
-405.938
-550.932
-529.369
-643.069
-515.286
26.7752
-665.303
-734.929
-872
-625.663
378.663
142.902
1281.15
1977.05
1981.69
1928.64
1856.45
1841.89
1818
1814.68
1828.2
9013.03
8895.77
9294.29
8894.47
9551.21
9746.35
10561.9
10564.6
12500.1
12160.9
14704.8
14803.3
16931.7
14606.2
15321.7
17739.5
15105.9
23090.6
14661.5
3888.97
1922.79
1272.33
658.672
511.421
75.2197
24.2544
-342.588
-288.167
-354.704
-521.137
-547.122
-558.248
-529.116
-530.928
-503.643
-185.783
-435.221
-433.803
-452.017
-405.547
-405.865
-366.851
75.233
-343.469
-376.019
-492.988
-473.832
-552.007
-463.529
83.0181
-583.658
-650.487
-790.68
-601.652
363.952
32.0427
1125.4
1684.36
1968.61
1924.43
1681.82
1393.15
1596.27
1505.04
1707.99
9443.71
9503.83
9558.7
9377.76
9985.44
10232.8
10996.9
11038.2
12801.2
12663.7
14915.3
15062.7
16902.2
15167.6
16025.3
18469
16777.2
23419.4
20745.7
11475.5
9837.87
1921.06
1062.23
743.913
347.218
229.063
-100.818
-163.525
-243.952
-521.059
-526.395
-579.608
-560.408
-553.852
-551.289
-219.023
-459.95
-419.856
-427.67
-375.846
-354.667
-328.092
106.992
-267.749
-270.668
-361.3
-339.488
-395.078
-323.428
213.01
-406.739
-463.429
-606.381
-455.641
433.579
32.0309
998.589
1441.5
1972.83
1953.29
1887.79
1589.19
1744.12
1494.13
1780
9933.89
9862.93
9956.55
9951.72
10458.5
10758
11484.1
11560.6
13172.1
13214.9
15197
15405.8
17010.4
15799.6
16660
18876.5
17841.6
23551.1
22727.5
15491.3
12695.9
17288.4
1923.39
1600.4
983.759
787.112
460.063
263.473
87.2206
-327.678
-372.184
-513.702
-517.974
-542.933
-547.915
-245.489
-452.744
-385.152
-376.419
-321.577
-280.277
-257.615
159.742
-174.262
-156.4
-220.142
-196.363
-222.631
-167.213
346.273
-216.428
-258.841
-383.087
-264.526
533.218
87.7267
895.263
1320.86
1975.98
1960.13
1894.27
1500.07
1532.81
1237.04
1634.56
10610.2
10192.5
10385.8
10515.9
10931.3
11277.8
11961.4
12066.5
13536.5
13710.4
15453.8
15701.3
17128.6
16315.3
17289
19178.7
18682.5
23758.1
23171.6
18785.6
16872.6
26108.9
18647.6
2299.49
1474.49
1140.94
772.49
708.739
419.627
149.9
18.9825
-126.257
-144.89
-270.707
-226.07
-93.8757
-236.615
-221.313
-212.079
-166.691
-156.888
-112.564
228.132
-43.0086
-33.7389
-80.9372
-45.2754
-83.254
-12.1937
450.65
-43.5007
-68.0172
-192.626
-78.0623
611.025
150.689
757.757
1112.95
1958.99
1970.63
1922.75
1792.22
1712.15
1437.6
1819.57
11292.2
10649.3
10812.5
11026
11378.3
11756.4
12417
12558.8
13912.1
14198.2
15750.5
16065
17348.8
16911.7
17945.8
19663.1
19338.9
23711.1
23347
21162.7
19820.9
30021.1
28924.8
14773.9
1946.85
1907.44
1711.72
1643.94
1444.02
1265.85
1116.29
955.021
901.638
649.273
706.318
601.983
439.876
325.91
287.066
292.551
230.355
297.775
540.571
312.465
280.688
250.787
278.712
237.635
324.811
714.212
295.923
254.993
160.502
262.161
849.159
402.453
791.323
1154.62
1977.59
2032.69
1935.21
1923.39
1865.49
1855.82
1824.54
11643.2
11177.3
11410.8
11641.4
11958
12329.4
12973.4
13130.5
14376.4
14735
16091.1
16459.6
17597.5
17438.3
18455.7
20014.5
19811.4
23456.2
23292.5
22626.8
21618.4
31129.5
31719.8
21213.5
12193.7
4306.78
1915.89
1749.61
1440.99
1050.42
969.402
682.702
599.941
328.199
286.338
199.146
4.57254
-54.8795
-70.9007
-42.2514
-44.7785
16.827
310.989
122.8
133.439
139.874
173.649
183.872
241.216
635.513
270.07
246.897
197.546
271.479
813.892
372.375
627.188
959.954
1755.79
1978.92
1934.84
1924.66
1735.24
1388.29
1619.09
11909.1
11671.8
11979
12196.2
12512.3
12864.9
13491
13665.9
14810.4
15230.2
16429.7
16836.3
17879.9
17925
18942.9
20321.1
20372.2
23431.4
23278
23589.2
23396
31257.2
32040.4
25594.6
19338.3
17849.3
26696.9
1924.9
1682.74
1232.25
1135.92
925.799
846.624
610.106
562.037
414.636
238.114
153.45
127.015
120.909
99.3073
131.905
388.401
202.614
202.671
215.505
237.836
252.434
300.104
664.565
344.979
322.454
297.68
355.222
842.346
433.045
565.31
830.915
1446.79
1974.27
1953.87
1950.98
1829.07
1696.28
1852.46
12376.5
12141.7
12477.5
12653.7
13004
13330.1
13954.4
14163.9
15223.9
15686.3
16778.8
17226.6
18212.1
18436.3
19452.3
20720.6
20978.9
23565.3
23480.2
24313
24548.3
30811.3
31661.9
27966.9
23577.4
24088.2
38264.2
17950.4
2292.41
1903.32
1901.76
1726.13
1669.96
1553.36
1534.03
1458.13
1287.23
1158.32
1040.59
979.318
807.591
826.62
833.351
675.251
585.548
556.301
566.237
517.55
591.039
858.481
573.183
548.619
528.454
582.615
1003.76
620.793
668.08
857.59
1338.56
1982.07
1963.64
1962.81
1924.8
1904.4
1858.44
12948.8
12861
13178.5
13309.4
13684.9
13964.6
14574.7
14813.9
15798.7
16268
17248.5
17726
18630.6
18978.7
19961
21093.2
21461.4
23645.4
23718.2
24867.9
25180.9
30097.2
31030.1
28946.4
25604.6
27089.4
38586.7
25527.5
16182.9
1927.62
1911.43
1905.71
1735.96
1451.29
1353.33
1267.05
959.293
866.796
651.177
577.609
366.197
347.516
296.532
156.996
103.266
109.303
123.465
118.697
170.61
454.262
236.452
225.576
256.709
281.45
705.142
366.182
382.555
545.332
919.418
1970.38
1957.16
1958.26
1925.02
1907.66
1869.33
13441.1
13483.8
13755.8
13891.2
14279.6
14520.5
15104.2
15389.8
16299.7
16767.3
17666.8
18167.3
19025.4
19448.1
20420
21402.1
21908.4
23760.8
24030.2
25337.7
25876.4
29665
30315.6
29383.5
27466.2
29391.6
36953.7
29564.4
23713.8
15398.4
12862.4
3649.81
1902.69
1892.08
1677.84
1403.03
1160.4
1105.21
932.45
858.733
680.472
601.232
555.842
306.352
282.824
202.835
178.52
145.429
128.59
387.617
145.223
144.806
170.481
165.38
583.156
260.46
278.301
388.365
616.126
1627.68
1462.12
1962.91
1950.35
1943.83
1913.83
14079.2
14132.2
14357
14514.3
14903.7
15113.6
15660.9
16013.9
16836.4
17323
18145.3
18669.2
19483
19976.6
20922.6
21806.1
22452.9
24029.3
24464.9
25795
26455.4
29384.8
29746.5
29537.7
28227.1
30002.9
34583.4
30407.3
26440
20391.8
20191.7
16937
19988.9
1982.74
1901.26
1894.63
1667.03
1622.47
1474.32
1427.27
1277.58
1171.17
1117.51
782.579
727.539
520.473
446.731
306.474
220.632
373.843
114.199
121.163
112.25
110.232
474.747
194.98
238.515
302.675
448.045
1348.36
1243.98
1962.99
1954.92
1949.67
1923.25
14770.9
14815.6
15008.3
15184.1
15561
15747.2
16242.1
16674.8
17402.7
17902.1
18653.7
19187.2
19964
20492.7
21414.5
22176.6
22900
24267.5
24809
26106.2
26827.8
29139.2
29497.1
29732
28773.5
30329
32919.9
30727.3
27978.8
23667.3
24353
23425.2
27790.2
17254.7
13320.9
13724.6
1886.82
1852.81
1607.25
1580.33
1450.56
1415.99
1320.38
1141.36
1060.59
892.997
854.848
619.903
644.982
603.474
415.78
405.039
301.87
369.739
570.503
360.453
393.66
372.68
494.042
1141.78
1044.49
1625.34
1669.63
1958.43
1949.39
15266.3
15310.8
15483.3
15670.5
16042.4
16221
16670.3
17205.9
17850.8
18335.1
19057.4
19587.6
20358.8
20911.6
21823.2
22513.4
23298.4
24526.7
25154.6
26402.3
27176.6
29030.5
29452.6
29931.2
29411.9
30651.5
31957.4
30705.8
28670.9
25384.9
26379.3
26100.9
29701.2
23196
20915.6
22306
54158.6
1956.51
1882.41
1880.8
1883.46
1855.5
1837.11
1782.7
1733.11
1694.98
1673.31
1568.38
1620.91
1565.43
1420.05
1349.87
1229.64
1274.2
1318.5
1103.59
1044.56
959.466
1029.95
1391.87
1278.42
1638.72
1912.37
1962.12
1961.41
16089.4
16159.9
16331.4
16514.8
16848.7
17028.6
17422.8
18030.5
18595
19063.4
19729.1
20261.5
20980.7
21556
22408
23034.1
23867
24939.3
25625.5
26752.6
27552.1
29031.1
29494.7
30043
29818.9
30774.3
31450.5
30673
29055.1
26568.3
27757.5
27306.1
30045.2
25650
24418.5
24004.3
31995.2
17618.9
2821.58
1893.44
1888.88
1884.08
1887.92
1779.38
1770.94
1684.22
1651.68
1586.59
1502.74
1520.66
1256.01
1196.6
1047.86
980.181
1029.13
753.278
711.863
612.756
623.772
902.053
781.184
1052.12
1312.71
1796.33
1956.73
16748.2
16863.5
17044.4
17248.4
17520.8
17732.3
18075.9
18715.6
19228.6
19682.8
20305.8
20841.5
21530.4
22102.7
22933.4
23470.4
24316.6
25304.7
25997.4
27049.2
27828.2
29059.8
29549.4
30142.4
30113.1
30868.1
31176.8
30746
29553.5
27678.2
28567.7
28157.1
30226.2
27537
27179.4
27262.1
30361.7
26283.4
20786.1
20922.6
25170.6
27443.7
1879.99
1861.05
1768.7
1699.61
1686.07
1602.63
1583.12
1540
1397.8
1352.51
1199.9
1185.93
1104.33
945.822
890.78
748.813
781.455
860.784
772.793
879.082
1009.97
1390.76
1949.47
17166.9
17302.7
17502.7
17705.4
17961.1
18209.2
18563
19186
19671.6
20102.3
20714.1
21235.4
21923.7
22489.8
23309.7
23810.7
24672.9
25608.8
26301.7
27305.4
28057.9
29134.6
29651.3
30270
30385.6
31000.3
31160
30925.5
30090
28699.7
29251.4
28896.9
30105.4
28398.4
28265.9
28666.1
29475.1
29166.4
26401.4
29598.5
38221.5
35973.6
32102.3
1882.5
1869.86
1869.6
1868.89
1871
1873.98
1877.96
1875.04
1852.14
1830.68
1826.84
1860.37
1777.05
1719.95
1666.98
1662.82
1726.62
1591.18
1551.98
1595.13
1797.03
1952.52
18119.2
18242.2
18457.3
18615.2
18878.2
19088.8
19516.6
20076.3
20536.7
20944.1
21518.8
22028.1
22671.5
23232.7
23997.3
24451.9
25314.1
26164
26850.9
27750.4
28481
29389.9
29926.9
30495.8
30706.2
31178.1
31275
31110.2
30547.2
29546.6
29901.2
29600.9
30300.6
29169
29178.7
29608
29431.9
30433.5
29344.1
33548.1
41560.3
40910.3
47677.7
37886.8
32911.9
1881.11
1876.75
1875.29
1871.85
1876.67
1883.96
1884.28
1870.55
1830.07
1904.06
1735.4
1708.8
1641.82
1574.24
1659.1
1402.27
1366.49
1340.11
1438.46
1945.3
18897.3
19023.1
19227.2
19377.8
19634
19826.8
20307
20741.4
21194.5
21598.2
22166.1
22663.1
23282.2
23825.1
24569.6
24958.7
25800.3
26602
27262.4
28103.9
28789.6
29607.9
30131.8
30690.4
30942.6
31351.1
31410.6
31353.2
30933
30275.3
30506.2
30293.9
30746.8
30160.7
30262.1
30602.1
30362.3
31949.6
31961.9
36428.7
42678.4
44622.5
51541
49337.5
43197.9
20660.8
21557.7
32219.6
4691.79
1863.33
1855.74
1854.72
1818.34
1805.51
1810.49
1735.51
1716.53
1658.05
1637.06
1626.7
1507.66
1468.95
1394.71
1418.09
1592.85
19379.4
19508.2
19707.6
19877.6
20117.8
20359.9
20850.1
21372.9
21823.1
22083
22596.3
23073.1
23678.5
24212.7
24938.2
25313.9
26168.3
26932.7
27573.4
28375.2
29023.3
29787.3
30300.5
30856.7
31144.4
31524.8
31605.9
31629.9
31362.4
31000.8
31155.7
31049.5
31361.1
31112.6
31272.1
31627.8
31459.3
32899.1
33283.4
37229.1
41961.2
44914.6
50196.2
49221.6
42034.5
29536.6
32721.6
47103.1
33569.4
40038.6
1868.14
1858.64
1854.74
1854.84
1856.19
1863.52
1864.07
1871.94
1874.48
1882.53
1891.89
1894.42
1905.13
1906.47
1916.84
20464.2
20569.8
20747.2
20897.6
21124.9
21423.7
21854.6
22196.4
22625.2
23042.3
23520.8
23984.1
24558.4
25069.4
25752.4
26074.8
26898.1
27612.1
28219.3
28950.7
29560.2
30243.1
30742.4
31256.2
31565.3
31903.6
32008.9
32074.8
31887.9
31681.6
31784.4
31764.6
31988.5
31935.7
32151.6
32537.6
32602
33905.8
34670
37916
41539.5
44639.7
48638.8
47644.3
41810.6
34181.3
37516.3
48875.8
43961
56177.5
35047
67844.8
1868.33
1863.39
1861.99
1863.19
1860.49
1865.75
1868.34
1874.12
1883.34
1885.11
1892.63
1897.47
1903.43
21239.5
21341.8
21490.7
21648.3
21868.4
22188.6
22554.6
22699.1
23095.3
23649.2
24145.9
24587.4
25165.3
25640.6
26310.8
26603
27391.6
28066.3
28646.4
29339.5
29909.6
30556.4
31028.5
31538.8
31843.4
32191.3
32306.3
32448.7
32311.8
32245.8
32357.8
32384.7
32610.3
32673.1
32973.8
33369.7
33638.9
34885.3
35935
38682.4
41550.6
44249.6
47067.7
46278.6
43096.7
38309
41035.1
48825.2
49064.2
57213.6
49976.5
67187.1
28938.1
19139.9
20384.2
38177.8
4829.69
1848.41
1840.87
1838.94
1843.52
1843.03
1846.65
1849.97
1855.05
22008.5
22122.5
22275.5
22421
22670.5
23004.8
23326.7
23643.8
24041.9
24425.6
24851.6
25277.9
25818.8
26291.4
26926.9
27192.4
27993.5
28624.3
29185.9
29837.2
30377.1
30981.5
31434.7
31927
32235.2
32578.3
32724.8
32905.5
32834.1
32901.2
33031.7
33102.9
33343.5
33489
33844.3
34272.4
34721.9
35857.3
37004.5
39289
41635.2
43871.6
45811
45100.9
43095.1
40105.9
42146
46719.7
48284.4
53172
49463.3
54494
32631.9
24403.4
27754.7
47890
25808.5
30419.1
28198.6
1851.46
1848.43
1846.11
1847.47
1846.22
1851.08
22830.5
22933.6
23084.4
23231.1
23496.3
23772
24077
24370.7
24746.6
25137.2
25562
25977.6
26490.1
26943.4
27555
27781.4
28544.9
29148.5
29679.3
30295.2
30808.7
31379.7
31816.5
32295.1
32606.2
32957
33120.5
33355.1
33308.8
33453.5
33619.5
33732.8
33998.7
34206.5
34611.7
35020
35566
36617.3
37776.5
39700.3
41641.4
43512.1
44939
44619
43559.7
42032.1
43473.9
46374.4
48269
51073.5
49308.2
49989.9
37367.5
31220
34572.4
45591.9
36374.2
40414.3
40377.8
23749.8
16647.9
19225
28306.4
38923.9
1834.89
23610.9
23722.2
23866.3
24040.6
24280.9
24544.5
24834.7
25119.1
25474.4
25843.9
26255.2
26658.3
27141.7
27583.7
28164.3
28383.1
29142.9
29702.6
30220.1
30796.6
31296.6
31833.5
32263.6
32720.3
33041.7
33388.6
33582.6
33841.4
33846.5
34079.4
34268.7
34423.3
34708.4
34969.8
35399.9
35818.2
36463.9
37427.5
38545.6
40160.3
41788.4
43350.5
44497.1
44473.4
43996.8
43280.4
44346.9
46288.6
47889.1
49415
48154.9
47058.2
39223.8
34565.3
36290.2
41225.7
37580.9
38397.6
35300.5
27113.5
22677.8
27183.8
36698.6
30151.1
14983.6
24499.6
24595.9
24749.7
24944.5
25136.8
25399.5
25672.9
25958.9
26291.2
26652.6
27043.2
27444.5
27890.7
28326.7
28873.5
29051.7
29785.5
30332.6
30814.2
31365
31836
32351.1
32760
33208.4
33529
33878
34090.4
34383.7
34381.1
34677.4
34908.6
35092.7
35407.4
35699
36161.8
36550.3
37236.2
38146.3
39175.5
40564.2
41936.9
43260.1
44181.2
44366.7
44271.5
44033.1
44870.9
46176.9
47440.3
48322.3
47382
45866.4
40886.5
37598.9
38208.9
40243.4
38732.9
38314.1
35616.2
30393.5
28121.7
31317
36596.2
32762
26296.1
25005.3
25098.4
25243.5
25437.3
25633.5
25865.5
26140.9
26408.9
26732
27070.5
27453.1
27838.7
28278.2
28687.9
29228
29403.2
30108.4
30644.5
31096.2
31643.9
32088
32604.1
32998
33457.5
33781.4
34153.3
34391
34729.4
34758
35113
35393.2
35605.8
35965.1
36278.2
36780.6
37170.9
37888.4
38756.3
39698.6
40921.6
42099.5
43265.6
44048.7
44395.7
44542.8
44589.7
45269.2
46214.8
47120.4
47621
46862.7
45408.5
42127.7
39713.4
39756.7
40212.9
39395.4
38471.5
36029.5
32641.2
30710.8
32532.4
35281.5
32707.1
29500.4
26170.7
26258.9
26402.7
26578.9
26780.6
26997.5
27261.4
27526.9
27832.3
28153.1
28515.3
28886.3
29294.7
29688.5
30190.6
30333.6
31035.8
31526.7
31973.2
32468.1
32906.5
33375.8
33771.2
34193.6
34528
34880.8
35145.2
35477.8
35513.2
35901.4
36193.5
36441.4
36792.1
37133.1
37627.1
38004.8
38716.4
39512.4
40386.2
41435.4
42467.3
43465.4
44156.9
44590.3
44870.3
45066.3
45624.2
46305.8
46943.3
47194.9
46534.7
45279.4
43003.8
41212.1
40864.1
40654.1
40046.7
39018.3
36997.7
34781.9
33121.7
34155.1
35377.9
33813.3
32031
26959.2
27066.2
27216.7
27374.7
27575.4
27772.2
28027.1
28271.9
28571.2
28867.9
29229.6
29572.2
29978.2
30343.2
30835.6
30966.7
31628
32093.6
32522.1
32996.9
33416.3
33872.2
34254.2
34674.8
35001.8
35374.3
35639.1
36003.7
36043.6
36458.7
36782.7
37052.1
37426.6
37777.4
38295.5
38647.7
39348.8
40103.1
40898.9
41844
42740.6
43643.9
44242.8
44739.9
45104.3
45388.6
45872.9
46376.4
46837.9
46904.3
46369.4
45346.4
43719.3
42368.3
41780.1
41316.6
40742.1
39752.4
38196
36680.5
35516.4
36020.1
36526.9
35659.7
34817.7
27822.4
27926.1
28057.8
28208.9
28394.3
28589.4
28832.8
29074.2
29360
29639.5
29985.1
30312.5
30698.2
31052.8
31518.9
31634.6
32298.7
32740.8
33155.6
33604.8
34013.1
34449.6
34826.8
35236.1
35569.2
35940.5
36224
36598.8
36653.1
37121.4
37459.6
37749.1
38138
38500
39017.2
39348.8
40063.6
40768
41492
42340.4
43130.6
43946.1
44481.5
45032.2
45433.1
45759.7
46183.1
46572
46895.1
46878.7
46456.5
45643
44442.3
43386.2
42742.2
42169.3
41589
40691.8
39503.7
38415.4
37535.8
37751.3
37940.7
37513.3
37182.3
28720.6
28816.2
28937.9
29078.7
29250.6
29440.1
29665.5
29896.1
30161.1
30435.5
30766.9
31081.7
31451.9
31790.5
32240
32335.6
32965.3
33395.8
33791.7
34222.6
34617.6
35039.5
35408.8
35809.4
36143.5
36517.8
36808.5
37196.6
37249.2
37731.8
38088.7
38394.8
38795
39164.2
39685.7
39986.4
40679.5
41352.1
42021.6
42791
43501.2
44256.5
44721.8
45284.9
45713.7
46052.4
46440.3
46744.6
46999.9
46909
46586.9
45954.7
45046.6
44226.8