/*--------------------------------*- C++ -*----------------------------------*\
| =========                 |                                                 |
| \\      /  F ield         | OpenFOAM: The Open Source CFD Toolbox           |
|  \\    /   O peration     | Version:  v2012                                 |
|   \\  /    A nd           | Website:  www.openfoam.com                      |
|    \\/     M anipulation  |                                                 |
\*---------------------------------------------------------------------------*/
FoamFile
{
    version     2.0;
    format      ascii;
    class       surfaceScalarField;
    location    "1e-06";
    object      phi;
}
// * * * * * * * * * * * * * * * * * * * * * * * * * * * * * * * * * * * * * //

dimensions      [0 3 -1 0 0 0 0];
oriented        oriented;


internalField   nonuniform List<scalar> 
20379
(
2.01095e-06
6.02228e-06
2.0242e-06
5.86135e-06
2.03248e-06
5.94181e-06
2.04644e-06
5.58826e-06
2.0765e-06
5.6131e-06
2.11168e-06
4.80286e-06
2.11717e-06
4.67775e-06
2.12899e-06
2.78079e-06
2.01649e-06
2.48807e-06
1.93131e-06
1.10108e-06
1.7518e-06
1.04595e-06
1.59517e-06
6.96955e-07
1.47137e-06
6.53225e-07
1.36496e-06
4.9628e-07
1.22725e-06
5.17694e-07
1.11185e-06
3.7607e-07
1.044e-06
3.23825e-07
9.77265e-07
3.07473e-07
9.6226e-07
2.25808e-07
8.94661e-07
2.61865e-07
8.18713e-07
2.47572e-07
7.44078e-07
2.37962e-07
6.65062e-07
2.232e-07
6.00225e-07
2.05805e-07
5.36075e-07
1.88593e-07
4.79894e-07
1.77121e-07
4.27668e-07
1.56114e-07
3.59247e-07
1.67537e-07
2.478e-07
1.85681e-07
1.39047e-07
2.89624e-07
6.42431e-08
2.57352e-07
2.32556e-08
3.58806e-07
4.6045e-08
2.99841e-07
6.54144e-08
1.33856e-07
6.5092e-08
1.47298e-07
4.50831e-08
6.63362e-08
-9.24883e-10
1.83617e-07
-1.33481e-08
1.20043e-07
-2.18322e-09
2.7884e-07
1.20945e-08
2.7551e-07
1.07932e-08
1.25773e-07
-2.47902e-08
1.5349e-07
-5.31509e-08
5.76292e-08
-8.78918e-08
7.05819e-08
-1.0659e-07
5.64026e-08
-1.13684e-07
4.86052e-08
-1.18937e-07
4.66625e-08
-1.1472e-07
3.73476e-08
-1.13008e-07
3.84683e-08
-8.58987e-08
1.08217e-08
-7.73838e-08
3.40448e-08
-4.19177e-08
6.20183e-09
1.06586e-08
-2.41838e-09
4.85131e-08
1.63484e-08
7.59914e-08
-9.71161e-08
4.9843e-08
-2.49902e-07
4.89797e-08
-2.48652e-07
4.14382e-08
2.68059e-08
1.41629e-08
2.32179e-08
-3.39435e-08
6.32986e-08
-6.29061e-08
2.88835e-08
-6.88191e-08
2.2404e-08
-6.00872e-08
-8.73193e-09
-4.80997e-08
-1.19311e-08
-1.74684e-08
2.28501e-06
9.29562e-06
2.29776e-06
9.06667e-06
2.30755e-06
9.21144e-06
2.31597e-06
8.81848e-06
2.34772e-06
8.92744e-06
2.3784e-06
7.9476e-06
2.41273e-06
7.85706e-06
2.42518e-06
5.09008e-06
2.3241e-06
4.62568e-06
2.23562e-06
2.22002e-06
2.05595e-06
2.11764e-06
1.89777e-06
1.42949e-06
1.77387e-06
1.34733e-06
1.66388e-06
1.02667e-06
1.58304e-06
1.01328e-06
1.44956e-06
7.99252e-07
1.36729e-06
6.84503e-07
1.28709e-06
6.55354e-07
1.19344e-06
5.49632e-07
1.10952e-06
5.57294e-07
1.0276e-06
5.17172e-07
9.38815e-07
5.05193e-07
8.54626e-07
4.65017e-07
7.74249e-07
4.40667e-07
7.00636e-07
3.98249e-07
6.30449e-07
3.8115e-07
5.67155e-07
3.3432e-07
5.09424e-07
3.35342e-07
3.89432e-07
3.87744e-07
2.61173e-07
5.12808e-07
1.79278e-07
4.39085e-07
1.49645e-07
6.79183e-07
1.7391e-07
5.76494e-07
1.5235e-07
2.29011e-07
1.45759e-07
2.25491e-07
1.25292e-07
1.39919e-07
5.89847e-08
3.02244e-07
2.7188e-08
2.03055e-07
4.60572e-08
5.2019e-07
8.72009e-08
5.05492e-07
5.51637e-08
1.98057e-07
8.55636e-09
2.3985e-07
-3.36201e-08
1.30373e-07
-8.5502e-08
1.60143e-07
-1.10688e-07
1.21048e-07
-1.23641e-07
1.05195e-07
-1.31845e-07
9.83047e-08
-1.31695e-07
8.06349e-08
-1.32837e-07
8.16514e-08
-1.0903e-07
2.65749e-08
-1.04442e-07
7.30457e-08
-6.87691e-08
1.28251e-08
-2.06808e-08
-1.99603e-09
-4.22127e-09
4.63119e-08
1.78955e-08
-1.16258e-07
1.35282e-08
-2.66937e-07
1.41012e-08
-2.44587e-07
8.98166e-09
5.57561e-08
-2.10067e-08
6.05332e-08
-7.1172e-08
1.27075e-07
-9.81312e-08
5.5679e-08
-1.01054e-07
4.119e-08
-9.30443e-08
-1.67415e-08
-7.71746e-08
-2.78009e-08
-4.4353e-08
2.63869e-06
1.09782e-05
2.65356e-06
1.07655e-05
2.66182e-06
1.09608e-05
2.66924e-06
1.0709e-05
2.69249e-06
1.09274e-05
2.71562e-06
1.0174e-05
2.74592e-06
1.01827e-05
2.75323e-06
7.23393e-06
2.68557e-06
6.56708e-06
2.60476e-06
3.40277e-06
2.44122e-06
3.24275e-06
2.29179e-06
2.21336e-06
2.16128e-06
2.10659e-06
2.04589e-06
1.60783e-06
1.96835e-06
1.55161e-06
1.82017e-06
1.27201e-06
1.69239e-06
1.12416e-06
1.59963e-06
1.04502e-06
1.52399e-06
8.84519e-07
1.42887e-06
8.89605e-07
1.33978e-06
8.18002e-07
1.23879e-06
8.06934e-07
1.14511e-06
7.36715e-07
1.04724e-06
7.12793e-07
9.5832e-07
6.40519e-07
8.64114e-07
6.26768e-07
7.80962e-07
5.48048e-07
6.98267e-07
5.44175e-07
5.89887e-07
5.88902e-07
5.06011e-07
7.02022e-07
4.04492e-07
6.49109e-07
3.53393e-07
8.11476e-07
3.36418e-07
6.73012e-07
3.06817e-07
3.39686e-07
2.68671e-07
3.44407e-07
2.30253e-07
2.41821e-07
1.81537e-07
4.11708e-07
1.19153e-07
3.22473e-07
1.10802e-07
5.76688e-07
1.21447e-07
5.40183e-07
8.79418e-08
2.75597e-07
3.98374e-08
3.31693e-07
-1.35793e-08
2.16893e-07
-6.90112e-08
2.54943e-07
-1.02921e-07
1.96116e-07
-1.23614e-07
1.71156e-07
-1.39016e-07
1.58754e-07
-1.45784e-07
1.32382e-07
-1.52833e-07
1.31948e-07
-1.37241e-07
5.1586e-08
-1.39373e-07
1.188e-07
-1.09006e-07
2.48515e-08
-6.1032e-08
-4.27794e-10
-3.30083e-08
7.18018e-08
-7.50514e-09
-1.3101e-07
-2.45784e-08
-3.01841e-07
-3.11466e-08
-2.89027e-07
-4.06602e-08
8.22748e-08
-6.81219e-08
8.79894e-08
-1.16406e-07
1.82966e-07
-1.44423e-07
8.35155e-08
-1.44745e-07
5.53695e-08
-1.33906e-07
-2.75992e-08
-1.14915e-07
-4.62204e-08
-7.70434e-08
2.81571e-06
1.14973e-05
2.83076e-06
1.13111e-05
2.84017e-06
1.15132e-05
2.84653e-06
1.13435e-05
2.86779e-06
1.1665e-05
2.88624e-06
1.14222e-05
2.97646e-06
1.15424e-05
2.98805e-06
8.94759e-06
2.8611e-06
8.19242e-06
2.7666e-06
4.57041e-06
2.60953e-06
4.34108e-06
2.45175e-06
3.02723e-06
2.32617e-06
2.87075e-06
2.20307e-06
2.22152e-06
2.08083e-06
2.14823e-06
1.9233e-06
1.7654e-06
1.83367e-06
1.53891e-06
1.7392e-06
1.45621e-06
1.64371e-06
1.25128e-06
1.54509e-06
1.24026e-06
1.43914e-06
1.14639e-06
1.33686e-06
1.12132e-06
1.23186e-06
1.02933e-06
1.13713e-06
9.90826e-07
1.03997e-06
9.00354e-07
9.52657e-07
8.73023e-07
8.62614e-07
7.7849e-07
7.63873e-07
7.7514e-07
6.52106e-07
7.99605e-07
5.64284e-07
9.00101e-07
4.7088e-07
8.5712e-07
4.09959e-07
9.57097e-07
3.86061e-07
7.79818e-07
3.42573e-07
4.6959e-07
2.98272e-07
4.73559e-07
2.57691e-07
3.51178e-07
2.11609e-07
5.21547e-07
1.50523e-07
4.45064e-07
1.30818e-07
6.46142e-07
1.35899e-07
5.82104e-07
9.62819e-08
3.61871e-07
4.38844e-08
4.29999e-07
-1.15266e-08
3.06447e-07
-6.66995e-08
3.51188e-07
-1.02575e-07
2.74861e-07
-1.27225e-07
2.4304e-07
-1.43631e-07
2.22174e-07
-1.51465e-07
1.86987e-07
-1.61774e-07
1.87405e-07
-1.4555e-07
7.72591e-08
-1.47537e-07
1.6625e-07
-1.19752e-07
4.11141e-08
-7.07377e-08
1.93648e-09
-4.61143e-08
1.03169e-07
-1.74455e-08
-1.41206e-07
-2.71759e-08
-3.32344e-07
-3.53786e-08
-3.18205e-07
-4.60154e-08
1.11584e-07
-8.01089e-08
1.23656e-07
-1.30644e-07
2.40564e-07
-1.52859e-07
1.05531e-07
-1.5478e-07
6.90444e-08
-1.43247e-07
-3.91528e-08
-1.24351e-07
-6.49557e-08
-1.10812e-07
3.10983e-06
1.15804e-05
3.12379e-06
1.14116e-05
3.14373e-06
1.16038e-05
3.15274e-06
1.1442e-05
3.1701e-06
1.1786e-05
3.18015e-06
1.19518e-05
3.21404e-06
1.23655e-05
3.22404e-06
1.02052e-05
3.15858e-06
9.61856e-06
3.08387e-06
5.79514e-06
2.94975e-06
5.5047e-06
2.81897e-06
3.89069e-06
2.69501e-06
3.71128e-06
2.57697e-06
2.88797e-06
2.46777e-06
2.79416e-06
2.30493e-06
2.31184e-06
2.2057e-06
2.00831e-06
2.1066e-06
1.91167e-06
2.00001e-06
1.66724e-06
1.89471e-06
1.63163e-06
1.78725e-06
1.50856e-06
1.67698e-06
1.47382e-06
1.56844e-06
1.3529e-06
1.45979e-06
1.30952e-06
1.35347e-06
1.19274e-06
1.24637e-06
1.16283e-06
1.14058e-06
1.04459e-06
1.03329e-06
1.03547e-06
9.13347e-07
1.03511e-06
8.31154e-07
1.11004e-06
7.52307e-07
1.06761e-06
7.01575e-07
1.11097e-06
6.2933e-07
9.52669e-07
5.44551e-07
6.56437e-07
4.78518e-07
6.4071e-07
4.14496e-07
4.98613e-07
3.62453e-07
6.51751e-07
2.93769e-07
5.88558e-07
2.5873e-07
7.42713e-07
2.26902e-07
6.71655e-07
1.64219e-07
4.7994e-07
1.12809e-07
5.35834e-07
5.81955e-08
3.99481e-07
-9.44159e-09
4.61914e-07
-6.11579e-08
3.70972e-07
-9.97433e-08
3.29385e-07
-1.2542e-07
2.95422e-07
-1.41661e-07
2.51018e-07
-1.60265e-07
2.51903e-07
-1.55745e-07
1.14919e-07
-1.68571e-07
2.2337e-07
-1.61375e-07
7.66621e-08
-1.28695e-07
1.38619e-08
-9.26406e-08
1.06556e-07
-3.60906e-08
-1.81823e-07
-3.81513e-08
-3.37837e-07
-5.57314e-08
-3.58536e-07
-7.90776e-08
1.59693e-07
-1.22261e-07
1.75355e-07
-1.72021e-07
3.01439e-07
-1.85634e-07
1.18954e-07
-1.85572e-07
8.17021e-08
-1.73769e-07
-5.10295e-08
-1.55283e-07
-8.35465e-08
-1.44489e-07
3.42652e-06
1.15504e-05
3.45046e-06
1.13782e-05
3.47522e-06
1.15676e-05
3.48786e-06
1.14089e-05
3.50493e-06
1.17394e-05
3.50789e-06
1.18627e-05
3.51814e-06
1.249e-05
3.51314e-06
1.1223e-05
3.4659e-06
1.08041e-05
3.40324e-06
6.99582e-06
3.29305e-06
6.64604e-06
3.18216e-06
4.78708e-06
3.06513e-06
4.5931e-06
2.95376e-06
3.59953e-06
2.8409e-06
3.49469e-06
2.67976e-06
2.89613e-06
2.57569e-06
2.52551e-06
2.4721e-06
2.40925e-06
2.3771e-06
2.1096e-06
2.26772e-06
2.06168e-06
2.16349e-06
1.9008e-06
2.04729e-06
1.86341e-06
1.93898e-06
1.70536e-06
1.81906e-06
1.66776e-06
1.70775e-06
1.51561e-06
1.5852e-06
1.49406e-06
1.4677e-06
1.3444e-06
1.34111e-06
1.33794e-06
1.20144e-06
1.30599e-06
1.12449e-06
1.33655e-06
1.04419e-06
1.30105e-06
9.94572e-07
1.28419e-06
8.97481e-07
1.16963e-06
7.94724e-07
8.7912e-07
7.0279e-07
8.52317e-07
6.118e-07
6.87114e-07
5.51807e-07
8.08084e-07
4.70936e-07
7.60911e-07
4.23181e-07
8.66085e-07
3.60181e-07
8.05135e-07
2.80499e-07
6.26816e-07
2.24592e-07
6.58207e-07
1.65992e-07
5.0479e-07
9.06569e-08
5.84203e-07
2.03406e-08
4.88441e-07
-3.43098e-08
4.32457e-07
-7.69767e-08
3.86257e-07
-1.07156e-07
3.29418e-07
-1.35418e-07
3.26231e-07
-1.44876e-07
1.67123e-07
-1.6763e-07
2.89806e-07
-1.85294e-07
1.36339e-07
-1.77532e-07
4.86658e-08
-1.44942e-07
1.11806e-07
-7.07873e-08
-2.34719e-07
-4.99041e-08
-3.44272e-07
-7.15836e-08
-3.62159e-07
-1.02958e-07
2.0837e-07
-1.45499e-07
2.22118e-07
-1.94659e-07
3.54328e-07
-2.09221e-07
1.33344e-07
-2.09685e-07
9.20253e-08
-2.00024e-07
-6.09533e-08
-1.83622e-07
-1.00097e-07
-1.77278e-07
3.6286e-06
1.15123e-05
3.65698e-06
1.13384e-05
3.6824e-06
1.15334e-05
3.69513e-06
1.1376e-05
3.71364e-06
1.16895e-05
3.71455e-06
1.16577e-05
3.72588e-06
1.22278e-05
3.70822e-06
1.20273e-05
3.6606e-06
1.17777e-05
3.59314e-06
8.11672e-06
3.48668e-06
7.72343e-06
3.3715e-06
5.70067e-06
3.25821e-06
5.47276e-06
3.14056e-06
4.3428e-06
3.02029e-06
4.21796e-06
2.85002e-06
3.51061e-06
2.7516e-06
3.05411e-06
2.64643e-06
2.93152e-06
2.54099e-06
2.57846e-06
2.42933e-06
2.51433e-06
2.31098e-06
2.32244e-06
2.19486e-06
2.26939e-06
2.07455e-06
2.0837e-06
1.95894e-06
2.03476e-06
1.83814e-06
1.86137e-06
1.72082e-06
1.83098e-06
1.59534e-06
1.66531e-06
1.44661e-06
1.6713e-06
1.30035e-06
1.59157e-06
1.22156e-06
1.57227e-06
1.1447e-06
1.54103e-06
1.07843e-06
1.48304e-06
9.86253e-07
1.38989e-06
8.73727e-07
1.11984e-06
7.82058e-07
1.06982e-06
6.84695e-07
8.89424e-07
6.15012e-07
9.79073e-07
5.35402e-07
9.39835e-07
4.69412e-07
1.01261e-06
4.0389e-07
9.46074e-07
3.16375e-07
7.86319e-07
2.55712e-07
7.88924e-07
1.95356e-07
6.13516e-07
1.18614e-07
7.10061e-07
4.62502e-08
6.10428e-07
-2.13053e-08
5.50445e-07
-6.46298e-08
4.79737e-07
-9.9987e-08
4.14635e-07
-1.31778e-07
4.06063e-07
-1.41238e-07
2.20835e-07
-1.7141e-07
3.65537e-07
-1.93265e-07
2.01875e-07
-1.89257e-07
8.86657e-08
-1.58849e-07
1.21088e-07
-7.90925e-08
-2.89258e-07
-5.45056e-08
-3.40309e-07
-7.69867e-08
-3.35787e-07
-1.1018e-07
2.58478e-07
-1.55375e-07
2.73299e-07
-2.06623e-07
4.09447e-07
-2.1993e-07
1.46563e-07
-2.21551e-07
1.02773e-07
-2.12089e-07
-7.07133e-08
-1.96536e-07
-1.15921e-07
-2.10958e-07
3.92234e-06
1.14661e-05
3.95346e-06
1.12988e-05
3.97916e-06
1.14998e-05
3.99433e-06
1.13501e-05
4.01952e-06
1.16499e-05
4.02028e-06
1.15326e-05
4.03462e-06
1.20435e-05
4.00076e-06
1.26463e-05
3.95517e-06
1.27136e-05
3.89973e-06
9.253e-06
3.81115e-06
8.8278e-06
3.7158e-06
6.67032e-06
3.61581e-06
6.42208e-06
3.51209e-06
5.13983e-06
3.41714e-06
4.99058e-06
3.25538e-06
4.1771e-06
3.15354e-06
3.6415e-06
3.05135e-06
3.49871e-06
2.93425e-06
3.10509e-06
2.82166e-06
3.00958e-06
2.70903e-06
2.77859e-06
2.5908e-06
2.71491e-06
2.47542e-06
2.49173e-06
2.35308e-06
2.44209e-06
2.23371e-06
2.23564e-06
2.10994e-06
2.20528e-06
1.9819e-06
2.01521e-06
1.84927e-06
2.016e-06
1.68215e-06
1.91943e-06
1.56899e-06
1.8683e-06
1.48022e-06
1.81849e-06
1.40927e-06
1.71255e-06
1.30508e-06
1.64655e-06
1.19041e-06
1.38518e-06
1.08152e-06
1.32775e-06
9.55508e-07
1.13862e-06
8.66148e-07
1.19176e-06
7.72279e-07
1.15303e-06
6.9731e-07
1.18662e-06
6.06661e-07
1.12903e-06
5.06614e-07
9.74542e-07
4.41905e-07
9.40994e-07
3.68639e-07
7.52331e-07
2.80863e-07
8.57514e-07
1.92001e-07
7.57099e-07
1.09088e-07
6.86799e-07
3.6625e-08
6.04624e-07
-2.47596e-08
5.2648e-07
-6.9384e-08
4.99487e-07
-1.0037e-07
2.96728e-07
-1.42051e-07
4.52946e-07
-1.86188e-07
2.89662e-07
-2.04587e-07
1.49456e-07
-1.88219e-07
1.42064e-07
-1.12418e-07
-3.42623e-07
-8.18453e-08
-3.29414e-07
-1.03983e-07
-2.99555e-07
-1.36625e-07
3.1543e-07
-1.78594e-07
3.27354e-07
-2.2651e-07
4.63211e-07
-2.40104e-07
1.61104e-07
-2.44006e-07
1.16127e-07
-2.38655e-07
-7.68523e-08
-2.26658e-07
-1.29335e-07
-2.46044e-07
4.15041e-06
1.14192e-05
4.18082e-06
1.12613e-05
4.20347e-06
1.14701e-05
4.21678e-06
1.13281e-05
4.25146e-06
1.16043e-05
4.25399e-06
1.14297e-05
4.31718e-06
1.18312e-05
4.3197e-06
1.22862e-05
4.23325e-06
1.32992e-05
4.11808e-06
1.03946e-05
4.02705e-06
9.93322e-06
3.92793e-06
7.68142e-06
3.8286e-06
7.40612e-06
3.72157e-06
5.97596e-06
3.61595e-06
5.80298e-06
3.4493e-06
4.87547e-06
3.34076e-06
4.25636e-06
3.23633e-06
4.0896e-06
3.12431e-06
3.64433e-06
3.01122e-06
3.52782e-06
2.88702e-06
3.26326e-06
2.76971e-06
3.17801e-06
2.64243e-06
2.92738e-06
2.52549e-06
2.85869e-06
2.39629e-06
2.63502e-06
2.27837e-06
2.58609e-06
2.14208e-06
2.38842e-06
1.99412e-06
2.38623e-06
1.82172e-06
2.26142e-06
1.6988e-06
2.18251e-06
1.61294e-06
2.10458e-06
1.52162e-06
1.97393e-06
1.42479e-06
1.90641e-06
1.29917e-06
1.67208e-06
1.19248e-06
1.59112e-06
1.0583e-06
1.40441e-06
9.56065e-07
1.42356e-06
8.64025e-07
1.37403e-06
7.66669e-07
1.38972e-06
6.77921e-07
1.31683e-06
5.66077e-07
1.18108e-06
5.01488e-07
1.09776e-06
4.24871e-07
9.01934e-07
3.29036e-07
1.01615e-06
2.4122e-07
9.07564e-07
1.40593e-07
8.43515e-07
6.9144e-08
7.31008e-07
-3.37034e-09
6.51417e-07
-5.26449e-08
5.99635e-07
-8.57733e-08
3.7625e-07
-1.3842e-07
5.53336e-07
-1.85497e-07
3.82234e-07
-2.10558e-07
2.18491e-07
-1.97921e-07
1.68651e-07
-1.21433e-07
-3.89588e-07
-9.10948e-08
-3.02216e-07
-1.14514e-07
-2.48967e-07
-1.46536e-07
3.79378e-07
-1.88558e-07
3.91653e-07
-2.38104e-07
5.22416e-07
-2.52003e-07
1.82828e-07
-2.57384e-07
1.34546e-07
-2.52852e-07
-8.23063e-08
-2.4233e-07
-1.41323e-07
-2.81766e-07
4.4609e-06
1.13678e-05
4.49291e-06
1.12202e-05
4.51105e-06
1.14428e-05
4.52648e-06
1.13031e-05
4.56785e-06
1.15542e-05
4.57427e-06
1.13764e-05
4.60641e-06
1.17165e-05
4.56429e-06
1.18685e-05
4.50329e-06
1.27742e-05
4.43417e-06
1.1546e-05
4.35601e-06
1.11977e-05
4.27493e-06
8.82479e-06
4.1841e-06
8.55827e-06
4.09408e-06
6.90067e-06
3.99781e-06
6.73482e-06
3.8465e-06
5.63509e-06
3.74637e-06
4.94284e-06
3.64898e-06
4.7321e-06
3.53847e-06
4.24372e-06
3.42946e-06
4.09463e-06
3.31487e-06
3.78951e-06
3.19836e-06
3.68717e-06
3.08108e-06
3.39564e-06
2.95945e-06
3.3215e-06
2.83842e-06
3.06194e-06
2.7124e-06
3.01287e-06
2.58231e-06
2.78608e-06
2.4394e-06
2.78531e-06
2.25615e-06
2.63675e-06
2.12771e-06
2.5327e-06
2.02704e-06
2.43465e-06
1.93225e-06
2.27092e-06
1.82206e-06
2.2099e-06
1.7006e-06
1.98253e-06
1.56871e-06
1.9085e-06
1.41088e-06
1.71409e-06
1.30008e-06
1.6909e-06
1.1902e-06
1.63678e-06
1.08765e-06
1.622e-06
9.74071e-07
1.55129e-06
8.52742e-07
1.41792e-06
7.53569e-07
1.3116e-06
6.55205e-07
1.09226e-06
5.68271e-07
1.18585e-06
4.70257e-07
1.08575e-06
3.65901e-07
1.01554e-06
2.59946e-07
9.01875e-07
1.61738e-07
8.05555e-07
7.70357e-08
7.38168e-07
-7.68987e-10
5.01684e-07
-5.89034e-08
6.60272e-07
-1.34525e-07
5.04311e-07
-1.88922e-07
3.16683e-07
-2.0749e-07
2.2584e-07
-1.55993e-07
-4.14562e-07
-1.29751e-07
-2.62463e-07
-1.49698e-07
-1.9105e-07
-1.76534e-07
4.54971e-07
-2.12616e-07
4.68273e-07
-2.56835e-07
5.83154e-07
-2.71617e-07
2.17295e-07
-2.80748e-07
1.64291e-07
-2.82537e-07
-8.24968e-08
-2.77112e-07
-1.50794e-07
-3.13824e-07
4.79548e-06
1.13163e-05
4.81216e-06
1.11968e-05
4.83772e-06
1.14107e-05
4.86741e-06
1.12682e-05
4.90859e-06
1.15092e-05
4.91942e-06
1.13434e-05
4.95078e-06
1.16391e-05
4.8972e-06
1.15866e-05
4.84702e-06
1.23695e-05
4.78037e-06
1.25013e-05
4.71108e-06
1.22945e-05
4.64342e-06
9.95595e-06
4.56244e-06
9.69728e-06
4.48282e-06
7.86469e-06
4.39076e-06
7.71106e-06
4.2531e-06
6.43349e-06
4.15751e-06
5.67758e-06
4.06394e-06
5.41529e-06
3.97037e-06
4.87267e-06
3.86549e-06
4.69927e-06
3.76391e-06
4.34419e-06
3.64937e-06
4.23284e-06
3.54394e-06
3.88881e-06
3.42098e-06
3.82069e-06
3.30979e-06
3.51155e-06
3.17883e-06
3.47766e-06
3.05726e-06
3.20437e-06
2.91193e-06
3.21755e-06
2.72688e-06
3.03418e-06
2.6129e-06
2.89772e-06
2.4977e-06
2.80726e-06
2.40599e-06
2.5979e-06
2.28112e-06
2.55903e-06
2.16569e-06
2.31617e-06
2.01848e-06
2.27113e-06
1.84581e-06
2.06007e-06
1.72317e-06
1.99946e-06
1.59173e-06
1.94698e-06
1.4899e-06
1.88115e-06
1.35019e-06
1.83692e-06
1.22359e-06
1.68391e-06
1.09025e-06
1.58532e-06
9.58585e-07
1.33627e-06
8.67126e-07
1.38783e-06
7.58918e-07
1.29934e-06
6.64291e-07
1.19969e-06
5.31504e-07
1.11934e-06
4.13139e-07
9.90292e-07
2.88262e-07
9.27564e-07
1.70337e-07
6.7091e-07
8.67496e-08
7.95813e-07
-2.63743e-08
6.66591e-07
-1.16227e-07
4.51341e-07
-1.66884e-07
3.15203e-07
-1.65325e-07
-3.85291e-07
-1.58818e-07
-1.9889e-07
-1.7739e-07
-1.29529e-07
-1.98363e-07
5.13606e-07
-2.27751e-07
5.26576e-07
-2.69821e-07
6.32312e-07
-2.89572e-07
2.52994e-07
-3.03717e-07
1.95911e-07
-3.13171e-07
-7.67671e-08
-3.13615e-07
-1.56555e-07
-3.25644e-07
5.03614e-06
1.12807e-05
5.05864e-06
1.11693e-05
5.09646e-06
1.13696e-05
5.13218e-06
1.12299e-05
5.17083e-06
1.1468e-05
5.1808e-06
1.13125e-05
5.2151e-06
1.15614e-05
5.16622e-06
1.13368e-05
5.1314e-06
1.19821e-05
5.03469e-06
1.30537e-05
4.96342e-06
1.3108e-05
4.89059e-06
1.09952e-05
4.81206e-06
1.07248e-05
4.72832e-06
8.82553e-06
4.64114e-06
8.65574e-06
4.49829e-06
7.25286e-06
4.40535e-06
6.41601e-06
4.30989e-06
6.11874e-06
4.20744e-06
5.52179e-06
4.10139e-06
5.32413e-06
3.99044e-06
4.92178e-06
3.87677e-06
4.79368e-06
3.76105e-06
4.40639e-06
3.64198e-06
4.32877e-06
3.52111e-06
3.98506e-06
3.39632e-06
3.94705e-06
3.266e-06
3.64612e-06
3.12596e-06
3.6542e-06
2.93759e-06
3.44569e-06
2.80548e-06
3.28898e-06
2.69403e-06
3.18728e-06
2.58198e-06
2.95897e-06
2.46374e-06
2.91448e-06
2.33441e-06
2.67652e-06
2.1919e-06
2.6381e-06
2.00926e-06
2.42544e-06
1.87881e-06
2.32406e-06
1.74939e-06
2.26782e-06
1.62142e-06
2.1771e-06
1.48689e-06
2.12793e-06
1.34307e-06
1.97704e-06
1.20122e-06
1.87467e-06
1.05949e-06
1.59942e-06
9.62309e-07
1.6018e-06
8.58243e-07
1.51932e-06
7.45437e-07
1.40902e-06
6.22314e-07
1.33331e-06
4.89754e-07
1.1949e-06
3.52203e-07
1.13315e-06
2.30946e-07
8.46153e-07
1.26122e-07
9.55145e-07
1.02822e-08
8.34062e-07
-9.44066e-08
6.0313e-07
-1.67623e-07
4.29273e-07
-1.7443e-07
-3.50009e-07
-1.67787e-07
-1.20972e-07
-1.87195e-07
-5.61009e-08
-2.07978e-07
5.66292e-07
-2.38174e-07
5.82385e-07
-2.82482e-07
6.81032e-07
-3.0305e-07
2.94572e-07
-3.19531e-07
2.3453e-07
-3.31223e-07
-6.91537e-08
-3.34282e-07
-1.50634e-07
-3.23818e-07
5.35577e-06
1.12422e-05
5.38875e-06
1.11317e-05
5.43643e-06
1.13194e-05
5.47538e-06
1.11885e-05
5.51244e-06
1.14285e-05
5.53015e-06
1.12836e-05
5.56754e-06
1.15032e-05
5.52679e-06
1.11887e-05
5.51784e-06
1.17175e-05
5.39283e-06
1.22611e-05
5.32244e-06
1.36421e-05
5.259e-06
1.19848e-05
5.19009e-06
1.17303e-05
5.1188e-06
9.81958e-06
5.03911e-06
9.64261e-06
4.90909e-06
8.12386e-06
4.8211e-06
7.20988e-06
4.73199e-06
6.87164e-06
4.64214e-06
6.2107e-06
4.54189e-06
5.9899e-06
4.44326e-06
5.53142e-06
4.33386e-06
5.3916e-06
4.23112e-06
4.94931e-06
4.1143e-06
4.87152e-06
4.00533e-06
4.47991e-06
3.88254e-06
4.44871e-06
3.76371e-06
4.10656e-06
3.62666e-06
4.12005e-06
3.44184e-06
3.87646e-06
3.32222e-06
3.69714e-06
3.20395e-06
3.6017e-06
3.10243e-06
3.34363e-06
2.97494e-06
3.31179e-06
2.85649e-06
3.05695e-06
2.71236e-06
3.0385e-06
2.52725e-06
2.81679e-06
2.38756e-06
2.69005e-06
2.24073e-06
2.63512e-06
2.1179e-06
2.50049e-06
1.96091e-06
2.47128e-06
1.81889e-06
2.29669e-06
1.65622e-06
2.21465e-06
1.47533e-06
1.925e-06
1.35116e-06
1.87679e-06
1.2261e-06
1.79226e-06
1.12307e-06
1.64223e-06
9.82873e-07
1.59686e-06
8.49787e-07
1.42335e-06
6.89117e-07
1.38478e-06
5.17016e-07
1.08322e-06
3.90585e-07
1.14446e-06
2.28449e-07
1.05475e-06
8.54189e-08
7.96622e-07
-3.62502e-08
5.93936e-07
-1.3306e-07
-2.20538e-07
-1.62058e-07
-8.92169e-09
-1.89499e-07
2.72392e-08
-2.11993e-07
6.14915e-07
-2.41012e-07
6.35753e-07
-2.90429e-07
7.31546e-07
-3.18385e-07
3.45344e-07
-3.41848e-07
2.82194e-07
-3.62864e-07
-5.44905e-08
-3.72848e-07
-1.28775e-07
-3.16148e-07
5.63457e-06
1.11943e-05
5.67388e-06
1.10899e-05
5.7277e-06
1.12634e-05
5.76759e-06
1.11464e-05
5.7972e-06
1.13968e-05
5.81676e-06
1.12543e-05
5.86295e-06
1.144e-05
5.82971e-06
1.10604e-05
5.83205e-06
1.14727e-05
5.70024e-06
1.16025e-05
5.60462e-06
1.28495e-05
5.53559e-06
1.28185e-05
5.46705e-06
1.26309e-05
5.39194e-06
1.07969e-05
5.31461e-06
1.05952e-05
5.18145e-06
9.0092e-06
5.09614e-06
8.00834e-06
5.00627e-06
7.63933e-06
4.91058e-06
6.91267e-06
4.80966e-06
6.67054e-06
4.70427e-06
6.15622e-06
4.59549e-06
6.00014e-06
4.48423e-06
5.5102e-06
4.36963e-06
5.42041e-06
4.25195e-06
4.99348e-06
4.13207e-06
4.95377e-06
4.00502e-06
4.58596e-06
3.87109e-06
4.58875e-06
3.68483e-06
4.31764e-06
3.55429e-06
4.12179e-06
3.43953e-06
4.02084e-06
3.32084e-06
3.75654e-06
3.19956e-06
3.71395e-06
3.06729e-06
3.46277e-06
2.92714e-06
3.44256e-06
2.73254e-06
3.22534e-06
2.58824e-06
3.06837e-06
2.44494e-06
3.01156e-06
2.29748e-06
2.86055e-06
2.147e-06
2.82042e-06
1.98497e-06
2.64804e-06
1.81095e-06
2.57413e-06
1.61698e-06
2.27202e-06
1.48734e-06
2.16496e-06
1.3653e-06
2.07455e-06
1.24013e-06
1.90764e-06
1.11e-06
1.85943e-06
9.61536e-07
1.67757e-06
7.95825e-07
1.64704e-06
6.22761e-07
1.32616e-06
4.68777e-07
1.36511e-06
3.06934e-07
1.27895e-06
1.42199e-07
1.01499e-06
-1.34783e-08
7.95225e-07
-1.31681e-07
-7.23465e-08
-1.63822e-07
1.21416e-07
-1.93956e-07
1.21923e-07
-2.18364e-07
6.61967e-07
-2.48708e-07
6.94328e-07
-3.01097e-07
7.93737e-07
-3.32311e-07
4.09776e-07
-3.58855e-07
3.43058e-07
-3.82799e-07
-3.76444e-08
-3.95845e-07
-8.97035e-08
-2.94333e-07
5.99545e-06
1.11428e-05
6.04286e-06
1.10403e-05
6.09216e-06
1.12121e-05
6.11659e-06
1.11198e-05
6.15823e-06
1.1353e-05
6.18676e-06
1.12218e-05
6.23751e-06
1.13837e-05
6.22455e-06
1.09936e-05
6.23945e-06
1.13321e-05
6.10769e-06
1.11948e-05
6.019e-06
1.22419e-05
5.93233e-06
1.34399e-05
5.8688e-06
1.34678e-05
5.80351e-06
1.17974e-05
5.73336e-06
1.15816e-05
5.61426e-06
9.95559e-06
5.53292e-06
8.86954e-06
5.44893e-06
8.46402e-06
5.36548e-06
7.65514e-06
5.2711e-06
7.39143e-06
5.17859e-06
6.80941e-06
5.07541e-06
6.64189e-06
4.97861e-06
6.09129e-06
4.86787e-06
5.99888e-06
4.76418e-06
5.52302e-06
4.64779e-06
5.48577e-06
4.53437e-06
5.07922e-06
4.40488e-06
5.08191e-06
4.22367e-06
4.77647e-06
4.10736e-06
4.5587e-06
3.98941e-06
4.46766e-06
3.88689e-06
4.18391e-06
3.76031e-06
4.15146e-06
3.64417e-06
3.88171e-06
3.50273e-06
3.8781e-06
3.31529e-06
3.64914e-06
3.17293e-06
3.47667e-06
3.01973e-06
3.42731e-06
2.88845e-06
3.23953e-06
2.72222e-06
3.21813e-06
2.57401e-06
3.01723e-06
2.39193e-06
2.97452e-06
2.17036e-06
2.67138e-06
2.01166e-06
2.51895e-06
1.85241e-06
2.42862e-06
1.72809e-06
2.2132e-06
1.57187e-06
2.18907e-06
1.42884e-06
1.96225e-06
1.25386e-06
1.95614e-06
1.03963e-06
1.63346e-06
8.81943e-07
1.61048e-06
6.77521e-07
1.56293e-06
4.82271e-07
1.27351e-06
2.54849e-07
1.07622e-06
1.46289e-08
2.02541e-07
-9.12579e-08
3.15658e-07
-1.56058e-07
2.45276e-07
-2.01003e-07
7.23718e-07
-2.36679e-07
7.62377e-07
-3.02546e-07
8.71301e-07
-3.42595e-07
4.85991e-07
-3.78449e-07
4.16004e-07
-4.12962e-07
1.33775e-09
-4.34448e-07
-3.90054e-08
-2.64572e-07
6.30783e-06
1.1089e-05
6.35977e-06
1.09865e-05
6.41442e-06
1.11557e-05
6.44134e-06
1.1091e-05
6.47711e-06
1.13154e-05
6.50966e-06
1.1187e-05
6.55562e-06
1.13332e-05
6.54617e-06
1.09409e-05
6.56302e-06
1.1212e-05
6.43668e-06
1.08671e-05
6.37597e-06
1.16712e-05
6.24578e-06
1.27361e-05
6.17733e-06
1.40146e-05
6.1084e-06
1.26966e-05
6.03935e-06
1.2485e-05
5.91797e-06
1.08891e-05
5.83823e-06
9.71713e-06
5.75343e-06
9.29002e-06
5.66524e-06
8.39568e-06
5.57032e-06
8.11537e-06
5.47254e-06
7.46429e-06
5.3699e-06
7.28438e-06
5.26567e-06
6.68061e-06
5.15698e-06
6.57564e-06
5.04504e-06
6.0646e-06
4.93259e-06
6.01378e-06
4.81118e-06
5.58648e-06
4.68727e-06
5.57055e-06
4.50579e-06
5.24297e-06
4.37761e-06
5.00934e-06
4.26259e-06
4.91627e-06
4.14506e-06
4.63184e-06
4.02425e-06
4.58996e-06
3.89484e-06
4.32176e-06
3.76282e-06
4.30885e-06
3.56713e-06
4.08687e-06
3.41868e-06
3.89628e-06
3.26949e-06
3.84977e-06
3.11542e-06
3.65211e-06
2.95752e-06
3.61957e-06
2.78843e-06
3.41915e-06
2.61089e-06
3.37834e-06
2.3776e-06
3.09013e-06
2.20317e-06
2.8965e-06
2.04591e-06
2.79367e-06
1.89298e-06
2.55895e-06
1.74298e-06
2.52341e-06
1.58009e-06
2.28107e-06
1.40563e-06
2.27259e-06
1.19325e-06
1.94869e-06
1.00686e-06
1.89134e-06
8.08976e-07
1.84743e-06
5.87439e-07
1.56393e-06
3.03648e-07
1.41758e-06
3.5677e-08
5.03362e-07
-7.15897e-08
5.21813e-07
-1.46267e-07
3.83212e-07
-2.01853e-07
7.94621e-07
-2.40428e-07
8.46435e-07
-3.11437e-07
9.5353e-07
-3.55854e-07
5.76935e-07
-3.95664e-07
5.03487e-07
-4.33434e-07
6.60553e-08
-4.59112e-07
2.86765e-08
-2.19867e-07
6.69958e-06
1.10314e-05
6.75185e-06
1.09325e-05
6.7931e-06
1.11127e-05
6.82594e-06
1.10564e-05
6.87267e-06
1.12676e-05
6.91246e-06
1.11466e-05
6.96179e-06
1.12825e-05
6.96321e-06
1.09142e-05
6.98818e-06
1.11434e-05
6.89326e-06
1.07042e-05
6.85787e-06
1.13566e-05
6.70761e-06
1.19287e-05
6.60874e-06
1.33877e-05
6.5462e-06
1.34885e-05
6.48426e-06
1.33246e-05
6.37485e-06
1.18637e-05
6.301e-06
1.05857e-05
6.22163e-06
1.01627e-05
6.14609e-06
9.15993e-06
6.05549e-06
8.87428e-06
5.97071e-06
8.14123e-06
5.87313e-06
7.95804e-06
5.78338e-06
7.28885e-06
5.67879e-06
7.1814e-06
5.58151e-06
6.62259e-06
5.47136e-06
6.5706e-06
5.36486e-06
6.10778e-06
5.24417e-06
6.08603e-06
5.06815e-06
5.72935e-06
4.96091e-06
5.46546e-06
4.84464e-06
5.39039e-06
4.74803e-06
5.0863e-06
4.62332e-06
5.06033e-06
4.51339e-06
4.76932e-06
4.37386e-06
4.77588e-06
4.18921e-06
4.53439e-06
4.05346e-06
4.3334e-06
3.90018e-06
4.30386e-06
3.77419e-06
4.07113e-06
3.60608e-06
4.06436e-06
3.46194e-06
3.8288e-06
3.27198e-06
3.82846e-06
3.03262e-06
3.5383e-06
2.85907e-06
3.3106e-06
2.6688e-06
3.22668e-06
2.52471e-06
2.93857e-06
2.33659e-06
2.93903e-06
2.17467e-06
2.64052e-06
1.98342e-06
2.65189e-06
1.73398e-06
2.33276e-06
1.56636e-06
2.19006e-06
1.33988e-06
2.19289e-06
1.13244e-06
1.86357e-06
8.33236e-07
1.795e-06
4.33916e-07
9.45072e-07
2.045e-07
8.3711e-07
4.76933e-09
6.35024e-07
-1.35909e-07
9.03387e-07
-1.96896e-07
9.44345e-07
-2.9946e-07
1.04858e-06
-3.54163e-07
6.70939e-07
-4.0644e-07
5.96852e-07
-4.56375e-07
1.41601e-07
-4.91856e-07
1.00135e-07
-1.66742e-07
7.03705e-06
1.09749e-05
7.08052e-06
1.0888e-05
7.12784e-06
1.10646e-05
7.1671e-06
1.10162e-05
7.21915e-06
1.12155e-05
7.26069e-06
1.11046e-05
7.31011e-06
1.1232e-05
7.31928e-06
1.08855e-05
7.3676e-06
1.10593e-05
7.26799e-06
1.06057e-05
7.23193e-06
1.10939e-05
7.088e-06
1.1282e-05
6.9839e-06
1.24456e-05
6.88656e-06
1.37766e-05
6.83206e-06
1.37405e-05
6.72124e-06
1.25765e-05
6.64992e-06
1.12314e-05
6.56843e-06
1.09112e-05
6.48453e-06
9.82526e-06
6.3917e-06
9.57317e-06
6.30046e-06
8.77541e-06
6.2035e-06
8.5951e-06
6.10594e-06
7.88221e-06
6.00525e-06
7.75962e-06
5.89913e-06
7.17999e-06
5.79884e-06
7.1006e-06
5.68375e-06
6.63557e-06
5.57631e-06
6.57619e-06
5.39888e-06
6.2197e-06
5.27254e-06
5.93422e-06
5.1587e-06
5.8608e-06
5.04634e-06
5.55241e-06
4.9298e-06
5.52039e-06
4.80553e-06
5.23127e-06
4.68942e-06
5.21617e-06
4.49583e-06
4.99214e-06
4.34585e-06
4.78179e-06
4.19643e-06
4.7586e-06
4.0462e-06
4.51727e-06
3.88821e-06
4.5047e-06
3.72189e-06
4.26728e-06
3.56182e-06
4.25117e-06
3.31178e-06
4.00149e-06
3.11017e-06
3.75553e-06
2.92457e-06
3.66452e-06
2.74324e-06
3.36363e-06
2.56564e-06
3.35232e-06
2.37654e-06
3.04151e-06
2.18793e-06
3.03529e-06
1.93784e-06
2.72998e-06
1.73299e-06
2.53558e-06
1.52027e-06
2.5357e-06
1.28241e-06
2.20397e-06
1.0034e-06
2.15868e-06
5.85183e-07
1.40713e-06
2.77872e-07
1.23485e-06
4.95964e-08
9.14965e-07
-1.26931e-07
9.60908e-07
-1.92826e-07
1.04546e-06
-3.04605e-07
1.10354e-06
-3.65603e-07
7.30444e-07
-4.22209e-07
6.61436e-07
-4.76584e-07
2.00556e-07
-5.16743e-07
1.40255e-07
-1.32822e-07
7.38564e-06
1.09118e-05
7.43257e-06
1.08397e-05
7.47799e-06
1.10179e-05
7.51913e-06
1.09738e-05
7.57362e-06
1.11609e-05
7.61491e-06
1.10627e-05
7.70027e-06
1.11455e-05
7.71652e-06
1.0862e-05
7.71205e-06
1.10295e-05
7.62799e-06
1.05031e-05
7.6102e-06
1.08286e-05
7.46629e-06
1.06842e-05
7.38968e-06
1.1513e-05
7.23532e-06
1.25191e-05
7.16558e-06
1.40625e-05
7.05313e-06
1.33137e-05
6.97886e-06
1.20246e-05
6.89948e-06
1.17766e-05
6.81664e-06
1.06161e-05
6.72626e-06
1.03755e-05
6.62994e-06
9.50744e-06
6.53503e-06
9.31303e-06
6.43241e-06
8.54581e-06
6.33204e-06
8.4016e-06
6.22117e-06
7.78983e-06
6.11546e-06
7.68604e-06
5.99633e-06
7.20393e-06
5.87542e-06
7.11946e-06
5.69821e-06
6.74091e-06
5.57576e-06
6.42473e-06
5.46816e-06
6.34733e-06
5.34676e-06
6.04521e-06
5.23596e-06
5.99399e-06
5.10189e-06
5.71836e-06
4.97367e-06
5.68433e-06
4.7708e-06
5.47104e-06
4.62213e-06
5.24039e-06
4.48193e-06
5.21617e-06
4.31969e-06
4.98771e-06
4.17305e-06
4.94783e-06
3.99009e-06
4.73552e-06
3.81727e-06
4.69777e-06
3.55606e-06
4.4826e-06
3.35312e-06
4.21098e-06
3.18028e-06
4.10142e-06
2.97471e-06
3.82495e-06
2.80904e-06
3.76596e-06
2.59697e-06
3.48101e-06
2.39133e-06