/*--------------------------------*- C++ -*----------------------------------*\
| =========                 |                                                 |
| \\      /  F ield         | OpenFOAM: The Open Source CFD Toolbox           |
|  \\    /   O peration     | Version:  v2012                                 |
|   \\  /    A nd           | Website:  www.openfoam.com                      |
|    \\/     M anipulation  |                                                 |
\*---------------------------------------------------------------------------*/
FoamFile
{
    version     2.0;
    format      ascii;
    class       volScalarField;
    location    "1e-06";
    object      pMean;
}
// * * * * * * * * * * * * * * * * * * * * * * * * * * * * * * * * * * * * * //

dimensions      [1 -1 -2 0 0 0 0];


internalField   nonuniform List<scalar> 
10302
(
-39628.6
-37845.4
-38204.5
-36958.4
-37494.9
-35672.5
-35325.8
-25583.6
-22783.8
-10286.9
-9073.77
-5905.19
-6121.47
-4742.43
-4823.89
-3237.63
-3739.41
-3539.84
-3267.37
-2755.03
-2665.49
-2442.23
-2332.69
-2303.22
-2138.99
-2115.04
-1920.3
-1893.89
-1120.2
-2417.69
-2788.76
-317.305
-363.962
-1985.36
-1684.73
-1657.22
-2077.36
-2306.04
-147.626
194.541
-1848.18
-1602.07
-1734.25
-2336.91
-2547.21
-2477.76
-2341.94
-1981.28
-1724.04
-1131.19
-1041.94
-995.399
-197.405
565.628
2008.49
2003.61
2003.13
1913.24
1989.88
1943.87
2177.08
1943.72
5262.02
3232.26
2869.94
-12946.8
-12450.5
-12622.8
-12924.1
-13397
-14491.6
-14959.5
-14591.6
-13092.5
-8199.2
-7217.26
-5283.87
-5549.49
-4466.47
-4600.86
-3167.98
-3613.38
-3486.74
-3193.8
-2734.85
-2669.01
-2447.18
-2345.85
-2313.57
-2160.12
-2140.6
-1950.74
-1916.3
-1114.18
-2240.09
-2607.18
-1163.26
-1162.86
-1900.78
-1953.96
-1665.86
-2078.51
-2205.67
-1064.04
-843.826
-1752.32
-1857.94
-1731.84
-2337.95
-2547.91
-2483.01
-2347.94
-1988.78
-1731.93
-1134.51
-1057.42
-1012.39
-240.491
510.933
1991.87
2000.6
1995.86
1926.23
1981.77
1951.4
2180.68
1948.33
5221.32
3208.59
2821.63
-3628.12
-3811.96
-3849.68
-4711.92
-5022
-6580.34
-6983.45
-10093.9
-8025.54
-6824.78
-5875.68
-4798.26
-4908.27
-4204.39
-4234.74
-2903.29
-3392.69
-3364.35
-3083.04
-2691.94
-2619.87
-2418.69
-2323.45
-2285.69
-2158.5
-2127.18
-1966.06
-1894.77
-1082.66
-2244.08
-2582.16
-1404.24
-1398.15
-1960.27
-2006.5
-1656.1
-2119.81
-2220.8
-1257.96
-1037.75
-1772.3
-1880.92
-1726.67
-2338.12
-2548.58
-2492.3
-2357.8
-2000.92
-1744.23
-1139.77
-1082.62
-1033.22
-280.005
440.465
1946.98
2001.08
2000.89
1955.82
2000.18
1983.66
2193.47
1959.42
5125.83
3139.39
2737.85
3882.22
2736.56
2611.9
305.462
-162.36
-2620.42
-3263.18
-5857.12
-5361.31
-6102.92
-5339.74
-4579.88
-4645.95
-4080.01
-4055.9
-2807.38
-3354.13
-3327.01
-3051.23
-2718.21
-2640.79
-2459.4
-2358.82
-2321.48
-2201.09
-2172.47
-2014.05
-1915.5
-1083.11
-2232.27
-2552.45
-1559.16
-1521.96
-2027.79
-2070.03
-1657.08
-2150.86
-2231.51
-1354.92
-1127.8
-1791.93
-1907.29
-1720.47
-2344.07
-2552.85
-2507.16
-2373.22
-2019.55
-1762.89
-1147.7
-1119.97
-1062.23
-335.996
331.037
1944.88
2000.8
2000.6
1941.23
1998.08
1982.83
2160.04
1969.36
5007.63
3079.08
2663.26
12648.2
10554.8
10688.4
6798.71
5169.89
-500.399
-1769.2
-3478.44
-4908.41
-6145.83
-5638.14
-4747.23
-4844.92
-4142.44
-4202.05
-2944.91
-3463.85
-3354.16
-3139.84
-2819.46
-2756.27
-2572.5
-2463.27
-2417.33
-2289.57
-2267.02
-2091.8
-1988.82
-1106.86
-2253.46
-2548.65
-1803.33
-1711.4
-2107.33
-2149.48
-1662.64
-2194.02
-2250.89
-1519.63
-1276.86
-1817.5
-1943.37
-1714.83
-2356.19
-2558.35
-2527.96
-2393.99
-2044.18
-1787.93
-1156.67
-1166.18
-1095.88
-396.841
206.195
1680.16
2000.58
2000.88
1911.33
1962.46
1959.07
2081.52
1962.52
4867.05
3028.29
2603.72
25416.8
23681.6
23587.5
18293.2
15209.6
4558.54
1168.98
-2260.16
-2795.41
-4591.25
-4096.21
-4001.27
-3895.26
-3680.51
-3575
-2639
-3140.12
-3128.84
-2915.23
-2688.51
-2620.91
-2469.17
-2381.46
-2324.91
-2246.91
-2204.86
-2088.61
-1934.79
-1063.84
-2198.29
-2483.3
-1933.78
-1789.54
-2151.77
-2179.76
-1641.85
-2214.66
-2255.84
-1638.84
-1379.92
-1835.52
-1968.82
-1694.76
-2356.78
-2556.74
-2543.93
-2409.31
-2070.55
-1813.54
-1164.28
-1220.03
-1135.22
-467.846
103.873
1527.17
1920.65
2000.47
1951.09
1991.71
1994.25
2065.67
1975.78
4628.16
2878.43
2449.54
42624.6
39998.6
39042
32117.3
27728.6
13844.9
6626.76
-1395.95
-1757.41
-3659.65
-3327.89
-3597.7
-3459.5
-3447.6
-3304.19
-2619.47
-3027.92
-3043
-2827.68
-2655.2
-2586.16
-2459.77
-2373.38
-2322.08
-2254.51
-2222.25
-2120.57
-1946.49
-1085.14
-2182.35
-2452.34
-2076.67
-1899.57
-2217.98
-2238.08
-1639.55
-2255.31
-2279.06
-1772.94
-1501.17
-1868.24
-2005.25
-1677.42
-2363.59
-2556.46
-2566.24
-2430.55
-2104.14
-1846.54
-1175.53
-1283.27
-1184.4
-551.339
-7.1793
1395.52
1836.69
1995.75
1952.37
1987.58
1991.93
2030.53
1978.46
4355.02
2723.89
2302.71
62299.7
58321.4
56032.4
47820.4
42327.9
26280.4
16065.8
-1103.17
-1919.87
-3175.12
-2907.65
-3371.5
-3250.59
-3311.98
-3217.91
-2628.16
-2994.57
-2945.54
-2795.82
-2652.58
-2600.31
-2480.77
-2398.13
-2342.31
-2279
-2255.62
-2154.57
-1993.09
-1102.03
-2164.49
-2425.01
-2211.53
-2006.29
-2287.04
-2290.43
-1630.49
-2295.92
-2303.12
-1909
-1620.75
-1907.57
-2043.1
-1651.29
-2369.55
-2552.26
-2591.09
-2449.13
-2140.14
-1881.93
-1185.84
-1352.17
-1237
-641.775
-121.626
1270.76
1736.74
1946.09
1934.64
1970.5
1986.78
2002.32
1979.8
4061.81
2571.01
2170.6
84197.7
78423.9
75158.9
66050.9
61102.5
42944.9
29393.2
1370.27
-82.6922
-2616.6
-2723.54
-3343.63
-3392.7
-3304.95
-3380.71
-2595.51
-3125.89
-2916.14
-2903
-2717.53
-2690.56
-2564.15
-2472.01
-2422.96
-2331.4
-2339.24
-2195.77
-2075.1
-1120.78
-2193.63
-2425.54
-2348.85
-2131.08
-2366.07
-2361.03
-1630.45
-2358.15
-2342.59
-2056.64
-1755.79
-1964.03
-2090.68
-1617.86
-2379.56
-2547.79
-2617.23
-2471.04
-2182.29
-1922.86
-1199.82
-1429.57
-1299.42
-746.338
-243.971
1145.08
1622.46
1852
1913.22
1943.26
1976.9
1981.97
1971.17
3721.95
2397.86
2054.9
107339
100368
96417.4
88694.1
82410.6
62525.4
46154.7
10227.7
1641.6
-2955.67
-3490.78
-3963.88
-4293.57
-3749.89
-4106.5
-2964.76
-3593.43
-3135.59
-3248.32
-2935.65
-2964.33
-2780.53
-2679.52
-2616.48
-2473.99
-2515.01
-2295.17
-2255.01
-1200.29
-2289.36
-2452.79
-2515.99
-2280.06
-2474.79
-2454.44
-1650.89
-2449.81
-2391.5
-2225.27
-1900.69
-2041.05
-2143.57
-1587.76
-2400.29
-2542.05
-2649.4
-2491.93
-2231.16
-1967.81
-1211.74
-1513.3
-1365.21
-859.156
-370.477
1021.16
1493.1
1722.3
1842.86
1865.01
1953.9
1946.72
1948.23
3376.29
2239.91
2011.25
133395
125874
124182
115165
107065
85415.9
67027
24811.6
9899.38
-1372.53
-1695.98
-2750.8
-2780.56
-2949.28
-3017.96
-2457.62
-2947.23
-2698.84
-2777.7
-2581.84
-2602.87
-2459.24
-2404.18
-2317.08
-2257.94
-2237.11
-2128.87
-2024.22
-1075.85
-2110.51
-2262.68
-2423.56
-2179.06
-2388.06
-2306.39
-1544.54
-2362.48
-2323.21
-2249.8
-1913.88
-2036.95
-2086.69
-1500.91
-2353.72
-2485.55
-2633.16
-2461.94
-2251.16
-1972.04
-1211.72
-1579.76
-1418.46
-966.23
-480.975
910.21
1435.73
1665.15
1890.26
1919.04
1987.57
1967.98
1965.03
3027.99
2091.39
2003.57
161996
157538
154414
143769
133264
110402
91170
45579.9
24154.8
25.946
-554.312
-1978.04
-1951.25
-2532.49
-2514.98
-2252.56
-2619.89
-2503.42
-2515.64
-2384.61
-2384.67
-2271.57
-2223.9
-2138.73
-2103.06
-2066.69
-2000.39
-1880.7
-1004.31
-1965.14
-2111.18
-2331.07
-2105.48
-2302.48
-2196.4
-1458.16
-2292.94
-2267.62
-2267.68
-1940.4
-2042.23
-2049.38
-1431.31
-2310.23
-2430.08
-2609.25
-2433.92
-2269.84
-1982.15
-1213.52
-1649.37
-1482.18
-1090.25
-605.839
788.41
1345.14
1583.23
1913.24
1936.13
1990.03
1954.89
1953.14
2661.43
1993.67
2000.26
197283
191393
186478
173553
161318
137781
119249
70544.9
44623.5
1404.21
168.318
-1415.57
-1426.9
-2121.62
-2086.43
-1995.83
-2336.44
-2275.08
-2293.02
-2189.46
-2195.81
-2093.73
-2062.1
-1966.93
-1952.37
-1895.85
-1859.73
-1730.65
-920.368
-1816.95
-1934.97
-2205.79
-1987.65
-2187.09
-2055.01
-1344.85
-2180.03
-2166.84
-2242.19
-1918.27
-2021.79
-1976.45
-1332.5
-2234.88
-2350.66
-2564.65
-2380.94
-2272.35
-1972.82
-1196.59
-1709.01
-1536.47
-1212.41
-716.741
687.989
1262.06
1499.82
1926.21
1935.2
1999.66
1956.51
1953.81
2355.2
1975.46
2001.98
234954
227900
219928
205415
192082
170386
150276
98950.1
69591.6
13037.4
1500.07
-707.099
-867.931
-1786.4
-1744.58
-1870.88
-2191.13
-2137.81
-2134.79
-2051.93
-2044.7
-1959.48
-1918.72
-1833.35
-1808.08
-1752.96
-1717.81
-1595.64
-848.552
-1656.11
-1762.85
-2040.25
-1853.11
-2036.02
-1900.63
-1214.34
-2043.06
-2047.52
-2168.58
-1874.29
-1976.14
-1895.66
-1242.02
-2157.07
-2270.23
-2497.51
-2318.36
-2257.13
-1955.85
-1173.41
-1763.29
-1595.38
-1339.59
-832.555
563.265
1119.04
1390.05
1936.29
1926.5
1980.42
1933.83
1932.01
2072.55
1947.03
1998.4
275289
266281
255369
240208
228438
205956
183851
133470
98469.5
33853.8
12367.8
-37.1783
-425.362
-1420.33
-1349.61
-1635.82
-1948.72
-1920.93
-1934.58
-1866.02
-1860.51
-1785.19
-1751.94
-1660.98
-1645.58
-1574.39
-1560.12
-1425.87
-760.872
-1476.11
-1561.8
-1843.12
-1668.11
-1854.23
-1704.47
-1065.31
-1855.22
-1875.34
-2041.46
-1763.58
-1886.22
-1765.28
-1115.46
-2021.36
-2143.34
-2392.47
-2213.28
-2211.9
-1906.07
-1118.57
-1798.15
-1632.2
-1452.81
-928.532
480.756
1042.54
1341.68
1959.72
1915.8
1976.34
1934.47
1933.2
1987.91
1948.28
2001.21
317711
305956
293744
277660
267786
244128
220174
171631
133392
63055.5
32452.7
1327.24
369.551
-803.865
-879.754
-1387.35
-1759
-1742.74
-1741.98
-1676.31
-1643.29
-1591.84
-1547.12
-1468.84
-1451.67
-1379.56
-1370.43
-1238.62
-645.027
-1255.09
-1350.77
-1593.47
-1456.04
-1624.89
-1484.03
-879.374
-1620.43
-1670.78
-1840.64
-1611.22
-1737.31
-1604.65
-953.499
-1860.62
-2007.4
-2253.98
-2096.88
-2136.17
-1835.93
-1044.49
-1810.88
-1663.22
-1556.81
-1026.18
357.989
878.413
1275.76
1946.58
1869.33
1977.03
1913.21
1911.45
1946.25
1922.03
1994.88
361084
347694
335047
322397
309957
284305
259363
212262
172479
98522.1
59411.2
11590.6
1343.75
-268.908
-321.869
-1113
-1208.58
-1381.18
-1279.76
-1305.03
-1252.5
-1247.81
-1225.04
-1144.03
-1183.58
-1065.79
-1146.1
-945.404
-502.013
-986.536
-1099.15
-1304.16
-1183.65
-1364.39
-1200.11
-686.407
-1333.17
-1424.12
-1588.45
-1389.54
-1539.94
-1376.48
-763.964
-1632.57
-1806.77
-2056.6
-1910.5
-2013.96
-1706.08
-928.344
-1783.23
-1652.49
-1631.51
-1098.56
272.008
829.857
1341.69
2000.32
1892.94
2000.32
1928.29
1927.45
1953.7
1935.71
2000.76
406514
392929
383029
369798
355278
327321
301776
255240
214218
137816
95621.9
34539.2
11408.7
1259.85
1216.02
339.975
354.991
-260.533
-65.1779
-400.619
-338.815
-459.571
-510.348
-439.606
-619.273
-427.049
-684.007
-367.291
-151.567
-484.858
-699.511
-821.495
-757.627
-945.432
-771.722
-351.321
-874.565
-1070.17
-1158.13
-1045.84
-1192.11
-1030.37
-451.024
-1261.89
-1519.25
-1733.45
-1646.66
-1801.78
-1486.19
-758.916
-1656.06
-1583.58
-1631.55
-1112.82
256.169
825.609
1411.66
2001.04
1954.22
2008.54
2021.79
2016.06
2004.25
2006.66
2004.12
454616
440781
434020
419514
402541
372737
346390
301028
258160
184302
133801
65014.4
30883.3
1628.06
926.948
45.4885
-594.074
-906.334
-1038.63
-1117.75
-1141.16
-1137.35
-1097.21
-1055.56
-1043.14
-979.406
-1004.1
-857.138
-459.294
-830.373
-935.362
-1023.65
-991.973
-1067.68
-993.227
-463.072
-1041.14
-1139.33
-1237.3
-1156.04
-1228.34
-1144.56
-458.867
-1334.11
-1524.21
-1730.53
-1697.48
-1798.18
-1563.73
-759.882
-1716.96
-1674
-1745.87
-1301.92
120.321
449.546
1222.55
1978.07
1635.06
1974.17
1889.72
1884.28
1917.51
1905.13
1985.54
506105
494618
488403
472415
451913
421287
394680
350118
305130
235099
179535
105985
63940.6
16971.5
1617.14
461.467
-466.974
-587.035
-1017.7
-1019.21
-1240.94
-1206.33
-1230.18
-1202.99
-1146.75
-1162.77
-1068.14
-1047.14
-563.875
-963.984
-990.46
-1077.65
-1046.72
-1075.34
-1056.25
-479.54
-1066.88
-1084.15
-1208.95
-1126.69
-1182.38
-1134.43
-406.831
-1290.46
-1404.96
-1637.51
-1607.8
-1705.5
-1526.01
-666.186
-1695.7
-1662.46
-1792.24
-1403.66
98.9477
202.162
1237.84
2000.9
1586.46
2001.13
1882.59
1878.1
1918.12
1900.8
1999.31
561390
554517
546038
528303
504147
473212
446287
401808
355603
287877
231927
153955
104489
46082.9
18147.9
1583.41
179.717
-32.9793
-671.043
-790.497
-1187.4
-1206.83
-1334.25
-1309.3
-1258.33
-1292.8
-1145.52
-1177.65
-674.082
-1049.62
-1037.38
-1093.64
-1067.83
-1059.36
-1057.7
-487.041
-1050.7
-1025.46
-1139.14
-1066.5
-1098.57
-1064.13
-346.515
-1207.69
-1271.9
-1502.36
-1483.2
-1582.65
-1445.74
-576.698
-1634.98
-1619.38
-1774.28
-1429.93
108.607
-18.2141
1214.16
1877.61
1374.59
2000.18
1829.1
1819.19
1873.94
1853.95
1968.39
623789
617808
606912
586193
559817
528343
501023
456829
409342
342973
286302
211645
156038
89682.7
51063.3
13672.8
793.186
389.615
-197.47
-347.952
-791.469
-860.792
-1104.83
-1105.7
-1144.99
-1190.87
-1077.25
-1129.92
-656.906
-1018.32
-976.299
-1030.63
-997.678
-986.035
-990.574
-458.609
-968.749
-908.91
-1025.09
-943.022
-983.085
-947.815
-271.305
-1064.45
-1077.72
-1323.53
-1283.33
-1409.82
-1286.76
-417.43
-1490.67
-1471.16
-1682.34
-1380.68
151.07
-193.781
1290.48
1899.57
1582.98
2001.63
1866.22
1823.47
1884.68
1859.37
1989.85
692168
684604
671469
647032
619062
586965
559174
515415
466596
401359
343207
271683
213179
140099
95462.8
42298.8
1743.86
1468.34
518.187
356.924
-249.755
-380.246
-819.886
-871.188
-1062.08
-1096.11
-1031.73
-1082.45
-619.228
-938.499
-874.128
-902.245
-870.245
-844.023
-849.451
-358.614
-810.425
-741.333
-837.013
-759.582
-788.643
-754.001
-123.829
-843.367
-837.133
-1064.04
-1020.09
-1154.16
-1047.46
-218.178
-1268.88
-1259.84
-1492.09
-1226.86
269.979
-281.756
1347.18
1828.48
1695.72
2000.79
1764.53
1728.95
1825.94
1789.61
1947.19
764748
754738
739762
711472
681709
648918
620569
577272
527155
462906
403678
333368
273491
201938
146696
85018
26291.2
7911
996.675
753.031
267.193
119.812
-290.957
-336.846
-641.06
-585.396
-728.984
-628.944
-386.504
-608.166
-605.456
-618.203
-581.258
-607.515
-557.575
-217.578
-529.394
-520.434
-575.741
-499.271
-559.723
-482.806
18.3486
-546.104
-558.996
-763.509
-690.36
-879.918
-720.423
9.83946
-960.301
-945.197
-1230.68
-960.837
383.288
-279.58
1443.32
1817.19
1996.82
2002.86
1970.64
1794.28
1870.52
1820.59
1997.1
840755
828338
810911
779418
748010
714468
685530
642708
591320
527940
467795
398052
336657
267577
208951
140794
67425.1
36542.3
1959.47
1873.19
1518.18
1357.96
1090.01
1057.49
679.043
797.452
359.118
627.425
425.208
304.382
144.409
127.3
133.738
33.9252
128.845
333.949
128.436
5.54467
12.3391
27.337
-37.1508
45.5866
466.131
42.5042
-71.5484
-191.461
-157.786
-336.725
-145.959
448.657
-380.404
-445.174
-711.06
-474.611
707.026
80.9534
1660.54
2011.12
2054.4
2005.92
2001.44
2000.34
2003.49
2002.32
2305.1
919861
905669
883347
850549
817913
783503
753877
711370
658723
595852
534847
465566
402754
333735
273318
198364
119795
75966.7
21197.2
2348.02
1522.66
1169.04
652.491
525.229
49.4134
-10.4987
-417.995
-362.214
-448.386
-596.999
-606.374
-580.263
-547.943
-514.369
-495.077
-127.421
-399.157
-396.91
-392.115
-353.599
-341.453
-312.73
188.53
-275.991
-292.811
-384.188
-369.99
-449.041
-370.988
274.609
-514.004
-569.894
-757.241
-620.448
531.047
-191.382
1262.21
1665.86
2002.93
2001.72
1787.7
1498.8
1761.32
1674.36
1895.35
1.00219e+06
985843
958353
925008
891510
856181
825786
783462
729623
667105
605405
536637
472711
403321
341361
269091
182735
133699
67968.5
38091.3
4418.5
1658.15
967.459
784.138
392.668
271.568
-81.5064
-148.951
-249.123
-564.036
-542.619
-613.205
-592.661
-577.588
-602.269
-223.908
-533.652
-452.705
-480.76
-425.776
-397.685
-401.104
102.574
-347.792
-297.764
-392.438
-373.789
-416.533
-385.545
268.352
-467.473
-489.133
-655.418
-562.869
484.298
-278.435
912.775
1280.49
2002.96
2006.42
2000.28
1728.67
1935.5
1677.08
1978.99
1.0884e+06
1.06749e+06
1.03747e+06
1.00323e+06
968991
932760
901544
859255
804314
742031
679756
611479
546613
477035
412863
342008
259749
204029
130132
89346.1
35356.8
17463.1
1761.68
1479.88
1062.82
888.213
550.396
331.66
139.65
-347.414
-380.151
-588.242
-589.483
-645.596
-669.216
-330.439
-607.256
-476.466
-494.582
-419.301
-365.899
-375.125
121.079
-295.572
-214.48
-292.544
-262.316
-270.695
-263.621
368.479
-305.711
-296.683
-432.668
-365.724
559.156
-178.744
753.474
1203.4
2006.33
2008.71
2000.06
1586.74
1684.08
1381.78
1811.71
1.17917e+06
1.15205e+06
1.12037e+06
1.08516e+06
1.05022e+06
1.01315e+06
980999
938532
882572
820348
757606
689661
624087
554385
488689
417924
340078
280838
202249
154190
90509.2
62594.2
19369.3
1970.62
1371.75
1212.87
833.964
789.797
457.325
185.902
42.2685
-128.945
-143.722
-313.036
-243.403
-142.169
-283.655
-244.488
-239.704
-174.761
-176.668
-123.646
226.534
-70.1969
-32.3631
-93.2851
-32.1919
-103.436
-16.2148
496.413
-69.4231
-33.2648
-203.612
-74.8018
658.811
11.4418
629.303
933.884
1994.29
2010.06
2000.3
1896.23
1848.69
1572.01
2001.23
1.27322e+06
1.24087e+06
1.20712e+06
1.17093e+06
1.13532e+06
1.09749e+06
1.06431e+06
1.02146e+06
964589
902350
839232
771638
705474
635860
569012
498335
422116
360736
286295
229667
161243
119520
61630.4
31301.9
1995.39
1974.38
1765.78
1795.96
1607.7
1473.57
1322.38
1204.7
1156.77
931.078
1020.33
906.939
804.791
648.471
640.643
627.835
552.324
643.694
851.424
640.597
574.722
559.246
586.341
517.337
646.077
1022.88
590.213
557
448.069
574.838
1170.11
630.515
932.223
1306.57
2008.71
2295.02
2006.37
2004.37
2002.44
2001.3
2007.27
1.36857e+06
1.33394e+06
1.29851e+06
1.26131e+06
1.22493e+06
1.18641e+06
1.152e+06
1.10845e+06
1.05075e+06
988287
924780
857301
790558
720866
652972
582169
506559
442965
371556
312851
238117
186290
120702
78891.5
28741.4
2495.89
1867.74
1653.65
1503.17
1091.99
1020.92
695.891
610.43
303.276
246.049
138.442
-107.629
-159.091
-191.085
-156.439
-158.173
-97.8993
242
25.9758
67.4522
91.7619
128.324
165.961
201.207
662.311
254.904
255.289
223.52
282.878
897.07
350.354
559.003
935.767
1820.1
2023.66
2001.77
2001.02
1831.7
1472.68
1777.86
1.46674e+06
1.43075e+06
1.39381e+06
1.35592e+06
1.31857e+06
1.27948e+06
1.24364e+06
1.19914e+06
1.14065e+06
1.07792e+06
1.01408e+06
946625
879451
809628
741019
669935
595438
529988
459412
399179
328604
271306
196622
151075
88493
51316
18091.6
1901.84
1599.68
1296.8
1208.5
990.285
910.984
649.095
603.225
412.233
212.249
127.384
74.7422
69.5425
31.531
62.2993
355.429
119.592
161.023
169.695
196.976
226.367
257.161
675.791
310.713
314.942
289.313
341.258
879.914
394.317
503.672
761.926
1404.76
2007.37
1964.13
2001.67
1908.64
1805.96
2001.19
1.56969e+06
1.53152e+06
1.49326e+06
1.45475e+06
1.41641e+06
1.37678e+06
1.33943e+06
1.29371e+06
1.23447e+06
1.17148e+06
1.10733e+06
1.03995e+06
972405
902601
833382
762295
688727
621804
551045
488925
419934
359903
286740
228271
165539
114507
65837.9
32500.2
2085.61
1984.97
1960.73
1844.6
1810.03
1707.73
1698.93
1636.09
1498.8
1371.24
1282.23
1223.88
1068.09
1106.14
1112.36
991.042
873.845
858.856
872.316
809.484
914.833
1172.61
876.032
858.064
834.699
903.563
1338.71
916.377
930.121
1084.79
1549.87
2020.73
2007.78
2010.9
2004.87
2003.93
2004.35
1.67734e+06
1.63758e+06
1.59816e+06
1.55887e+06
1.51948e+06
1.47928e+06
1.44032e+06
1.39295e+06
1.33304e+06
1.26967e+06
1.20518e+06
1.13766e+06
1.06978e+06
999785
930076
858711
785641
717597
646644
582664
513126
451190
381726
321046
249020
189857
129420
85661.2
35483.6
1971.91
1953.48
1814.74
1701.13
1506.36
1415.4
1330.54
985.116
898.352
648.122
569.803
321.261
298.064
203.594
53.2607
-7.80812
13.209
27.2286
32.6689
91.4407
408.949
189.99
188.224
254.792
262.277
743.999
356.927
356.262
519.744
875.716
2004.41
2000.59
2004.76
2001.71
2000.65
2001.01
1.78873e+06
1.74789e+06
1.70759e+06
1.66737e+06
1.62691e+06
1.58615e+06
1.54547e+06
1.4961e+06
1.43557e+06
1.37184e+06
1.30699e+06
1.23932e+06
1.17117e+06
1.10097e+06
1.03091e+06
959171
886627
817705
746867
681312
611871
548074
479737
417520
349860
288224
219050
168666
112557
55797
37898.8
2303.37
1912.21
1768.82
1634.55
1483
1245.25
1194.76
1007.95
934.671
740.668
658.601
595.345
315.241
303.828
201.596
174.52
136.726
105.843
387.455
102.386
117.407
148.379
111.664
585.992
187.778
215.564
310.314
471.407
1657.7
1332.27
2000.92
2000.21
2001.34
2002.94
1.90468e+06
1.86296e+06
1.82184e+06
1.78054e+06
1.73907e+06
1.69766e+06
1.6552e+06
1.60356e+06
1.54242e+06
1.4784e+06
1.41313e+06
1.34538e+06
1.27692e+06
1.20664e+06
1.13621e+06
1.06432e+06
992290
922663
851940
785092
715580
650132
581191
517567
450763
388265
322335
264547
197114
134319
102680
51164
31535.7
2016.06
1975.83
1961.79
1757.47
1737.24
1584.84
1541.64
1383.88
1276.34
1222.28
859.771
811.655
568.829
492.691
321.159
210.282
362.862
38.4221
62.947
28.2659
4.4327
410.59
59.5356
140.333
181.596
267.034
1316.14
1154.27
2000.97
2002.61
2004.5
2005.2
2.02545e+06
1.98293e+06
1.94085e+06
1.89841e+06
1.85593e+06
1.81377e+06
1.76941e+06
1.71525e+06
1.65357e+06
1.58926e+06
1.5236e+06
1.45569e+06
1.387e+06
1.31656e+06
1.24588e+06
1.17373e+06
1.10198e+06
1.03191e+06
961139
893315
823655
756942
687842
622907
555353
492334
427095
367811
303610
232888
192591
140059
104924
60308.8
40452.6
4294.72
1907.64
1864.55
1712.82
1694.98
1557.88
1529.83
1418.56
1237.19
1152.89
971.947
937.236
664.942
711.278
616.47
417.238
410.827
258.377
356.979
517.272
295.815
357.075
292.007
422.03
1065.61
943.407
1581.1
1531.5
2001.86
2006.69
2.15106e+06
2.10754e+06
2.06433e+06
2.02078e+06
1.97733e+06
1.93419e+06
1.88786e+06
1.83109e+06
1.76893e+06
1.7043e+06
1.63829e+06
1.57024e+06
1.50133e+06
1.43079e+06
1.35993e+06
1.28766e+06
1.21611e+06
1.14575e+06
1.07494e+06
1.00638e+06
936593
868881
799689
733633
665857
601685
535698
474945
412541
347853
297902
232851
193751
142977
107223
58075.1
12504
2023.53
2001.2
2000.66
1986.06
1978.66
1965.1
1912.94
1862.98
1831.07
1810
1713.5
1779.19
1722.39
1609.1
1538.49
1445.4
1507.15
1559.24
1376.24
1309.06
1242.13
1318.68
1650.98
1526.07
1831.1
1993
2005.58
2013.55
2.28356e+06
2.23885e+06
2.19443e+06
2.14971e+06
2.1053e+06
2.06068e+06
2.01223e+06
1.95295e+06
1.89031e+06
1.82528e+06
1.75883e+06
1.69055e+06
1.62133e+06
1.5506e+06
1.47946e+06
1.40701e+06
1.3356e+06
1.26484e+06
1.19389e+06
1.12459e+06
1.0545e+06
985839
916365
849228
781085
715764
649304
586813
523867
461015
408092
345328
295696
233847
191819
129277
66519.5
41216.5
2221.72
2010.01
1998.74
1985.54
2000.12
1876.04
1877.48
1778.24
1744.7
1674.48
1577.1
1600.46
1301.08
1245.83
1078.71
992.23
1046.43
714.639
680.851
560.154
550.382
833.044
660.588
944.192
1237.55
1871.5
2007.65
2.42083e+06
2.37498e+06
2.32931e+06
2.2835e+06
2.2381e+06
2.19141e+06
2.14054e+06
2.07934e+06
2.01614e+06
1.95068e+06
1.88384e+06
1.8153e+06
1.74583e+06
1.67488e+06
1.60357e+06
1.53083e+06
1.45941e+06
1.38844e+06
1.31727e+06
1.24743e+06
1.17699e+06
1.10759e+06
1.03778e+06
969799
901306
835074
768222
704570
641058
578214
522571
461431
409322
352621
302058
234501
173304
132072
83109
60092.1
31285.7
6735.43
1991.51
1918.74
1889.11
1821.17
1809.3
1717.23
1701.98
1644.53
1493.4
1448.39
1276.7
1268.55
1152.82
984.687
927.178
748.361
791.436
810.609
703.723
797.483
896.163
1310.56
2001.24
2.56273e+06
2.51572e+06
2.46887e+06
2.42196e+06
2.37536e+06
2.32634e+06
2.27264e+06
2.21025e+06
2.14642e+06
2.08048e+06
2.01327e+06
1.94449e+06
1.87478e+06
1.8037e+06
1.73218e+06
1.65936e+06
1.58794e+06
1.51679e+06
1.44545e+06
1.37519e+06
1.30444e+06
1.23446e+06
1.16435e+06
1.09568e+06
1.02691e+06
959874
892807
828140
764053
700423
642122
581084
526423
469749
415620
352377
278425
235783
183934
147001
103351
63512.3
35532.5
2007.42
2002.51
2000.92
2000.52
2000.17
2000.1
2000.16
1996.31
1979.12
1956.79
1952.94
1980.24
1910.3
1854.14
1813.98
1813.38
1884.99
1766.78
1713.81
1767.23
1936.29
2003.9
2.71216e+06
2.66394e+06
2.61595e+06
2.56791e+06
2.51937e+06
2.46794e+06
2.41122e+06
2.34813e+06
2.28369e+06
2.21715e+06
2.14949e+06
2.08037e+06
2.01034e+06
1.93904e+06
1.86722e+06
1.79418e+06
1.7227e+06
1.65126e+06
1.57966e+06
1.50892e+06
1.43777e+06
1.36717e+06
1.29661e+06
1.22725e+06
1.15801e+06
1.09019e+06
1.02267e+06
956982
892113
827710
767341
705727
648637
589926
533561
472687
406163
352608
287218
246354
193974
143180
95525.4
38342.2
8201.82
2010
2006.74
2002.32
2000.44
2000.4
2000.02
1999.71
1980.81
1934.82
2000.06
1819.51
1797.46
1722.05
1644.59
1738.07
1441.02
1409.22
1367.15
1450.88
2000.48
2.86901e+06
2.81961e+06
2.77043e+06
2.72087e+06
2.67003e+06
2.61603e+06
2.55627e+06
2.49283e+06
2.4278e+06
2.36059e+06
2.29252e+06
2.22304e+06
2.15275e+06
2.08119e+06
2.00918e+06
1.93583e+06
1.8642e+06
1.79255e+06
1.72069e+06
1.64955e+06
1.57802e+06
1.50691e+06
1.4359e+06
1.36593e+06
1.29619e+06
1.22772e+06
1.1596e+06
1.09314e+06
1.02727e+06
962370
900423
838251
779201
719346
661065
600521
537096
481703
423226
377403
323110
267641
207906
151132
107835
75599.9
57422.3
28949.4
2549.76
2004.36
1994.62
1989.63
1956.2
1945.99
1944.19
1863
1843.54
1775.07
1755
1730.53
1601.09
1560.59
1466.52
1486.37
1635.38
3.03167e+06
2.98107e+06
2.93048e+06
2.87882e+06
2.82567e+06
2.76877e+06
2.70661e+06
2.64336e+06
2.5778e+06
2.50954e+06
2.44095e+06
2.3712e+06
2.30059e+06
2.2289e+06
2.1566e+06
2.0832e+06
2.01149e+06
1.93963e+06
1.86757e+06
1.79607e+06
1.72422e+06
1.65263e+06
1.58124e+06
1.5107e+06
1.44054e+06
1.3714e+06
1.30282e+06
1.23551e+06
1.16895e+06
1.10363e+06
1.04039e+06
977550
916879
856002
796093
735124
672044
615043
556908
506935
451724
396315
336088
264509
222238
179470
144499
107112
64421.7
34817.2
2008.72
2003.78
2001.68
2001.1
2000.87
2000.3
2000.23
2000.22
2000.18
2000.33
2000.18
2000.14
2000.16
2000.15
2000.56
3.1997e+06
3.1476e+06
3.09503e+06
3.04124e+06
2.98552e+06
2.92555e+06
2.86196e+06
2.79696e+06
2.73087e+06
2.6632e+06
2.59431e+06
2.52418e+06
2.45329e+06
2.38127e+06
2.30873e+06
2.23496e+06
2.16305e+06
2.09094e+06
2.01855e+06
1.94668e+06
1.87438e+06
1.80233e+06
1.73042e+06
1.65935e+06
1.58859e+06
1.51884e+06
1.44958e+06
1.38152e+06
1.31403e+06
1.24801e+06
1.18369e+06
1.11992e+06
1.0579e+06
995878
934689
872989
810105
751478
692298
638505
581961
526081
466840
401996
349503
289066
249824
204809
156269
104775
47447.9
20900.4
2014.79
2010.19
2006.28
2001.89
2000.69
2000.46
2000.32
2000.51
2000.27
2000.23
2000.26
2000.16
2000.42
3.36955e+06
3.31562e+06
3.26111e+06
3.20506e+06
3.14667e+06
3.08405e+06
3.01958e+06
2.95269e+06
2.88585e+06
2.81875e+06
2.7497e+06
2.6792e+06
2.60807e+06
2.53571e+06
2.46297e+06
2.38892e+06
2.31676e+06
2.24441e+06
2.17174e+06
2.09954e+06
2.02687e+06
1.95441e+06
1.88202e+06
1.81049e+06
1.73917e+06
1.66887e+06
1.59893e+06
1.53021e+06
1.46183e+06
1.39516e+06
1.32992e+06
1.26524e+06
1.20207e+06
1.13903e+06
1.07679e+06
1.01436e+06
951677
891921
832126
775877
718288
661207
602814
541481
487675
431978
386662
343138
295986
242118
178036
146802
110885
85947.6
64256.5
27094.5
2599.5
2006.57
2002.48
2001.76
2000.79
2000.51
2000.24
2000.1
2000.17
3.54125e+06
3.48554e+06
3.42899e+06
3.37056e+06
3.30945e+06
3.2454e+06
3.18014e+06
3.1132e+06
3.04567e+06
2.97734e+06
2.90776e+06
2.83693e+06
2.76542e+06
2.69284e+06
2.61979e+06
2.54555e+06
2.4733e+06
2.40067e+06
2.32779e+06
2.25525e+06
2.18227e+06
2.1094e+06
2.03662e+06
1.96458e+06
1.89278e+06
1.82188e+06
1.75138e+06
1.68192e+06
1.61284e+06
1.54561e+06
1.4795e+06
1.41402e+06
1.34976e+06
1.28585e+06
1.22265e+06
1.15957e+06
1.09696e+06
1.03614e+06
975665
917579
858940
800788
741825
681113
625793
569930
521779
474408
426325
373840
316558
273784
226237
190930
159112
105377
71288.5
37991.2
7606.11
2013.57
2007.65
2005.54
2002.69
2001.07
2000.83
3.71486e+06
3.65726e+06
3.59854e+06
3.53778e+06
3.47428e+06
3.4094e+06
3.34332e+06
3.27584e+06
3.20761e+06
3.13849e+06
3.0684e+06
2.99719e+06
2.92532e+06
2.85244e+06
2.77914e+06
2.70463e+06
2.63215e+06
2.55932e+06
2.48621e+06
2.41337e+06
2.3401e+06
2.26688e+06
2.19372e+06
2.12125e+06
2.04899e+06
1.97758e+06
1.90649e+06
1.83643e+06
1.76656e+06
1.69875e+06
1.63188e+06
1.56563e+06
1.50045e+06
1.43567e+06
1.37169e+06
1.30779e+06
1.24485e+06
1.18323e+06
1.12206e+06
1.06258e+06
1.00301e+06
944018
884612
824608
768394
712743
662099
612205
562940
511745
458242
412592
367401
330390
296895
247340
204771
164018
133327
104323
78126
61080.6
35564
9433.32
2009.75
3.89009e+06
3.83052e+06
3.76962e+06
3.7065e+06
3.64177e+06
3.57599e+06
3.50906e+06
3.44095e+06
3.372e+06
3.30218e+06
3.2315e+06
3.15991e+06
3.08763e+06
3.01448e+06
2.94087e+06
2.86621e+06
2.7936e+06
2.7205e+06
2.64723e+06
2.57409e+06
2.50058e+06
2.42701e+06
2.35357e+06
2.28066e+06
2.20801e+06
2.13608e+06
2.06451e+06
1.9938e+06
1.92333e+06
1.855e+06
1.78741e+06
1.72045e+06
1.65442e+06
1.58886e+06
1.52406e+06
1.45949e+06
1.39621e+06
1.33378e+06
1.27192e+06
1.21131e+06
1.15093e+06
1.0911e+06
1.03139e+06
971805
914800
858913
806449
754898
704178
652554
599753
552371
506693
466359
428919
382652
341578
299586
260565
220517
187421
162392
121799
84660.2
53615.2
4.06716e+06
4.00556e+06
3.94242e+06
3.87771e+06
3.81199e+06
3.74528e+06
3.6775e+06
3.60869e+06
3.53903e+06
3.46856e+06
3.39733e+06
3.32532e+06
3.25262e+06
3.17917e+06
3.10526e+06
3.03031e+06
2.95749e+06
2.88425e+06
2.81073e+06
2.73736e+06
2.66357e+06
2.58974e+06
2.51596e+06
2.44271e+06
2.36966e+06
2.29729e+06
2.22523e+06
2.15399e+06
2.08282e+06
2.01398e+06
1.94579e+06
1.87814e+06
1.81138e+06
1.74507e+06
1.67954e+06
1.61421e+06
1.55044e+06
1.48735e+06
1.42475e+06
1.36323e+06
1.30207e+06
1.24157e+06
1.18127e+06
1.12176e+06
1.06418e+06
1.00783e+06
954010
901117
849279
797189
744980
696523
650065
607408
566514
521945
480299
438059
398679
362302
329824
299848
257827
214371
172562
4.24526e+06
4.18159e+06
4.11668e+06
4.05091e+06
3.98421e+06
3.91652e+06
3.84793e+06
3.77835e+06
3.70797e+06
3.63686e+06
3.56506e+06
3.49261e+06
3.41952e+06
3.34575e+06
3.27155e+06
3.19645e+06
3.12336e+06
3.04994e+06
2.9762e+06
2.90265e+06
2.82861e+06
2.75455e+06
2.68051e+06
2.60696e+06
2.53359e+06
2.46082e+06
2.38835e+06
2.31661e+06
2.245e+06
2.17564e+06
2.1069e+06
2.03863e+06
1.97121e+06
1.90422e+06
1.838e+06
1.77205e+06
1.70776e+06
1.64404e+06
1.58075e+06
1.51844e+06
1.45658e+06
1.39542e+06
1.33466e+06
1.27501e+06
1.21688e+06
1.15998e+06
1.10502e+06
1.05109e+06
998218
945603
893680
844339
797057
752452
709454
664321
621401
578547
538235
501148
465362
431200
390608
348443
303811
4.42815e+06
4.36269e+06
4.29664e+06
4.22974e+06
4.16205e+06