/*--------------------------------*- C++ -*----------------------------------*\
| =========                 |                                                 |
| \\      /  F ield         | OpenFOAM: The Open Source CFD Toolbox           |
|  \\    /   O peration     | Version:  v2012                                 |
|   \\  /    A nd           | Website:  www.openfoam.com                      |
|    \\/     M anipulation  |                                                 |
\*---------------------------------------------------------------------------*/
FoamFile
{
    version     2.0;
    format      ascii;
    class       volScalarField;
    location    "1e-06";
    object      pPrime2Mean;
}
// * * * * * * * * * * * * * * * * * * * * * * * * * * * * * * * * * * * * * //

dimensions      [2 -2 -4 0 0 0 0];


internalField   nonuniform List<scalar> 
10302
(
3.11068e+07
2.72943e+07
2.82562e+07
2.8258e+07
2.99165e+07
3.43103e+07
3.57338e+07
2.30867e+07
2.34237e+07
2.28446e+06
2.65726e+06
484144
731517
202027
299481
76151.8
154351
60494.2
66292.6
2303.52
1516.11
614.594
1686.74
528.289
10944.2
7623.18
27190
168.509
23358.8
22330.6
93858.6
545353
401358
120807
105267
19868.7
29519.2
10317.5
794892
774287
24362
38945
5092.45
59379.3
120068
52894.1
34197.4
56657.1
32998.9
144592
375287
168417
638197
565981
4.61806
0.0706031
0.071627
276.376
169.792
8.72711
95376.4
0.0959007
4.921e+07
9.74213e+06
3.66246e+06
4.64079e+06
4.42339e+06
4.53229e+06
4.61312e+06
4.80518e+06
4.05774e+06
3.8256e+06
1.00409e+06
610665
46343
62846.2
15932.6
80998
19019.3
78978.8
23398.2
38021
20016.3
14910.5
178.844
181.275
1623.04
2201.51
1012.48
9153.67
6236.42
20327.9
132.349
31315.3
17734.2
78498.7
156765
113257
73180.4
55897.2
21525.8
19004.8
12043.4
199413
201128
15747.7
23150.9
5198.26
60066.9
121979
53720.4
34377.4
51594.9
28816.9
138706
348776
152117
584973
516088
656.098
0.0435748
92.1442
74.342
62.1926
15.0518
102974
0.128724
4.78422e+07
9.31355e+06
3.24246e+06
1.85426e+06
1.61388e+06
1.81335e+06
2.30211e+06
2.95473e+06
4.37105e+06
5.09538e+06
1.36779e+06
3.20724e+06
432111
463109
95634.6
98344.1
23752.8
23767.4
24884.6
16928.2
4993.52
4980.51
7022.23
4597.38
8422.94
7544.56
6254.51
10498.7
10559.9
15026.9
1931.87
48200.9
12107.6
52449.2
30025.6
19126.9
38217
29127.1
24704.7
11169.5
13299.6
63129.8
70879.5
9841.36
14819.9
5828.06
62173.2
125234
55786.8
35390.4
43308
22132
129111
300200
126273
512635
428101
5674.17
0.00727641
0.000593325
108.122
0.0134831
42.555
116678
3.25711
4.49271e+07
8.32046e+06
2.57771e+06
1.04856e+08
5.26505e+07
3.44783e+07
1.03965e+06
699687
682439
1.15352e+06
1.30168e+06
1.43886e+06
172562
187727
45188.5
44215.5
9258.1
15410.9
31839.9
4261.4
1822.94
1895.86
571.274
470.584
681.832
1042.64
377.33
1640.85
1268.42
3024.08
236.792
44453.6
10935.8
39151
5190.47
7602.53
8307.32
4995.71
21085.8
5257.81
16630.6
16546.2
24532.7
4587.25
7546.38
5890.37
68931.5
133365
61089.5
38884
32361
13646
114483
236252
96517.6
434432
317386
10952.3
0.00379779
1.10213e-05
0.860195
4.43844
12.5575
71359.3
12.9178
4.12921e+07
7.38333e+06
2.02103e+06
9.31832e+08
5.48415e+08
2.74988e+08
9.94321e+07
5.46635e+07
929669
60766.6
403942
56795.5
118581
208401
74983.5
147568
35625.8
92164.1
12333.4
40286.9
17501.6
23053.5
17709.6
22050.6
17382.7
13052.7
13520.2
7340.94
9220.3
2862.6
6404.86
29178.9
17728
37920.8
41182.5
28141.7
1221.4
3819.15
14724.4
6515.98
22968.3
3948.28
6674.29
1952.04
5881.15
5770.38
80849.9
144672
71983.8
47626.6
22198.1
6335.46
98033.1
168220
67504.8
355190
213175
29297
0.0836388
0.000267286
101.07
108.49
69.2803
13766.2
2.84729
3.6933e+07
6.42295e+06
1.5519e+06
3.34287e+09
1.38567e+09
1.55286e+09
1.0108e+09
6.72016e+08
3.47698e+07
834893
45575
127770
38336.5
52187.8
14060.3
32138.3
11240
24779
30672.9
11350.9
3410.11
7935.71
1412.07
1812.39
1002.59
628.21
1197.74
50.9316
764.398
438.946
1125.51
43313.8
7517.5
19872
58055.7
23923.1
4747.87
8908.42
16320
10974.5
25634.5
15934.2
7427.88
2720.2
10867.6
7405.78
87706.2
147591
85490
59223.8
16650.6
3703.76
82326.3
103452
39665.5
265171
124781
28958.6
417.766
0.00101955
17.8268
17.9972
15.7314
5955.2
4.48468
3.06113e+07
4.65582e+06
800414
4.94979e+09
4.33279e+09
5.15087e+09
3.78535e+09
2.72203e+09
3.61551e+08
4.91781e+07
2262.15
57374.3
25296.6
54970.3
32262.6
68567
27525.3
71866.5
18659.3
34389.1
6727.58
30683.5
8161.55
13546.2
6819.19
5964.02
5755.81
1480.29
3084.4
1772.1
4115.66
27220.4
7499.91
16431.9
86173.1
37258.2
17373.8
25621.3
10594.1
22680.3
35137.1
52944
27715.7
6539.96
24420.3
7816.92
100108
153972
107830
78967.5
18041.8
7994.55
63315.2
47912.2
15751.9
174835
59371.6
38320.8
866.456
84.4042
1.2959
12.1376
1.95536
903.918
2.23709
2.39224e+07
3.02057e+06
291647
1.00514e+10
1.08366e+10
1.19699e+10
9.37331e+09
6.79745e+09
1.84228e+09
4.27847e+08
461214
100454
12729
35008
28475.9
71303.3
27216
66906
6900.3
37454.3
13713.2
34573.4
8630.99
12660
6466.69
5175.77
5323.12
2131.87
3761.47
5643.57
4059.55
13060
9224.85
16158.1
122867
60518.6
41598.5
52396
5172.82
43116.3
49368.8
115355
67050.3
16724
48920.1
8425.69
115765
158605
138216
103737
30494
22812.2
45373.2
11659.2
3018.1
96151.5
17479.8
41885.5
1485.96
1083.03
16.8564
13.8714
1.23487
51.35
6.08086
1.76233e+07
1.72616e+06
55638.6
2.0524e+10
2.1985e+10
2.32295e+10
1.83908e+10
8.85378e+09
3.25939e+09
1.06855e+09
1.23423e+06
39805.4
8970.84
15379.7
5620.27
10399.9
6569.94
6059.55
8172.65
2415.35
3562.64
1539.09
1904.5
3936.24
5496.83
6246.2
9332.15
9772.7
19698.7
18554.1
24678.7
2703.55
24433.5
28026.1
190552
119179
91704.5
116881
109.645
96576.3
81980.1
221226
145107
43611.9
96465.6
7855.72
142010
165713
181259
139360
60227.5
54531.1
27407.8
1225.45
5207.41
33605.3
2468.66
40878.7
785.844
587.014
12.6035
26.8689
0.41792
0.434723
3.53214
1.16667e+07
736042
2354.99
3.74854e+10
3.92678e+10
3.92368e+10
2.14294e+10
1.35111e+10
6.797e+09
2.99413e+09
1.34762e+08
583278
189438
182635
171972
346656
129938
353855
86795.5
271031
76691.5
194860
101181
161884
124009
123414
133074
91546.2
152400
78430.5
165973
12740.5
114878
74354
325624
230169
192529
231265
8671.75
206373
133174
385117
256715
98581.6
161047
4571.39
181770
170087
236721
176922
107207
101447
14380
26700.8
27710.9
3157.26
18983.9
38211.8
759.209
226.378
227.61
373.026
42.2503
45.1036
16.81
6.86618e+06
195409
2.10798
6.34732e+10
6.39037e+10
4.24832e+10
2.8739e+10
2.31138e+10
1.44841e+10
7.83607e+09
1.15617e+09
1.32924e+08
8296.89
17328.2
5882.38
14712.3
4075.87
8582.03
3066.26
3841.92
1725.39
4297.31
2308.46
7510.39
5492.84
9805.54
8323.78
11535.1
15296.5
16821.7
27724.7
362.233
36013.4
18753.6
159579
97751.4
108278
97623.3
574.031
131836
89828.9
312039
190379
91370.4
112972
11171.5
151296
126571
228494
155202
137311
116015
9830.89
70452.3
56616.5
10061.5
59388.8
32475.5
3395.95
25.1739
5.78189
5.39537
9.63687
8.03578
7.53233
3.34866e+06
14895.9
0.0464714
9.85285e+10
6.78777e+10
5.23907e+10
4.31125e+10
3.87648e+10
2.76709e+10
1.4335e+10
2.56708e+09
8.09873e+08
104636
3207.28
2395.07
12506.7
1368.72
5966.34
1542.41
3818.06
1391.61
2789.2
1441.47
1831.25
1452.44
1446.41
1490.12
1704.84
2375.22
4208.7
6296.72
2113.27
13079.2
6046.11
79394.1
49253.3
62945.7
50198
40.2112
96838.7
69502.1
252639
157506
92646.6
93319.1
10734.9
129801
94452
207089
134189
164811
131967
5347.74
135489
101943
59817.9
130605
18086.7
6086.83
74.3494
13.7637
21.6498
0.538177
1.01117
0.659291
1.08084e+06
33.9264
0.0223808
1.02786e+11
8.03316e+10
7.17925e+10
6.55951e+10
6.19945e+10
4.72342e+10
2.00134e+10
8.02766e+09
2.09798e+09
774368
70608.1
145.075
2487.06
1571.22
4054.44
3380.23
5934.49
3284.68
3885.84
2955.74
2366.79
2526.9
1328.79
2286.94
843.516
1749.41
1256.33
2044.09
3559.2
6186.83
1690.18
38964.4
21232.6
35456
23548.1
492.201
62610.7
43390.1
189799
111587
86034.6
66009.4
12987.6
97018.9
62101.6
171448
99357.4
173152
129042
4208.39
202828
146305
147332
209275
10120.1
11498.1
72.2774
3.7884
2.54507
0.84285
4.00588
3.19918
178206
1.12155
0.00665882
1.17786e+11
1.05317e+11
1.01965e+11
9.83422e+10
9.38612e+10
5.51508e+10
2.92072e+10
1.93522e+10
7.01828e+09
3.20505e+08
461032
4363.67
1263.07
126.653
317.05
151.472
79.1385
68.3921
103.824
53.234
29.3016
29.5761
89.908
50.5568
163.296
180.319
521.359
1348.22
1372.71
3962.66
297.847
17377.5
9787.22
17869.5
12205.2
1216.32
41633.9
26847
128014
79422
75206.9
51121.7
8380.33
80698.9
43466.8
129526
70425.1
160722
118690
4006.32
265840
196855
274091
306584
779.303
9755.03
1660.49
0.559349
0.855753
0.124289
3.30958
3.59999
8691.6
8.57743
0.766832
1.48576e+11
1.44833e+11
1.45225e+11
1.44499e+11
1.03615e+11
6.6541e+10
4.34074e+10
2.55434e+10
1.80254e+10
1.81377e+09
2.54239e+08
81476.6
1185.71
1186.79
99.8431
51.0993
185.95
79.7334
416.268
210.398
1076.82
570.884
1293.79
717.558
898.46
810.598
895.929
1968.6
471.834
3843.15
40.1806
7201.5
2319.66
7704.08
3783.52
2405.86
19708.5
9265.12
71088.4
37141.2
52444.5
26207.3
9850.73
43986.1
19694.9
78180.8
33135.6
122467
83059.7
7831.66
292093
212886
393566
374310
747.418
17823.1
2804.44
79.4299
20.6342
1.14027
1.41423
1.49072
43.3512
1.83814
0.00841905
1.97578e+11
2.00262e+11
2.05326e+11
2.03981e+11
1.19289e+11
8.58614e+10
6.45894e+10
3.76226e+10
2.45269e+10
4.74508e+09
1.47147e+09
525312
21631.5
453.324
116.366
1856.57
13127
4534.87
12349.8
6020.6
8489.65
6450.59
6200.96
6198.85
3559.04
5538.67
1647.69
5890.05
1200.6
2971.35
1353.21
1357.16
886.833
1064.43
1468.29
7516.25
3923.87
646.826
19612.5
8886.23
20049
7594.73
18311.7
16764.3
6754.6
33952.7
11358.7
73321.9
44677.7
18317.5
267431
206476
484158
428908
12617
10441.4
7287.62
71.5955
77.7831
5.11355
11.5699
13.3988
28.9839
14.1099
1.56756
2.65673e+11
2.7491e+11
2.83348e+11
2.11726e+11
1.44574e+11
1.14647e+11
9.50493e+10
5.96469e+10
3.57385e+10
1.5413e+10
8.07659e+09
1.80517e+08
459253
12607.1
2650.83
15125.7
8780.62
5914.97
5587.57
2530.2
3023.02
2155.6
2623.7
2777.68
2539.35
4519.19
2586.66
5896.49
5413.01
6442.09
10139
7999.34
13680.1
6138.57
15562.3
21163.3
9397.27
9540.88
1716.51
6351.94
446.942
6676.21
41469.6
2354.1
4937.44
3835.1
9471.47
22444.2
5638.24
52466.5
176280
141405
476683
397752
21467
38944.8
1351.58
0.00235749
24.4602
0.00242261
18.3428
9.26718
8.06933
13.2516
0.000230172
3.56505e+11
3.74612e+11
3.12563e+11
2.3227e+11
1.82246e+11
1.55351e+11
1.37614e+11
9.38804e+10
5.75633e+10
3.99345e+10
1.21417e+10
1.11522e+09
1.17004e+08
25165.2
33902.2
43520.5
162595
84056.1
217514
121365
214746
162267
181539
196244
141039
221935
109843
231448
107984
198223
126752
172329
169250
125968
188530
131935
199748
108157
152020
131543
88039.8
139592
163815
135038
71505.5
80850.6
91784
21764.6
50861.1
126172
60337.3
73323.9
342409
295878
13811.9
123240
23005.1
0.00351695
1670.82
0.0141918
728.032
1508.4
82.797
24.9847
0.0464832
4.74976e+11
5.00023e+11
3.40551e+11
2.69707e+11
2.34164e+11
2.10047e+11
1.94008e+11
1.43226e+11
9.24402e+10
4.68277e+10
2.95128e+10
3.83354e+09
6.56022e+08
282589
88665.7
9393.25
15247
13598.4
18720.7
13819.1
10428
8240.59
3575.46
4576.84
2289.08
3441.18
2059.92
3891.55
3553.95
4966.69
4285.92
9706.52
7146.62
9277.65
8581.97
20460.4
12253.4
8496.69
14880.8
8209.23
8692.93
6875.3
54023.6
8097.17
3682.91
8033.94
3020.79
5527.06
2910.38
46918.8
92362.8
113709
410876
471838
48284.7
2295.85
4947.4
5.89192
1265.68
15.757
34.9059
31.216
19.2762
28.1747
5.55274
6.27381e+11
5.73578e+11
3.83575e+11
3.27011e+11
3.02764e+11
2.82485e+11
2.69177e+11
2.11358e+11
1.44323e+11
6.99943e+10
4.51121e+10
1.39846e+10
3.14041e+09
4.54926e+08
295749
40259
5583.72
752.739
6670.53
2100.98
6192.04
3357.68
2959.6
3859.98
1253.7
4731.54
711.895
5303.88
356.228
4672.62
1121.51
1643.14
1950.87
782.353
3862
2534.74
2974.07
523.213
885.931
910.382
499.411
3860.48
16463.6
3159.36
257.686
719.796
2295.09
8649.94
14979.5
25101.1
105522
114783
401333
538619
44960.8
41268.5
4593.74
0.0639283
208.5
0.0016054
1.10723
2.99939
3.2808
1.55463
1.00354
8.17774e+11
5.92459e+11
4.46969e+11
4.07444e+11
3.91948e+11
3.76667e+11
3.66582e+11
3.00961e+11
2.17698e+11
1.16437e+11
6.20626e+10
3.25105e+10
1.63986e+10
3.10668e+09
4.446e+08
208011
2990.8
349.74
874.904
802.746
5942.39
5060.97
8966.91
7797.63
5828.86
8487.05
3560.99
9371.93
2618.57
10340.7
4989.48
5393.23
5926.09
3602.53
8529.83
304.148
10703.2
2674.07
4435.74
4821.6
3445.45
10046.5
3795.86
15120.2
3405.42
5471.14
9514.24
13486
30997.2
8756.54
105643
105718
318037
456542
27373.3
146375
13173.5
320.255
9955.16
0.000205613
21.3863
8.40219
5.52501
6.43486
4.81959
9.08231e+11
6.38105e+11
5.35897e+11
5.13045e+11
5.0675e+11
4.96459e+11
4.89967e+11
4.17321e+11
3.16848e+11
1.8975e+11
1.06163e+11
4.94599e+10
2.70007e+10
9.9945e+09
2.68981e+09
2.35004e+08
77552.1
4816.02
103.571
35.8437
295.945
170.99
756.123
513.491
749.49
1480.54
846.758
3413.88
1179.61
7649.79
3320.5
5731.67
5252.09
5093.09
9616.05
1703.28
13915.3
3338.65
7863.36
5471.53
7053.85
12763.6
1051.53
19760
2970.38
9419.18
8002.84
13759.8
28290.5
7003.93
74055.8
56509.7
200776
303671
10620.9
241549
2408.58
1411.27
1084.15
0.00100097
33.7369
15.9097
7.10609
6.803
6.56133
9.29475e+11
7.17145e+11
6.56913e+11
6.48921e+11
6.52281e+11
6.4705e+11
6.4438e+11
5.65764e+11
4.47002e+11
2.9491e+11
1.81235e+11
9.62602e+10
5.15332e+10
3.35021e+10
1.13978e+10
2.34795e+09
155201
154041
148.98
1213.31
7.49763
26.7645
2078.56
2290.37
7445.29
9633.37
8197.46
17629.7
5575.7
16371.5
7276.02
9564.4
8786.57
6536.9
12063.6
2162.63
14167.1
3087.55
6980.71
4335.44
4316.99
8565.93
811.396
13189.6
1392.67
4778.05
3258.84
4931.87
15008.7
9935.34
36533.9
19506.4
85387
138478
1649.73
254828
2618.22
1695.95
4671.9
0.00020909
230.541
79.8596
22.3981
33.7372
25.5427
9.69206e+11
8.35661e+11
8.16839e+11
8.21481e+11
8.33434e+11
8.33161e+11
8.34413e+11
7.50938e+11
6.12948e+11
4.36778e+11
2.92816e+11
1.76765e+11
1.03829e+11
4.73961e+10
3.9012e+10
9.80697e+09
9.48762e+08
7.01123e+07
21548
1226.22
558.443
468.195
1893.37
1606.78
5625.58
3388.46
7110.68
4738.22
2685.39
4441.02
2145.31
2574.8
1654.59
2589.03
1807.33
2861.91
2376.96
1504.73
2034.41
1782.5
1841.79
1573.95
3584.25
1792.02
3905.87
2719.79
6173.18
1769.22
2341.79
23802.8
1733.87
2588.14
11752.1
14162.6
17378.9
146144
15743.9
9716.04
78.2533
0.000528941
49.3119
38.989
15.8945
35.0829
13.5986
1.06505e+12
1.0015e+12
1.02003e+12
1.03644e+12
1.05671e+12
1.06113e+12
1.0665e+12
9.79207e+11
8.20965e+11
6.21148e+11
4.46368e+11
2.96228e+11
1.89899e+11
9.49806e+10
5.07822e+10
2.44332e+10
6.09464e+09
2.62074e+09
5586.3
16716.6
4014.38
10255.4
24300.6
30744
45701.6
67843.1
68398
118785
87886.7
146371
105241
133813
128758
114689
147446
106890
164038
104724
142746
125242
112842
136690
115527
167228
119111
150997
159265
119065
185939
180115
153490
154562
108737
128441
193892
47787.5
95243.6
88.0603
4049.74
0.00124353
0.00598673
0.0299011
0.730587
1.00616
309286
1.22534e+12
1.22329e+12
1.26697e+12
1.29897e+12
1.32838e+12
1.33675e+12
1.34608e+12
1.25537e+12
1.07588e+12
8.51993e+11
6.45862e+11
4.59825e+11
3.15818e+11
1.80359e+11
9.34254e+10
6.28075e+10
1.43931e+10
7.15597e+09
5.78628e+08
633790
112429
10560.3
3082.34
2298.46
6166.61
7774.83
14508.8
16225.6
20286.4
19128.1
14697.3
9358.02
8986.32
4203.18
5817.83
1573.98
3142.21
2425.39
1698.29
1897.08
1223.35
1532.6
3247.68
1586.91
1789.46
3404.22
3003.97
3385.62
2591.43
14264.1
1896.78
2774.34
2116.33
734.657
22411.3
32541.3
7722.02
1144.64
0.025894
0.00168943
678.199
1300.72
188.618
154.734
10.3741
1.45622e+12
1.50624e+12
1.56643e+12
1.61597e+12
1.65603e+12
1.66748e+12
1.68055e+12
1.58661e+12
1.38487e+12
1.1365e+12
8.98502e+11
6.75373e+11
4.90367e+11
3.11416e+11
1.77588e+11
8.09168e+10
5.42328e+10
1.96554e+10
7.80313e+09
2.31836e+09
1.03515e+07
128151
9459.46
588.475
384.518
417.846
955.316
1079.89
1718.05
4389.32
1963.71
3085.7
2939.89
2039.96
4667.88
985.282
8003.33
3056.74
5910.4
5736.6
5217.54
10081.9
2438.17
13545.1
4739.35
6542.59
7576.82
5270.14
13857.1
1828.71
12746.1
7094.86
7261.52
20240.2
1558.89
93707.5
32175.1
35679.7
0.000284642
0.0038253
0.000578791
149.578
222.142
49.1523
44.7536
1.76686e+12
1.85177e+12
1.93195e+12
1.99671e+12
2.04818e+12
2.06212e+12
2.07851e+12
1.98113e+12
1.75613e+12
1.48263e+12
1.21204e+12
9.50663e+11
7.21848e+11
4.9711e+11
3.11959e+11
1.55874e+11
7.40223e+10
3.5906e+10
2.11497e+10
1.00898e+10
2.67671e+09
2.80678e+08
62546
13130.2
136.25
431.166
444.036
26.817
30.5193
2418.96
1552.55
7940.76
7505.42
12108.9
16053.6
9246.43
24508.1
10736
16939.2
12849.6
10581.7
18115.4
4338.2
20269.5
7369.53
10878.9
10250.1
6209.02
18406.9
1265.78
16473.3
7329.55
6867.45
20027.9
1377.72
69255.8
30559.2
11797.5
0.0367899
0.000153924
0.000175433
678.407
191.457
413.856
91.3483
2.16915e+12
2.27127e+12
2.37162e+12
2.44987e+12
2.51267e+12
2.52877e+12
2.54742e+12
2.44557e+12
2.19641e+12
1.89671e+12
1.59297e+12
1.29209e+12
1.01775e+12
7.45451e+11
5.0743e+11
2.94492e+11
1.55875e+11
8.74596e+10
5.90093e+10
3.90423e+10
1.47165e+10
5.35696e+09
3.82249e+08
110593
12989.3
154.547
275.789
16.3674
905.522
683.677
1214.52
2571.22
2251.38
6494.36
3666.53
8035.67
7710.7
4919.03
5878.23
3554.01
5356.54
4189.86
4322.25
6372.62
3423.4
5736.82
2604.75
7528.47
4742.69
2509.7
8668.46
1916.65
7729.75
4197
3848.41
26754.3
27093.4
53628.2
20.321
0.0923176
0.00161679
170.721
13.8637
105.447
0.00479589
2.66773e+12
2.78047e+12
2.89574e+12
2.98604e+12
3.05958e+12
3.07783e+12
3.09719e+12
2.98914e+12
2.7149e+12
2.38808e+12
2.05039e+12
1.70932e+12
1.38778e+12
1.06674e+12
7.74494e+11
5.05953e+11
3.08424e+11
1.93105e+11
9.442e+10
7.06303e+10
3.6296e+10
2.13103e+10
4.65919e+09
1.37426e+09
2178.6
1244.67
540.798
2738.3
3928.91
10914
11030.6
22285.4
24035.1
36456.7
47245.6
51924.5
85961.8
66866.3
90442.7
80991.4
82782.9
96562.5
80424.5
101631
77057.3
90651.6
88552.9
76786.7
105499
87634.2
97175.1
92982.6
90867.2
110873
104254
92994.5
45265.4
48018.8
1.39612
38403.2
0.0027532
0.00797962
0.00676195
0.0192721
0.0150506
3.26003e+12
3.39109e+12
3.51946e+12
3.62064e+12
3.70306e+12
3.72368e+12
3.74067e+12
3.62349e+12
3.323e+12
2.96689e+12
2.59399e+12
2.21084e+12
1.84043e+12
1.46863e+12
1.12085e+12
7.96469e+11
5.36839e+11
3.63508e+11
2.01681e+11
1.16984e+11
7.29765e+10
4.96158e+10
1.07214e+10
7.99033e+09
8.91317e+08
805940
20276.4
11415.9
154.63
808.49
376.727
2104.54
2229.99
5304.48
7414.62
10040.9
21699.5
19106.2
24559.1
22887
23332.3
25007.6
14772.7
22339.2
14806.8
12238.7
12227.8
7077.34
12958.8
3613.31
8643.39
5981.04
3489.65
6671.86
1907.45
8020.44
12682.9
3885.76
2289.54
381.152
0.0101532
0.00181055
500.441
1677.86
182.046
3.96099e+12
4.1118e+12
4.2509e+12
4.36431e+12
4.45202e+12
4.47552e+12
4.48628e+12
4.35628e+12
4.02824e+12
3.64153e+12
3.2324e+12
2.80606e+12
2.38595e+12
1.96181e+12
1.55795e+12
1.17632e+12
8.54518e+11
6.15495e+11
3.90785e+11
2.39957e+11
1.24736e+11
6.85466e+10
5.94018e+10
2.57206e+10
1.13738e+10
3.47858e+09
4.77958e+08
33094.6
10658.2
365.876
201.193
259.857
235.193
823.483
673.973
2911.61
4553.18
4464.16
7426.24
7313.65
9945.02
10659.7
5917.09
15438
7796.52
9927.42
9444.1
7828.2
11933.1
4919.98
12003.8
8035.37
9557.51
11513.6
6084.36
15855.8
16464
19580.5
15117.5
0.024667
1594.19
0.000317208
48.9508
28.8471
0.000889566
4.79529e+12
4.95642e+12
5.10482e+12
5.23021e+12
5.32034e+12
5.34648e+12
5.34754e+12
5.19943e+12
4.84247e+12
4.42418e+12
3.97744e+12
3.50754e+12
3.03649e+12
2.5595e+12
2.09803e+12
1.65858e+12
1.27292e+12
9.6344e+11
6.71978e+11
4.51512e+11
2.687e+11
1.57274e+11
8.62726e+10
9.50178e+10
3.58149e+10
2.00406e+10
6.57147e+09
1.51947e+09
20488.3
448.24
1273.8
648.53
1487.74
3005.35
4071.52
6770.68
13365.3
14301.8
22985.6
24357.9
33226.9
39508.5
46482
66133
54918.7
65357.6
67738.5
65354.1
82262.1
77047.8
78008.9
79983.3
79323.1
90171.2
93255.1
85818.4
73030.6
57207.3
43651.3
254.553
0.0297913
0.240817
0.00591031
0.00664366
0.000735524
5.77852e+12
5.94921e+12
6.1064e+12
6.24065e+12
6.33038e+12
6.35813e+12
6.34551e+12
6.17133e+12
5.78423e+12
5.33165e+12
4.84563e+12
4.32946e+12
3.80638e+12
3.27367e+12
2.7534e+12
2.25278e+12
1.80074e+12
1.41814e+12
1.05756e+12
7.64411e+11
5.09732e+11
3.32017e+11
1.84017e+11
1.1587e+11
7.99327e+10
4.89231e+10
1.66346e+10
7.34715e+09
1.88982e+09
6913.82
6491.74
17205.9
4896.93
417.887
265.553
164.01
1349.82
1026.66
3133.12
3481.39
7582.17
8258.57
16017
19093.2
20725.6
18145.7
18531.3
16816.6
16160.4
10420.3
10040.7
9025.39
4340.13
6520.63
1885.51
4597.21
5918.67
4509.83
5820.63
0.534417
0.195874
0.00554622
0.00271056
0.00254703
0.000367303
6.91821e+12
7.09964e+12
7.26663e+12
7.40455e+12
7.49129e+12
7.51931e+12
7.48831e+12
7.27898e+12
6.86032e+12
6.37209e+12
5.84516e+12
5.28163e+12
4.70566e+12
4.11577e+12
3.53557e+12
2.97102e+12
2.4519e+12
1.9944e+12
1.56339e+12
1.19498e+12
8.67074e+11
6.14043e+11
3.91134e+11
2.43564e+11
1.40476e+11
7.61141e+10
4.93439e+10
2.95668e+10
8.78907e+09
7.18057e+09
2.00977e+09
467468
16918
23376.6
7762.59
194.535
49.5709
9.54082
49.9117
28.24
106.447
118.597
315.352
1231.24
584.483
1361.48
1455.03
1405.4
2322.59
798.517
3444.97
2179.42
1685.12
4522.05
498.334
6586.28
5158.38
6742.43
19665.3
188.203
21480.8
0.000672673
0.000626417
0.000489062
0.000847462
8.23608e+12
8.429e+12
8.60387e+12
8.74014e+12
8.82167e+12
8.8474e+12
8.79293e+12
8.53868e+12
8.08667e+12
7.5618e+12
6.99162e+12
6.38029e+12
5.74977e+12
5.10228e+12
4.45989e+12
3.83049e+12
3.24341e+12
2.70939e+12
2.20564e+12
1.75953e+12
1.35528e+12
1.02102e+12
7.19229e+11
4.92785e+11
3.19627e+11
1.99198e+11
1.01977e+11
5.98701e+10
6.22315e+10
1.97948e+10
1.18706e+10
4.81542e+09
1.38529e+09
2846.09
2098.06
1583.11
35.8789
179.775
210.033
348.669
376.162
387.386
719.528
138.023
350.378
17.6475
24.8557
519.079
1824.32
1474.37
7667.12
5372.88
8388.29
12247.9
5608.84
17598.3
10179
13600
28320.5
2084
7799.76
0.182564
0.0582201
0.00300994
0.000396774
9.75541e+12
9.95771e+12
1.01351e+13
1.02653e+13
1.03387e+13
1.03582e+13
1.02741e+13
9.96427e+12
9.47783e+12
8.91446e+12
8.29958e+12
7.63857e+12
6.95283e+12
6.24588e+12
5.54039e+12
4.8433e+12
4.1863e+12
3.57563e+12
2.99645e+12
2.47111e+12
1.9878e+12
1.56921e+12
1.18753e+12
8.79824e+11
6.28972e+11
4.40614e+11
2.76527e+11
1.77061e+11
9.19057e+10
7.31204e+10
4.73359e+10
1.72118e+10
1.24479e+10
6.19982e+09
2.19894e+09
1.86862e+07
6725.08
3448.8
26.5673
0.167517
1.37253
11.7141
6.2871
1.06811
1.47342
20.9927
1.28732
512.189
37.4284
1674.99
2015.13
1699.23
6082
2779.6
7649.81
8817.33
5181.12
12155
9627.15
13380
17115.7
8684.88
27568.3
1.31307e-05
0.000297176
1.15014e+13
1.17059e+13
1.1879e+13
1.19994e+13
1.20618e+13
1.20681e+13
1.19476e+13
1.15725e+13
1.10502e+13
1.04464e+13
9.78486e+12
9.073e+12
8.33072e+12
7.56348e+12
6.79325e+12
6.02761e+12
5.29898e+12
4.61104e+12
3.95439e+12
3.34803e+12
2.78309e+12
2.2777e+12
1.81403e+12
1.42176e+12
1.0887e+12
8.21337e+11
5.83354e+11
4.09584e+11
2.44067e+11
1.26697e+11
8.15296e+10
1.01525e+11
4.99566e+10
1.93128e+10
1.72769e+10
8.12508e+09
3.62722e+08
839.68
1.11756
0.392339
107.334
68.185
164.876
435.451
467.524
1090.04
1217.34
2338.14
3524.77
4396.51
9577.93
9772.83
16916.9
20542.7
25752
38349
35683.1
47443
50293.9
38801.9
43701.9
15709.8
317.882
0.0640757
12.1217
1.35221e+13
1.37206e+13
1.3883e+13
1.39888e+13
1.40373e+13
1.40171e+13
1.38514e+13
1.34048e+13
1.28436e+13
1.21953e+13
1.14835e+13
1.07172e+13
9.91527e+12
9.08453e+12
8.24613e+12
7.40871e+12
6.60659e+12
5.83831e+12
5.10104e+12
4.41031e+12
3.75984e+12
3.1647e+12
2.615e+12
2.13435e+12
1.71393e+12
1.35956e+12
1.04076e+12
7.81531e+11
5.34728e+11
3.33237e+11
2.21144e+11
1.29831e+11
8.18941e+10
8.14378e+10
4.09189e+10
2.42559e+10
8.78633e+09
3.0927e+09
114022
55.6511
79.7214
292.596
0.0174012
22.627
4.46444
3.47361
1.6514
2.59888
66.4914
7.067
437.711
275.662
768.586
1805.19
1241.12
6424.26
5341.27
8184.34
11818.4
10159.1
20377.7
16650.9
8585.41
1442.17
7.20895e-05
1.58188e+13
1.60058e+13
1.6151e+13
1.62381e+13
1.62688e+13
1.62034e+13
1.59789e+13
1.54653e+13
1.48603e+13
1.41641e+13
1.33999e+13
1.25768e+13
1.17139e+13
1.08173e+13
9.90971e+12
8.99729e+12
8.11921e+12
7.27029e+12
6.44986e+12
5.67308e+12
4.93436e+12
4.24752e+12
3.60841e+12
3.03612e+12
2.5239e+12
2.07724e+12
1.67093e+12
1.32059e+12
9.89176e+11
7.03189e+11
5.05345e+11
3.23024e+11
2.13097e+11
1.24362e+11
7.38213e+10
5.91438e+10
3.43993e+10
1.58771e+10
1.2166e+10
8.35325e+09
1.16603e+09
8.78205e+07
462.456
1361.7
22.0755
5.90998
1.70477
12.4058
0.126746
25.6684
35.3154
15.9778
147.251
42.8175
664.215
726.419
743.758
2574.37
1716.5
7192.58
9074.48
10857.2
17197.4
12624.3
0.00153902
1.84144e+13
1.85843e+13
1.87074e+13
1.87706e+13
1.87733e+13
1.86488e+13
1.83464e+13
1.77757e+13
1.71211e+13
1.63732e+13
1.55536e+13
1.4672e+13
1.37457e+13
1.27826e+13
1.18032e+13
1.08158e+13
9.86016e+12
8.9292e+12
8.02387e+12
7.159e+12
6.32969e+12
5.54888e+12
4.81707e+12
4.14936e+12
3.54153e+12
2.99719e+12
2.49794e+12
2.05083e+12
1.63056e+12
1.25455e+12
9.6034e+11
6.91843e+11
4.99746e+11
3.31925e+11
2.19793e+11
1.17003e+11
1.57056e+11
8.76661e+10
4.12455e+10
1.95342e+10
1.14287e+10
8.49069e+09
1.46149e+09
45.869
4.24648
0.438092
0.14852
0.00802085
0.000315794
0.000593547
25.2552
150.779
340.646
409.093
376.278
1513.94
1704.79
3436.19
3785.86
5470.71
9228.43
7621.36
10775.7
3510.3
0.00424863
2.13816e+13
2.15274e+13
2.1623e+13
2.16573e+13
2.16075e+13
2.14149e+13
2.10169e+13
2.03958e+13
1.96874e+13
1.88809e+13
1.80012e+13
1.70557e+13
1.6062e+13
1.50275e+13
1.39722e+13
1.29048e+13
1.18688e+13
1.08517e+13
9.8575e+12
8.90053e+12
7.97606e+12
7.09738e+12
6.26733e+12
5.49951e+12
4.7901e+12
4.14287e+12
3.54341e+12
2.99435e+12
2.479e+12
2.00832e+12
1.61271e+12
1.25338e+12
9.66808e+11
7.11479e+11
5.14423e+11
3.20364e+11
1.94079e+11
1.29729e+11
1.47727e+11
8.19052e+10
3.66429e+10
2.12828e+10
7.22104e+09
1.54799e+09
1.27174e+08
43.8618
25.0168
5.30768
0.107852
0.00743364
3.81507e-05
0.25631
5.83069
0.277113
0.000244842
12.7755
3.25039
3.18438
39.6179
31.3316
495.299
312.708
734.046
1408.87
0.00804834
2.47714e+13
2.4886e+13
2.49469e+13
2.49341e+13
2.48135e+13
2.45374e+13
2.40312e+13
2.33651e+13
2.25984e+13
2.17258e+13
2.07815e+13
1.97678e+13
1.87036e+13
1.75936e+13
1.64598e+13
1.53076e+13
1.41869e+13
1.30814e+13
1.19945e+13
1.09418e+13
9.91827e+12
8.93731e+12
8.00407e+12
7.13067e+12
6.31385e+12
5.55789e+12
4.85066e+12
4.19454e+12
3.57557e+12
3.00548e+12
2.50359e+12
2.04691e+12
1.65708e+12
1.30566e+12
1.00777e+12
7.18114e+11
4.72397e+11
3.25686e+11
2.11455e+11
1.44551e+11
8.47585e+10
4.32019e+10
4.90987e+10
1.84553e+10
2.20791e+10
1.04977e+10
8.54243e+09
1.15647e+09
1.06749e+06
19.3033
35.653
29.8044
5.55743
0.406294
3.61766
2.60688
0.452826
6.72555
0.139762
23.1334
29.2395
22.3895
166.313
189.231
799.451
2.85939e+13
2.86681e+13
2.86799e+13
2.85946e+13
2.83918e+13
2.80089e+13
2.74001e+13
2.66924e+13
2.58631e+13
2.49138e+13
2.38996e+13
2.2816e+13
2.16765e+13
2.04902e+13
1.92729e+13
1.80364e+13
1.68292e+13
1.56319e+13
1.44504e+13
1.32984e+13
1.2173e+13
1.10858e+13
1.00456e+13
9.0616e+12
8.13336e+12
7.26301e+12
6.44359e+12
5.67392e+12
4.94704e+12
4.27216e+12
3.65982e+12
3.09851e+12
2.59887e+12
2.14302e+12
1.73553e+12
1.34521e+12
9.93683e+11
7.43542e+11
5.31584e+11
4.0548e+11
2.94774e+11
1.91159e+11
1.00181e+11
1.33748e+11
7.60429e+10
3.3383e+10
3.23562e+10
1.29493e+10
8.35325e+09
1.56802e+09
49.2855
9.44739
0.969946
0.43246
0.149327
0.00418843
3.87332e-05
0.000151912
0.000176378
0.000255074
0.000416605
0.000695722
0.00137072
0.00136203
0.00114228
3.28534e+13
3.28706e+13
3.28077e+13
3.26387e+13
3.23348e+13
3.18258e+13
3.11334e+13
3.03358e+13
2.94402e+13
2.8443e+13
2.73597e+13
2.62002e+13
2.4983e+13
2.37136e+13
2.24111e+13
2.10826e+13
1.97853e+13
1.8494e+13
1.72133e+13
1.59599e+13
1.47281e+13
1.35325e+13
1.23803e+13
1.12834e+13
1.02386e+13
9.2515e+12
8.31412e+12
7.42838e+12
6.58675e+12
5.80153e+12
5.07667e+12
4.40452e+12
3.79209e+12
3.22548e+12
2.70604e+12
2.21202e+12
1.75958e+12
1.40116e+12
1.09423e+12
8.78884e+11
6.91139e+11
5.09284e+11
3.20189e+11
1.83964e+11
1.22205e+11
1.34751e+11
8.27616e+10
4.53534e+10
1.7738e+10
1.146e+10
2.76256e+09
6.56537e+08
36.5092
30.7472
14.3621
2.68141
0.104455
0.008768
7.39763e-05
9.31369e-06
2.74228e-06
6.93556e-06
1.53091e-05
3.78303e-06
3.09693e-05
3.75066e+13
3.74447e+13
3.72961e+13
3.70263e+13
3.66045e+13
3.59695e+13
3.5203e+13
3.43031e+13
3.33308e+13
3.22848e+13
3.11316e+13
2.98934e+13
2.85964e+13
2.72413e+13
2.58523e+13
2.44311e+13
2.30413e+13
2.16547e+13
2.02746e+13
1.89186e+13
1.75797e+13
1.62744e+13
1.50087e+13
1.37968e+13
1.26335e+13
1.15276e+13
1.04696e+13
9.46528e+12
8.50515e+12
7.60611e+12
6.76638e+12
5.9796e+12
5.25159e+12
4.57055e+12
3.93753e+12
3.33732e+12
2.7852e+12
2.31825e+12
1.91315e+12
1.59449e+12
1.31227e+12
1.03827e+12
7.56987e+11
5.04858e+11
3.51904e+11
2.16468e+11
1.49029e+11
1.0796e+11
7.47479e+10
4.01341e+10
5.25859e+10
4.04852e+10
1.6808e+10
1.97148e+10
7.30326e+09
9.65218e+08
1.17649e+06
25.1853
2.53517
0.811198
0.206565
0.0900801
0.0104857
0.000112912
1.55298e-06
4.25608e+13
4.24084e+13
4.21574e+13
4.17703e+13
4.12129e+13
4.04793e+13
3.96341e+13
3.86664e+13
3.76113e+13
3.64709e+13
3.52362e+13
3.39168e+13
3.25346e+13
3.10934e+13
2.96133e+13
2.80997e+13
2.66184e+13
2.51343e+13
2.36544e+13
2.21938e+13
2.07473e+13
1.93298e+13
1.79497e+13
1.662e+13
1.53369e+13
1.41089e+13
1.2929e+13
1.18019e+13
1.07214e+13
9.70609e+12
8.74806e+12
7.84355e+12
6.99668e+12
6.1984e+12
5.44936e+12
4.74051e+12
4.0863e+12
3.50931e+12
2.99947e+12
2.56953e+12
2.1811e+12
1.8067e+12
1.43046e+12
1.07893e+12
8.19805e+11
5.86692e+11
4.56316e+11
3.73444e+11
3.03271e+11
2.16768e+11
1.19292e+11
8.86972e+10
6.85486e+10
6.42597e+10
3.20796e+10
1.85155e+10
6.86312e+09
1.64631e+09
9.07985e+07
40.883
19.5309
13.7221
4.08844
0.363918
0.0285772
4.80325e+13
4.77727e+13
4.74017e+13
4.68843e+13
4.61894e+13
4.53717e+13
4.44389e+13
4.339e+13
4.22468e+13
4.10126e+13
3.96903e+13
3.82841e+13
3.68137e+13
3.52818e+13
3.37094e+13
3.20995e+13
3.05233e+13
2.89412e+13
2.73595e+13
2.57938e+13
2.42382e+13
2.27077e+13
2.12117e+13
1.97631e+13
1.83585e+13
1.70075e+13
1.57027e+13
1.44518e+13
1.32464e+13
1.21115e+13
1.10329e+13
1.00077e+13
9.03963e+12
8.12138e+12
7.2545e+12
6.43257e+12
5.67198e+12
4.98343e+12
4.36309e+12
3.81709e+12
3.31602e+12
2.83638e+12
2.36352e+12
1.91953e+12
1.55594e+12
1.23834e+12
1.02461e+12
8.71288e+11
7.39128e+11
5.90987e+11
4.17396e+11
3.09436e+11
2.05797e+11
1.36771e+11