/*--------------------------------*- C++ -*----------------------------------*\
| =========                 |                                                 |
| \\      /  F ield         | OpenFOAM: The Open Source CFD Toolbox           |
|  \\    /   O peration     | Version:  v2012                                 |
|   \\  /    A nd           | Website:  www.openfoam.com                      |
|    \\/     M anipulation  |                                                 |
\*---------------------------------------------------------------------------*/
FoamFile
{
    version     2.0;
    format      ascii;
    class       volScalarField;
    location    "1e-06";
    object      totalPMean;
}
// * * * * * * * * * * * * * * * * * * * * * * * * * * * * * * * * * * * * * //

dimensions      [1 -1 -2 0 0 0 0];


internalField   nonuniform List<scalar> 
10302
(
-19848.9
-18248.3
-18169
-17894
-18220
-17922.2
-17882.3
-11886.1
-9991.78
-2133.07
-1624.86
-1619.52
-2158.96
-2189.85
-2427.44
-1853.96
-2501.38
-2602.74
-2437.91
-1959.64
-2136.6
-1943.4
-2021.9
-2018.08
-1959.21
-1954.39
-1821.3
-1805.4
-1075.47
-2394.98
-2777.69
-315.325
-361.856
-1981.16
-1680.61
-1655.23
-2076.19
-2304.89
-146.466
195.615
-1846.93
-1601.05
-1732.91
-2334.88
-2544.57
-2474.6
-2338.65
-1977.91
-1720.78
-1128.37
-1039.69
-993.074
-196.375
566.884
2017.43
2012.96
2012.16
1924.42
1996.7
1945.18
2194.5
1965.29
5283.71
3246.93
2878.34
11741.5
11668.1
12419
10472
10741.9
7225.33
7079.07
2511.73
3336.59
2111.44
2573.48
361.682
-54.2128
-932.019
-1127.18
-681.691
-1782.22
-1757.24
-1952.02
-1611.94
-1869.17
-1712.6
-1863.58
-1864.07
-1876.9
-1871.74
-1790.4
-1761.55
-1019.46
-2206.48
-2586.11
-1130.36
-1130.37
-1891.79
-1946.93
-1659.23
-2076.14
-2204.44
-1060.43
-839.51
-1750.29
-1856.74
-1730.81
-2336.09
-2545.41
-2479.68
-2344.43
-1985.01
-1728.1
-1131.13
-1054.39
-1009.25
-239.429
512.019
1993.45
2002.65
1998.06
1928.06
1982.86
1961.59
2220.27
1992.04
5261.58
3243.71
2838.66
28252.3
27639.2
28401.9
26134
26551.5
22194.8
22088
12248.7
13755.7
7229.08
7607.33
3360.79
3132.56
1020.84
1030.28
967.795
-493.281
-884.657
-1066.84
-886.106
-1269.68
-1178.09
-1465.3
-1477.6
-1636.48
-1620.03
-1668.37
-1591.73
-916.23
-2133.32
-2496.77
-1359.91
-1356.68
-1931.43
-1978.86
-1640.73
-2109.99
-2214.91
-1254.33
-1033.81
-1769.72
-1878.96
-1725.62
-2336.62
-2546.53
-2489.2
-2354.44
-1996.87
-1740
-1135.68
-1078.45
-1028.83
-278.237
442.366
1948.19
2003.61
2003.68
1961.5
2009.35
2016.77
2272.84
2043.62
5199.86
3206
2774.6
37161.4
35540.7
36221.2
32625.4
32864.1
27744.5
27115.8
21979.2
17376.6
8781.9
8520.68
4314.42
3610.96
1784.53
1340.08
1103.41
-385.204
-469.998
-970.388
-717.912
-1234.54
-1130.61
-1445.99
-1471.71
-1618.73
-1644.56
-1650.8
-1602.08
-887.135
-2114.6
-2449.11
-1506.89
-1473.32
-1993.42
-2040.66
-1638.48
-2140.38
-2223.21
-1350.98
-1123.49
-1789.2
-1905.25
-1719.4
-2342.59
-2550.93
-2504.1
-2369.9
-2015.53
-1758.65
-1143.46
-1115.75
-1057.75
-333.986
333.082
1946.21
2003.4
2003.5
1948.29
2007.62
2028.08
2240.83
2055.72
5086.41
3146.79
2704.88
49856.3
47386
48340.8
43659.9
42832.3
34937
33797.8
25725.3
22790.7
12506.2
12025.2
6960.41
6316.7
3735.72
3321.28
2655.97
851.983
744.776
-28.6252
102.406
-576.899
-525.528
-983.967
-1024.19
-1314.29
-1350
-1473.41
-1415.76
-734.732
-1993.85
-2318.73
-1644.57
-1562.67
-2020.8
-2070.57
-1615.14
-2163.23
-2226.03
-1505.83
-1263.62
-1811.85
-1938.85
-1712.96
-2355.06
-2557.15
-2525.83
-2391.6
-2040.82
-1784.33
-1152.64
-1161.66
-1090.91
-393.282
209.555
1681.67
2004.24
2004.9
1928.88
1985.92
2045.21
2192.18
2077.28
4970.48
3121.17
2665.91
66268.8
64466.8
65231.9
59608.9
57295.9
45060.6
42043.2
32009.9
30531
18443.5
18070.9
10987.2
10707.3
6564.9
6520.01
4692.11
2867.26
2276.43
1512.5
1373.48
579.972
516.46
-125.991
-178.393
-711.357
-709.989
-1087.33
-946.436
-445.544
-1703.81
-2052.59
-1602.79
-1477.92
-1965.58
-2000.54
-1540.17
-2137.25
-2195.35
-1600.23
-1344.79
-1820.89
-1955.69
-1689.35
-2354.23
-2555.19
-2542.73
-2408.01
-2068.32
-1811.19
-1161.09
-1216.11
-1130.74
-462.9
108.972
1530.1
1925.48
2005.09
1978.23
2027.04
2096.19
2195.11
2108.58
4751.39
2993.02
2533.09
84018.2
81532.3
81450.3
74211.5
70548.1
55170.7
48240.1
34342.3
32523
20548.5
19428.5
12342.9
11505.3
7583.81
7021.5
5157.26
3112.08
2859.72
1727.57
1737.19
737.536
711.272
11.1597
-74.045
-572.688
-670.107
-970.018
-924.276
-398.094
-1664.71
-1965.14
-1719.79
-1563.62
-2002.3
-2048.31
-1512.55
-2173.43
-2203.52
-1730.3
-1461.63
-1850.65
-1990.98
-1670.92
-2360.76
-2554.4
-2565.07
-2429.32
-2102.22
-1844.27
-1172.71
-1279.45
-1180.04
-546.26
-2.00852
1398.97
1841.62
2000.49
1981.41
2023.52
2100.04
2161.03
2112.56
4482.32
2840.08
2392.83
106543
102893
101408
93060
88297.9
71211.2
61494.9
39478.9
37309.1
25589.1
24625.4
16142.3
15497.1
10445.5
10015.4
7618.28
5117.75
4824.61
3347.2
3128.86
1992.23
1862.82
993.149
890.203
175.915
98.4002
-414.001
-346.688
92.7389
-1264.58
-1606.41
-1574.07
-1404.44
-1880.03
-1908.61
-1378.45
-2115.47
-2148.04
-1807.28
-1528.38
-1861.68
-2001.86
-1628.98
-2358.61
-2544.59
-2588.42
-2447.06
-2138.94
-1880.67
-1184.1
-1349.54
-1233.85
-636.846
-116.509
1274.74
1744.32
1953.46
1975.45
2019.44
2108.47
2145.46
2126.36
4207.1
2708.43
2285.15
129191
123779
121244
111834
107593
88732.4
75565.2
46756.4
44417.8
27783.5
25629.5
17366.6
15864.1
11402.8
10177.7
8242.7
5176.8
5258.37
3409.41
3471.48
2072.92
2034.52
1102.63
960.195
336.147
104.818
-231.121
-372.73
211.883
-1251.31
-1508.06
-1665.09
-1484.32
-1901.8
-1957.66
-1325.42
-2168.03
-2154.87
-1945.43
-1652.09
-1908.86
-2045.98
-1587.86
-2367.47
-2537.25
-2613.96
-2468.56
-2181.03
-1921.62
-1198.38
-1427.08
-1296.5
-741.61
-238.881
1149.73
1630.41
1859.92
1956.71
1993.14
2100.89
2126.02
2118.77
3871.55
2537.31
2177.54
154859
148375
144847
136859
131508
111313
95537.8
56614.2
46980.4
32117
29928.2
20660.8
19227.2
13904.7
12783.6
10198.4
7005.6
6999.1
4935.96
4885.06
3334.74
3240.07
2149.55
2005.5
1193.31
988.989
452.617
329.174
787.345
-745.846
-1010.02
-1377.06
-1200.33
-1678
-1709.68
-1126.37
-2061.63
-2042.08
-1985.37
-1680.8
-1912.65
-2028.27
-1519.92
-2360.3
-2509.64
-2635.14
-2480.53
-2227.51
-1964.92
-1210.52
-1511.95
-1363.67
-855.676
-366.527
1025.99
1504.48
1734.21
1898.85
1928.51
2089.11
2100.57
2105.65
3544.14
2402.44
2162.76
183509
176163
174737
165957
158842
136998
119474
74701.8
59099.7
39322.6
37735.4
26835
26142.6
18440.8
18086.7
13485.3
10457.9
9562.22
7650.64
7118.48
5529.22
5235.36
3931.25
3802.02
2633.5
2591.96
1596.87
1714.3
1695.77
283.908
-100.251
-622.516
-465.204
-1095.35
-1025.26
-665.559
-1622.39
-1708.1
-1771.38
-1480.36
-1763.81
-1820.95
-1353.32
-2243.09
-2401.56
-2584.18
-2419.92
-2235.92
-1957.17
-1207.61
-1577.47
-1416.92
-964.437
-478.981
914.371
1448.42
1679.75
1951.92
1988.28
2120.44
2128.61
2129.94
3213.79
2277.68
2186.12
212292
207933
205475
195206
185624
162594
144019
96201.9
74010.3
42517.4
39914.6
29124.3
27739.3
20034.8
19072.9
14550.6
11097.5
10513.5
8195.08
7873.27
6021.87
5791.41
4394.19
4214.25
3094.49
2911.88
2049.99
1956.47
2080.64
528.475
253.001
-416.177
-282.239
-876.554
-855.257
-448.461
-1516.4
-1552.76
-1750.26
-1461.78
-1727.04
-1764.42
-1253.86
-2190.91
-2326.34
-2552.19
-2385.33
-2248.56
-1965.44
-1207.32
-1646.59
-1480.28
-1088.78
-604.055
792.191
1357.74
1597.83
1975.15
2005.42
2126.5
2116.08
2118.55
2851.84
2182.47
2193.32
249151
243777
239641
227214
215901
192156
174544
124289
98168.6
49096.7
46284.4
35138.2
34170.9
24944.6
24444
18329.1
14611.7
13383.5
10970.7
10245.1
8281.32
7872.4
6267.93
6096.24
4668.36
4623.21
3389.55
3487.18
3187.13
1756.53
1364.05
595.754
696.692
-54.5842
54.7281
235.61
-836.245
-1002.77
-1308.1
-1059.89
-1424.69
-1395.58
-970.962
-1955.16
-2125.34
-2413.84
-2245.63
-2206.42
-1909.14
-1172.57
-1695.29
-1526.87
-1210.36
-715.16
689.912
1270.62
1511.29
1983.6
1999.37
2127.3
2120.22
2123.34
2561.98
2186.78
2227.67
287266
280865
273672
259795
246997
225097
206078
153463
124020
62162.1
48669.5
37628.3
35751.9
26671.2
25486.3
19344
15203.1
14317.1
11517.2
11033.6
8796.76
8463.76
6770.18
6534.97
5179.46
4968.77
3896.04
3760.06
3604.51
2061.83
1796.51
925.922
990.511
285.345
304.318
551.891
-634.207
-727.213
-1161.32
-932.219
-1298.22
-1274.3
-823.503
-1856.43
-2001.74
-2325.59
-2165.33
-2172.21
-1885.78
-1140.05
-1746.72
-1582.94
-1336.52
-830.681
565.005
1126.99
1400.7
1991.74
1989.67
2106.66
2097.52
2101.62
2283.44
2160.56
2234.68
329569
321271
311174
296359
284904
262648
241733
190668
156209
87365.4
64522.4
44294.2
42773.5
32638.7
32005.1
24159.5
19516.2
17879.7
14814.3
13847.6
11427.7
10877.5
8937.79
8702.76
7009.65
6952.92
5473.65
5570.25
4927.66
3557.87
3142.27
2239.17
2266.59
1396.06
1518.39
1482.11
375.044
109.267
-383.141
-217.782
-723.004
-624.966
-339.231
-1393.64
-1622.81
-2010.93
-1862.25
-2004.74
-1701.08
-1020.61
-1735.96
-1583.99
-1435.9
-914.707
482.561
1044.72
1345.81
2002.62
1964.92
2091.14
2095.43
2102.37
2210.83
2179.86
2268.32
372498
361508
350166
334270
324736
301444
278524
229433
191607
117614
85465.5
47737.2
44741
35092.3
33418.4
25542
20329.3
19002.2
15520.6
14830
12105
11630.2
9576.86
9272.35
7632.04
7400.37
6092.6
5929.54
5467.82
3966.48
3671.67
2700.78
2685.61
1867.08
1869.12
1932.09
708.41
535.512
-67.7752
66.1547
-442.155
-393.873
-49.8305
-1188.18
-1399.83
-1826.18
-1706.21
-1884.12
-1614.37
-915.651
-1738.18
-1603.87
-1533.24
-1009.59
359.786
880.142
1278.83
1986.17
1916.51
2091.8
2073.21
2079.8
2171.82
2154.76
2271.69
417662
405117
392910
380305
368624
343472
319659
272315
233296
156816
117129
63674.2
52347.2
42060.9
41427.7
31779.7
26440.8
23850.7
20061.4
18571.7
15532.4
14717.3
12279.3
11964.9
9838.81
9827.07
7931.94
8141.95
7001.16
5778.05
5258.39
4322.12
4265.87
3259.75
3410.05
3069.75
2065.8
1642.88
1080.98
1128.92
471.261
617.424
689.675
-388.582
-748.391
-1224.9
-1132.4
-1500
-1182.46
-633.427
-1571.68
-1477.71
-1546.14
-1018.02
292.627
840.946
1346.92
2021.02
1917.72
2096.3
2076.8
2086.92
2182.55
2175.96
2299.59
463595
450688
440877
428145
414383
387061
362466
315850
275775
197343
154161
88522.6
63469.8
46311.1
44181.5
35501.9
29056.7
26537.3
22080.1
20623
17091.9
16264.4
13561.5
13163.9
10943.1
10790.3
8961.07
8939.91
7946.93
6518.63
6059.6
5069.84
4954.14
3986.93
4007.61
3803.74
2660.45
2304.42
1670.44
1658.08
1011.44
1068.9
1256.58
60.83
-299.318
-814.377
-791.771
-1192.57
-927.873
-383.184
-1415.92
-1376.5
-1521.64
-1021.98
290.333
841.04
1420.49
2018.92
1977.86
2103.8
2168.54
2173.66
2233.57
2246.99
2310.01
512140
498746
492157
478242
462043
432877
407368
363452
319941
244122
192871
119900
83552.3
48362
44924.7
37025.8
28801.2
27476.2
21743.6
20928.1
16856.8
16259.9
13505.3
13003
11030.1
10549.3
9087.22
8671.08
7959.35
6377.31
6144.5
5116.45
4962.24
4154.22
3952.94
3926.76
2608.53
2467.53
1745.24
1723.73
1168.39
1064.33
1403.41
61.3775
-163.076
-717.121
-759.741
-1084.5
-964.709
-312.456
-1444.89
-1429.61
-1603.64
-1197.82
172.38
471.231
1237.81
1992.13
1656.54
2059.93
2034.12
2038.85
2144.39
2144.15
2293.39
565250
554017
548037
532775
512986
483118
457286
413076
368879
297662
241732
165340
121990
70723.5
53261.9
45560.7
37017.2
34889.9
28093.2
26488.4
21297.9
20291.2
16644
16047.6
13422.7
12994.9
11117.6
10753.9
9712.47
8069.47
7743.64
6646.59
6463.6
5534.99
5383.46
5209.47
3924.07
3703.95
2937.92
2862.18
2206.83
2132.68
2356.13
994.132
731.436
78.739
12.9064
-450.261
-348.3
209.888
-1069.11
-1102.84
-1431.58
-1083.82
276.426
301.286
1311.86
2021.58
1612.19
2066.62
2002.54
2010.57
2130.75
2126.72
2311.5
620554
613907
606032
589070
565625
535448
509244
465065
419582
350849
294580
213969
163520
100995
70800.5
48285.8
39104.3
37137.4
29707.9
28173.3
22387.7
21348.7
17355.8
16653
13953
13337.7
11508.5
10947.4
9959.36
8270.86
8055.52
6938.57
6743.73
5861.93
5606.43
5439.74
4112.87
4010.79
3215.54
3147.6
2519.52
2363.14
2587.76
1199.24
1045.15
361.683
272.546
-186.503
-189.278
402.036
-936.616
-980.936
-1344.78
-1072.53
324.225
106.588
1317.07
1909.82
1406.23
2059.15
1944.26
1945.94
2079.14
2075.63
2277.35
684055
678479
668251
648306
622679
591999
565413
521638
474887
407962
351223
274783
218736
149682
110152
68465.5
49140.2
46628.9
39138
36848.4
29941.1
28236.4
22791.4
21822.5
17824.1
17248
14459.1
14032.2
12333.5
10490.2
10106.6
8855.88
8629.87
7568.08
7400.05
6989.25
5746.02
5518.15
4704.36
4592.19
3859.56
3775.88
3806.5
2495.83
2265.16
1518.38
1435.65
815.391
864.273
1270.48
-154.686
-248.461
-788.009
-545.534
700.086
179.689
1599.1
2060.09
1778.3
2054.52
1944.35
1913.36
2049.83
2037.63
2271.19
752404
745613
733135
709526
682247
650997
623884
580571
532377
466727
408516
335489
276679
201350
155563
99095
51942.6
49905.3
41682.2
39603.1
32117.8
30374.6
24339
23212.4
18789.2
18075.8
15080.8
14532.2
12813.4
10942.5
10652.3
9347.56
9117.1
8053.45
7804.13
7379.92
6117.96
5989.01
5135.86
5042.31
4313.39
4163.19
4183.89
2881.16
2743.6
1970.21
1881.36
1259.86
1217.75
1638.38
187.864
97.1204
-478.197
-317.748
904.058
151.844
1727.01
2042.14
1938.83
2058.81
1837.9
1812.74
1980.41
1960.07
2220.53
826001
816846
802548
775043
746004
714046
686437
643657
594175
529728
470619
399244
339382
266307
211321
147240
84518.6
63926.6
51829.2
49287.2
42412.7
40081.3
33205.3
31733.1
25574.1
24989.3
20055
19940.5
16508.4
14336.2
13595.9
12021.9
11711
10252.1
10194.1
9220.48
8174.1
7742.96
6962.09
6797.84
5932.52
5936.27
5588.13
4546.99
4212.79
3477.08
3412.53
2584.49
2739.75
2794.79
1439.51
1286.44
535.006
774.402
1613.36
739.329
2347.6
2405.41
2603.65
2276.2
2050
1862.51
1963.24
1918.95
2200.21
902307
890834
873982
843309
812572
779940
751669
709425
658545
595123
535020
464542
402975
332884
273796
205059
127048
95551.1
55121.5
53731.4
46062.5
44148.9
36800.9
35199.3
28619.9
27708.3
22340.6
21985.3
18098
15863.6
15109.3
13306.3
12963.7
11396.5
11236.3
10291.5
9117.99
8739.86
7857.8
7673.54
6803.4
6701.04
6495.64
5350
5062.43
4302.47
4188.48
3440.06
3465.37
3570.08
2199.77
2000.67
1269.76
1379.96
2205.29
1210.29
2704.34
2773.79
2767
2258.3
2095.47
2079.38
2087.82
2095.54
2493.19
981676
968393
946608
914688
882699
849187
820230
778298
726099
663225
602270
532352
469365
399350
338855
262794
180092
135422
75634.3
55157.2
47815.9
45780.4
38378.1
36447.4
29901.4
28264.9
23154.6
21909.8
18445.8
15537
15063.4
13137.2
12781.2
11333.2
10964.1
10202.5
8820.96
8649.04
7726.27
7572.45
6789.3
6563.97
6411.25
5209.22
5072.9
4336.59
4185.23
3557.02
3394.61
3578.86
2237.01
2057.35
1412.01
1360.2
2147.39
1048.3
2430.55
2596.48
2828.49
2468.71
1902.46
1593.81
1834.71
1759.27
2060.67
1.06496e+06
1.04946e+06
1.02249e+06
990046
957183
922753
893024
851342
797941
735590
674031
604932
540982
471044
409116
336448
247909
198312
129611
98607
60650.5
56464.8
49727.4
47837.5
40856.4
39041.6
32455.5
31013.8
25634.3
21407.2
20326.9
17350.3
16755.5
14460
14089.7
12679.8
11093.2
10748
9625.61
9406.77
8453.08
8258.44
7921.74
6742.35
6553.3
5772.84
5622.64
4939.91
4822.81
4866.88
3542.71
3350.03
2639.06
2604.07
3141.45
1923.04
2984.27
3091.63
3716.21
3278.77
2696.11
2229.81
2043.04
1769.22
2059.04
1.15139e+06
1.13134e+06
1.10188e+06
1.06854e+06
1.0349e+06
999579
968987
927338
872782
810696
748564
680044
615146
545113
480891
409662
325169
269249
192506
151184
93250
74127.7
52724.3
50758.1
43709.8
41705.6
34786.4
33068.7
27211.6
22810.1
21603.4
18300.5
17637.6
15059.1
14627.1
12986
11407.9
11122.7
9978.9
9785.12
8810.73
8570.79
8195.65
7031.96
6914.82
6128.74
5986.21
5326.65
5132.12
5198.12
3919.21
3774.3
3078.37
2972.14
3414.63
2191.02
3007.62
3204.84
3877.12
3433.3
2859.61
2223.67
1825.74
1494.79
1883.24
1.24293e+06
1.21661e+06
1.18549e+06
1.15115e+06
1.11683e+06
1.08063e+06
1.04912e+06
1.0073e+06
951733
889791
827270
759243
693780
623774
558251
487243
408217
348716
268842
220327
154707
125871
79379.8
60872.5
54980.8
54027
46858.2
46298.1
38687.9
33694
31362.5
26900.6
25725.6
21567.2
21257.4
17897.4
15877.8
14926.6
13345.3
12922
11425.3
11326.2
10306.3
9226.8
8840.13
8014.95
7886.09
6985.55
7047.38
6705.9
5595.17
5414.37
4607.63
4693.93
4712.83
3600.9
4013.63
4041.11
5156.29
4654.13
4416.74
3908.28
2707.14
2381.18
2160.52
1.3372e+06
1.30565e+06
1.27246e+06
1.23716e+06
1.20214e+06
1.16521e+06
1.13263e+06
1.09042e+06
1.03388e+06
971985
909045
841500
775367
705649
638770
568060
490697
429294
353461
296811
226509
184559
123804
92300.4
59100.5
57124.2
52113.6
49348.7
43654.9
37293
35482.1
30200.3
28992.5
24344.4
23772.3
20023.4
17783.7
16767.7
14912
14449.6
12737.8
12563
11454.1
10295.5
9934.92
9032.22
8861.58
8010.39
7940.65
7668.58
6534.18
6332.43
5604.1
5557.15
5658.2
4462.78
4613.34
4681.63
5350.62
5494.1
4746.94
4375.85
3046.25
2953.01
2231.97
1.43269e+06
1.39896e+06
1.36402e+06
1.3277e+06
1.29193e+06
1.25426e+06
1.22044e+06
1.17752e+06
1.12013e+06
1.05801e+06
994680
927273
860585
790788
722894
651967
575433
511728
439087
380249
303924
251735
183467
140739
86874
58775.4
53185.7
50807.9
45122.3
38754.6
37094.4
31582.7
30181.3
25442.6
24327.2
20688.8
17635.3
16935.5
14800.8
14352.1
12647.3
12303.9
11322.5
9991.92
9782.42
8889.89
8700.81
7944.58
7725.29
7523.54
6429.24
6260.56
5609.13
5459.27
5538.21
4386.85
4451.81
4500.06
5309.71
5347.55
5070.48
4745.14
3247.91
2637.47
2106.69
1.53153e+06
1.49639e+06
1.45996e+06
1.42291e+06
1.38615e+06
1.34787e+06
1.3126e+06
1.26875e+06
1.21058e+06
1.14824e+06
1.08461e+06
1.01734e+06
950286
880498
811966
740881
665888
600305
529068
468748
397273
340016
264121
218068
153601
115756
79613.9
62411.2
57803.8
52524.3
50878.3
45334.6
43673.6
37999.8
36660.4
31392
27207.5
25509.4
22076.6
21092.6
18107.4
17630.4
15518.7
13631
13067.1
11708.9
11413.3
10247.1
10097.1
9486.2
8310.44
8077.61
7301.6
7211.08
7056.1
5936.59
5843.72
5603.34
6196.8
6596.98
6366.7
6228.97
5585.42
5268.26
3698.3
1.63462e+06
1.59738e+06
1.55962e+06
1.52198e+06
1.48416e+06
1.44535e+06
1.40851e+06
1.36343e+06
1.30449e+06
1.24191e+06
1.17795e+06
1.1108e+06
1.04336e+06
973659
904466
833468
759415
692470
621105
558916
489046
429010
354926
296294
232035
180301
129780
94564.9
61650.9
55667
54779.2
48816.8
47310.4
41472.4
39967.9
34309.6
30229.2
28273
24686.7
23628.1
20119
19688.1
16415.1
15164.4
14369
12932.8
12622.6
11207.1
11122.1
10308.2
9206.81
8966.96
8144.31
8034.87
7803.97
6723.66
6571.53
6160.6
6546.55
6808.52
6701.44
6608.88
5961.91
5850.72
3944.7
1.74257e+06
1.70364e+06
1.66474e+06
1.62631e+06
1.58741e+06
1.54799e+06
1.5095e+06
1.46277e+06
1.40314e+06
1.34017e+06
1.27586e+06
1.2086e+06
1.14082e+06
1.07095e+06
1.00127e+06
929934
856498
788385
716915
652873
582604
520618
450071
388992
315671
256153
193413
148438
95409.8
57061.3
55823.3
50892.2
49254.6
44031.7
41945.6
37245
31521.5
30627.2
26072.9
25023.6
21379.1
20301.3
17685.7
15021.9
14650.8
12899.3
12495.9
11210.3
10780.3
10151.3
8910.11
8695.77
7976.23
7686.78
7552.92
6425.04
6272.85
5904.04
6075.14
7041.63
6929.19
6861.99
6720.79
6318.28
4686.08
1.85452e+06
1.81451e+06
1.77474e+06
1.73533e+06
1.69534e+06
1.65531e+06
1.61508e+06
1.56633e+06
1.50609e+06
1.4428e+06
1.37816e+06
1.3108e+06
1.24278e+06
1.17279e+06
1.1028e+06
1.03118e+06
958478
889511
818405
752805
682987
619132
550213
487841
419483
357774
287732
236754
179734
120392
101982
63519.9
62071.5
58511.8
56913.3
52835
47228.6
45746.7
40200.7
38582.4
33454.2
32014.7
27639.2
23829.1
22539.5
19480.8
18721.9
16136.6
15688.1
13962.2
12151.8
11758.1
10487.1
10197
9618.39
8358.33
8137.31
7438.04
7433.26
8113.43
7597.83
8193.87
8167.36
8030.94
7573.47
1.97073e+06
1.92987e+06
1.88925e+06
1.84872e+06
1.8077e+06
1.767e+06
1.72492e+06
1.67388e+06
1.61301e+06
1.54944e+06
1.48438e+06
1.41694e+06
1.34862e+06
1.27855e+06
1.2082e+06
1.13641e+06
1.06427e+06
994606
923663
856761
786925
721435
651998
588188
520709
458091
391212
333249
265489
200022
167930
113820
93275
60491.8
58919.2
55326.4
49999.7
48519.4
43087.2
41480.5
36142.5
34699
29769
25968.6
24448
21178.7
20302.3
17234.7
16717.9
14559.7
12756.3
12317.8
10855.5
10560.9
9769.1
8599.31
8416.37
7618.03
7522.26
7975.13
7638.43
8419.87
8414.21
8336.25
7910.07
2.09201e+06
2.05034e+06
2.00872e+06
1.96702e+06
1.92497e+06
1.88347e+06
1.83945e+06
1.78587e+06
1.72447e+06
1.66063e+06
1.59518e+06
1.52762e+06
1.45909e+06
1.3889e+06
1.31834e+06
1.24632e+06
1.17461e+06
1.10448e+06
1.03367e+06
965783
896001
829232
759872
694824
626888
563806
497930
438710
374391
302605
261695
208054
172652
126446
106610
67797.5
62691.2
61261.8
57717.4
56494.1
51905.5
51241.7
45626.5
41700.8
39193.4
34940.9
33547.1
28852.3
28542.8
24012.1
21059.7
19977
17185.6
17022.2
14693.2
13035.6
12521.6
11042.5
11059.1
10360.5
9639.45
10039.6
9640.52
10174.6
9919.38
2.21799e+06
2.17524e+06
2.13246e+06
2.08962e+06
2.04659e+06
2.00408e+06
1.95801e+06
1.90178e+06
1.8399e+06
1.77575e+06
1.70995e+06
1.64226e+06
1.57351e+06
1.50324e+06
1.43248e+06
1.36038e+06
1.28884e+06
1.21849e+06
1.14763e+06
1.07906e+06
1.00915e+06
941401
871998
805833
737776
673474
607122
546177
483669
417788
367994
302303
262718
211053
174955
125039
76106.1
65021.6
61399.5
60601.9
56890.3
55037.3
51421.9
45714.5
44333
39066.3
37588.4
32841.9
31601
27476.6
23976.6
22901
19705.4
19302.7
16791.8
15001.1
14414.1
12757.3
12574.3
11582.6
10684.7
10770.9
10483.4
10510.8
10378.5
2.35082e+06
2.30681e+06
2.26279e+06
2.21876e+06
2.17475e+06
2.13073e+06
2.08245e+06
2.02366e+06
1.96132e+06
1.89676e+06
1.83052e+06
1.7626e+06
1.69353e+06
1.62309e+06
1.55205e+06
1.47976e+06
1.40839e+06
1.33764e+06
1.26668e+06
1.19735e+06
1.12718e+06
1.05847e+06
988817
921583
853179
787749
720922
658288
595107
531323
478239
414545
364981
302443
260185
196740
131027
104821
62714.3
61446.1
57989.2
56685.4
52563
47563.9
46032.6
41121.7
39561.7
34866
33346
29214.9
25408.2
24227.2
20923.2
20086.8
17506.2
15291.3
14678.8
12892.4
12488.4
11375.7
10300.3
10330.2
10123.4
10681
10692.8
2.48857e+06
2.44337e+06
2.39807e+06
2.35292e+06
2.30784e+06
2.2617e+06
2.211e+06
2.15026e+06
2.08737e+06
2.02239e+06
1.95576e+06
1.88761e+06
1.8183e+06
1.74767e+06
1.67647e+06
1.60393e+06
1.53263e+06
1.46166e+06
1.39058e+06
1.32071e+06
1.2503e+06
1.18087e+06
1.11101e+06
1.04297e+06
974359
908072
841023
777345
713712
650366
594503
532914
480740
423554
373312
305558
242983
201194
151092
127885
97606.8
72548
65046.1
62355.7
61175.7
57785.3
56754.9
52573.7
51807
46784.2
42388
40625.5
36053.2
35016
30439
26867.2
25478.9
22158.6
21625.4
18668.9
16493.5
15916.6
14411.8
14707
14247.4
2.63076e+06
2.58439e+06
2.53789e+06
2.49162e+06
2.44529e+06
2.39674e+06
2.34321e+06
2.28127e+06
2.21771e+06
2.15226e+06
2.08524e+06
2.01686e+06
1.94731e+06
1.87656e+06
1.80515e+06
1.73254e+06
1.66121e+06
1.59012e+06
1.51885e+06
1.4486e+06
1.37788e+06
1.30788e+06
1.23774e+06
1.16902e+06
1.10018e+06
1.03306e+06
965906
901113
836989
772909
714488
653024
598258
541270
487172
424336
349306
306203
253106
216062
171703
131094
102468
65188.5
65040.1
61390.8
60386.1
57571.6
55060.7
52111.7
46258.8
44863.7
39975.6
38306.2
33970.5
29968.9
28631.6
24824.5
24194.5
20798.7
18731.2
17979.8
15989.1
16116.8
14846.1
2.78048e+06
2.73288e+06
2.68521e+06
2.63774e+06
2.58941e+06
2.53841e+06
2.48185e+06
2.4192e+06
2.35501e+06
2.28895e+06
2.22149e+06
2.15275e+06
2.08288e+06
2.01191e+06
1.94021e+06
1.86736e+06
1.79602e+06
1.72461e+06
1.65313e+06
1.58238e+06
1.51128e+06
1.44067e+06
1.3701e+06
1.30068e+06
1.23138e+06
1.1635e+06
1.09586e+06
1.03009e+06
965108
900381
839884
777936
720746
661704
605333
544369
476787
423204
357088
315968
262602
211406
162480
102532
71275.7
62099.1
61294.7
58200.3
56754
53037.7
48399
46936
42449.1
40652.7
36616.3
32256.1
30961.3
27326.4
26039.2
23111.3
20087.9
19317.6
17220.6
16736.4
16004.2
2.93773e+06
2.88889e+06
2.84e+06
2.7909e+06
2.74021e+06
2.68658e+06
2.62698e+06
2.56401e+06
2.49926e+06
2.43253e+06
2.36466e+06
2.29557e+06
2.22545e+06
2.15423e+06
2.08234e+06
2.00923e+06
1.93777e+06
1.86617e+06
1.79447e+06
1.72334e+06
1.65192e+06
1.5808e+06
1.50986e+06
1.43986e+06
1.37014e+06
1.30163e+06
1.23349e+06
1.16699e+06
1.10108e+06
1.03603e+06
973977
911642
852533
792544
734275
673683
609723
554104
495149
449172
394513
339244
279299
221387
177565
144288
126022
96326.5
69280.1
66566.6
63986.6
63172.4
60159
59106.2
55604.7
51469.7
49963.1
45749.5
44299.1
40021.3
35644.5
34096.7
30093.3
29040.3
25771.3
3.10069e+06
3.05062e+06
3.00021e+06
2.94896e+06
2.89592e+06
2.83936e+06
2.77735e+06
2.7146e+06
2.64934e+06
2.58154e+06
2.51313e+06
2.44377e+06
2.37332e+06
2.30197e+06
2.2298e+06
2.15663e+06
2.08508e+06
2.01329e+06
1.94139e+06
1.86992e+06
1.79818e+06
1.7266e+06
1.65528e+06
1.58473e+06
1.5146e+06
1.44542e+06
1.37684e+06
1.30948e+06
1.24291e+06
1.17745e+06
1.11414e+06
1.05116e+06
990432
929447
869507
808497
744985
687799
629169
579114
523679
468248
408230
335741
292929
249287
214212
176214
132731
102169
66258.3
65650.3
63146.8
61650
59494.1
54599.8
53527.3
49099.8
47355.5
43297.9
38729.9
37277.5
32615
31620.7
27536.7
3.26897e+06
3.2173e+06
3.16485e+06
3.11144e+06
3.0558e+06
2.99621e+06
2.9328e+06
2.86828e+06
2.8024e+06
2.73519e+06
2.66649e+06
2.59677e+06
2.52601e+06
2.45435e+06
2.38192e+06
2.3084e+06
2.23669e+06
2.16463e+06
2.09243e+06
2.02057e+06
1.94842e+06
1.87636e+06
1.80454e+06
1.73345e+06
1.66275e+06
1.59296e+06
1.52372e+06
1.4556e+06
1.3881e+06
1.32198e+06
1.25759e+06
1.19371e+06
1.13163e+06
1.06951e+06
1.00828e+06
946498
883248
824476
764903
711019
654204
598291
538918
473017
420589
359553
319901
274003
225160
172657
112882
85165.7
63793.7
62677.8
60318.7
56680.6
55771.2
52139.9
50146.7
46916.1
42216.1
40998.7
37328.6
34961.4
32229.7
3.43901e+06
3.38542e+06
3.33102e+06
3.27529e+06
3.21697e+06
3.15474e+06
3.09054e+06
3.02411e+06
2.95742e+06
2.89075e+06
2.82193e+06
2.75184e+06
2.68086e+06
2.60885e+06
2.53625e+06
2.46245e+06
2.39048e+06
2.31821e+06
2.24575e+06
2.1736e+06
2.10109e+06
2.02865e+06
1.9564e+06
1.88486e+06
1.81364e+06
1.74332e+06
1.67346e+06
1.60471e+06
1.53636e+06
1.46964e+06
1.40436e+06
1.33966e+06
1.27646e+06
1.21341e+06
1.15114e+06
1.08872e+06
1.02583e+06
965978
905965
849652
791954
734832
676393
614497
560480
504255
458922
415303
367843
313952
248986
217041
180456
155306
133580
94477.1
69230.2
66867.9
65763.1
64490.4
60595.2
59796.7
56914.4
54670.1
51725.7
3.61081e+06
3.55544e+06
3.49896e+06
3.44084e+06
3.37983e+06
3.3162e+06
3.25117e+06
3.18467e+06
3.11731e+06
3.0494e+06
2.98002e+06
2.90959e+06
2.83823e+06
2.766e+06
2.69308e+06
2.61909e+06
2.54705e+06
2.4745e+06
2.40185e+06
2.32935e+06
2.25655e+06
2.1837e+06
2.11105e+06
2.03901e+06
1.96732e+06
1.89641e+06
1.82598e+06
1.7565e+06
1.68744e+06
1.6202e+06
1.55405e+06
1.48855e+06
1.42427e+06
1.36034e+06
1.29712e+06
1.23402e+06
1.17125e+06
1.11033e+06
1.04968e+06
991529
932764
874571
815496
754372
698834
642534
594167
546457
498348
445677
387409
344300
296334
260962
228874
173629
138939
103949
72399
64717.8
61989.2
61295.2
58335.8
56887.9
53504.3
3.78444e+06
3.72713e+06
3.66848e+06
3.608e+06
3.54464e+06
3.4802e+06
3.41435e+06
3.34729e+06
3.27925e+06
3.21055e+06
3.14064e+06
3.06982e+06
2.9981e+06
2.92556e+06
2.8524e+06
2.77814e+06
2.70589e+06
2.63314e+06
2.56028e+06
2.48749e+06
2.41443e+06
2.34123e+06
2.26826e+06
2.1958e+06
2.12368e+06
2.05227e+06
1.98129e+06
1.91124e+06
1.84142e+06
1.77363e+06
1.70674e+06
1.64053e+06
1.57533e+06
1.51059e+06
1.44658e+06
1.38269e+06
1.31969e+06
1.258e+06
1.19675e+06
1.13723e+06
1.07761e+06
1.01859e+06
959132
898906
842524
786613
735821
685737
636434
585092
531079
485113
439524
402492
368963
318808
276130
234822
203809
174270
147132
129974
103485
76722.5
67419.8
3.95974e+06
3.90045e+06
3.8396e+06
3.77681e+06
3.71226e+06
3.64691e+06
3.58019e+06
3.51249e+06
3.44372e+06
3.3743e+06
3.30379e+06
3.23258e+06
3.16044e+06
3.08764e+06
3.01416e+06
2.93975e+06
2.86734e+06
2.79435e+06
2.72132e+06
2.64824e+06
2.57494e+06
2.50141e+06
2.42815e+06
2.35526e+06
2.28276e+06
2.21083e+06
2.13938e+06
2.06868e+06
1.99827e+06
1.92996e+06
1.86235e+06
1.79545e+06
1.72939e+06
1.66387e+06
1.59905e+06
1.53448e+06
1.47115e+06
1.40867e+06
1.34675e+06
1.28609e+06
1.22567e+06
1.1658e+06
1.10603e+06
1.04625e+06
989117
933000
880412
828687
777879
726124
672894
625269
579225
538745
501254
454513
413188
370592
331543
291494
257320
232217
191041
153208
121596
4.13674e+06
4.07541e+06
4.01234e+06
3.948e+06
3.88246e+06
3.81617e+06
3.74857e+06
3.68017e+06
3.61068e+06
3.54062e+06
3.46952e+06
3.39789e+06
3.32532e+06
3.25223e+06
3.17843e+06
3.10374e+06
3.03117e+06
2.958e+06
2.88474e+06
2.81143e+06
2.73788e+06
2.66408e+06
2.59052e+06
2.51728e+06
2.44442e+06
2.37206e+06
2.30015e+06
2.22891e+06
2.15785e+06
2.08908e+06
2.02087e+06
1.95331e+06
1.88654e+06
1.8203e+06
1.75476e+06
1.68945e+06
1.62569e+06
1.56255e+06
1.49995e+06
1.43838e+06
1.37722e+06
1.3167e+06
1.25635e+06
1.19675e+06
1.13906e+06
1.08258e+06
1.02867e+06
975663
923789
871579
819144
770510
723825
681117
640120
595314
553471
510871
471381
434773
401965
371870
329552
286257
244204
4.31486e+06
4.25147e+06
4.18668e+06
4.1213e+06
4.05479e+06
3.9875e+06
3.91908e+06
3.84989e+06
3.77968e+06
3.70894e+06
3.63729e+06
3.56519e+06
3.49223e+06
3.4188e+06
3.34473e+06
3.26988e+06
3.197e+06
3.12368e+06
3.0502e+06
2.97671e+06
2.90291e+06
2.8289e+06
2.75507e+06
2.68155e+06
2.60837e+06
2.53562e+06
2.46332e+06
2.3916e+06
2.32009e+06
2.25078e+06
2.18205e+06
2.11386e+06
2.04644e+06
1.97953e+06
1.91329e+06
1.8474e+06
1.78308e+06
1.71934e+06
1.65605e+06
1.59371e+06
1.53185e+06
1.47065e+06
1.40989e+06
1.35012e+06
1.29191e+06
1.2349e+06
1.17985e+06
1.12585e+06
1.07289e+06
1.02023e+06
968098
918621
871162
826440
783456
738004
694962
651824
611311
574125
537869
503659
462944
420678
376326
4.49778e+06
4.43266e+06
4.36677e+06
4.30026e+06
4.23273e+06
4.16447e+06
4.0952e+06
4.02523e+06
3.95429e+06
3.88288e+06
3.81065e+06
3.73803e+06
3.66462e+06
3.5908e+06
3.51638e+06
3.44118e+06
3.36816e+06
3.29452e+06
3.22083e+06
3.14703e+06
3.07298e+06
2.99863e+06
2.92451e+06
2.85063e+06
2.77707e+06
2.70388e+06
2.63111e+06
2.55885e+06
2.48675e+06
2.41693e+06
2.3476e+06
2.27878e+06
2.21066e+06
2.14304e+06
2.0761e+06
2.00944e+06
1.94456e+06
1.88014e+06
1.81614e+06
1.75301e+06
1.69042e+06
1.62856e+06
1.56714e+06
1.50703e+06
1.44824e+06
1.39056e+06
1.33454e+06
1.27951e+06
1.22562e+06
1.17231e+06
1.11985e+06
1.06962e+06
1.0211e+06
974865
929974
883860
839904
795966
754494
715306
675706
638566