/*--------------------------------*- C++ -*----------------------------------*\
| =========                 |                                                 |
| \\      /  F ield         | OpenFOAM: The Open Source CFD Toolbox           |
|  \\    /   O peration     | Version:  v2012                                 |
|   \\  /    A nd           | Website:  www.openfoam.com                      |
|    \\/     M anipulation  |                                                 |
\*---------------------------------------------------------------------------*/
FoamFile
{
    version     2.0;
    format      ascii;
    class       volScalarField;
    location    "1e-06";
    object      totalPPrime2Mean;
}
// * * * * * * * * * * * * * * * * * * * * * * * * * * * * * * * * * * * * * //

dimensions      [2 -2 -4 0 0 0 0];


internalField   nonuniform List<scalar> 
10302
(
1.74502e+07
1.53318e+07
1.57925e+07
1.71851e+07
1.82145e+07
2.44284e+07
2.55512e+07
1.92781e+07
1.9914e+07
1.9793e+06
2.41097e+06
464133
690391
195185
283909
75902.8
151924
59810.3
64350.8
2047.46
1444.46
719.082
1757.87
585.105
11057.1
7731.13
27283.4
187.967
23240.6
22475.3
93734.3
545238
401226
120807
105286
19853.8
29517.3
10320
794807
774246
24357.9
38945.2
5092.23
59318.8
120032
52895.6
34214.9
56638.2
32966.8
144535
375280
168351
638237
566131
5.06319
0.193044
0.188156
277.634
168.62
8.74321
95399.4
0.0846331
4.92105e+07
9.74248e+06
3.66252e+06
1.08836e+07
9.77378e+06
1.03704e+07
9.40444e+06
1.02177e+07
7.50678e+06
7.42349e+06
1.41212e+06
955483
42250.7
40307.1
16739.1
70354.7
19282.1
72728.7
22907.6
38642
18500.4
14897.3
189.807
196.791
1613.18
2118.34
992.334
9056.6
6208.2
20287.6
143.091
31187.8
17981.8
78196.5
157142
112768
72791.2
55902.1
21510.9
18992.8
12027.7
199391
200809
15696.2
23149.4
5198.34
60014.3
121949
53725.7
34400.9
51576
28782.2
138634
348753
152025
584928
516002
662.39
0.0289158
91.2559
74.5197
62.3172
15.0983
102954
0.242897
4.78414e+07
9.31368e+06
3.24239e+06
5.02322e+06
4.57893e+06
5.05586e+06
5.59583e+06
6.72088e+06
7.89177e+06
8.94507e+06
2.48203e+06
4.71156e+06
510520
618246
98601.8
122016
24585.7
26998.5
26418
17333.1
4706.64
5097.11
7935.77
5003.34
9239.65
7880.36
6737.34
10746.3
11026.7
15174.9
2128.03
48055.4
12266.3
51845.5
30495.6
19185.2
38118.8
29212.4
24692.6
11157.4
13239.5
63192.1
70777.3
9823.96
14818.6
5828.18
62134.8
125210
55793.6
35417.1
43293.3
22102.3
129033
300181
126173
512481
427888
5684.97
0.012067
0.000699453
108.067
0.0265734
42.8774
116737
3.32181
4.49277e+07
8.32136e+06
2.57788e+06
1.02511e+08
5.13695e+07
3.38765e+07
1.06615e+06
956010
1.25319e+06
1.94415e+06
2.33209e+06
1.7288e+06
177583
224228
39244.1
46870.4
8617.42
15834.8
28510.7
4138.3
1735.03
1874.62
566.976
369.598
613.17
859.13
318.469
1500.95
1179.71
2959.03
242.701
43941.7
11400.6
39062.9
5194.35
7581.3
8209.73
4993.39
21040.1
5267.54
16578
16575.1
24464.2
4579.08
7545.39
5890.55
68889.2
133336
61094.3
38912.6
32354.5
13628.2
114409
236225
96427.7
434258
317136
10967.8
0.0036881
0.000102575
0.766293
4.20329
11.7933
71308.3
11.229
4.12908e+07
7.38325e+06
2.02088e+06
9.17748e+08
5.39589e+08
2.70677e+08
9.76002e+07
5.3559e+07
411395
155494
572593
216692
73722.4
108716
61296.2
104698
30821.8
72997.3
11619.8
36951.5
14516.1
21480.6
16203.2
21292.3
16461.5
12781.8
13029.6
7249.47
8990.55
2834.06
6105.6
29026.1
18171.1
37480.8
40852.4
28218.6
1249.41
3786.33
14695
6574.46
22861.7
3954.17
6644.79
1958.54
5881.96
5769.89
80849.6
144658
71986.7
47651.1
22201.5
6333.63
97971.1
168206
67431.4
354948
212835
29328.1
0.0998274
6.80932e-05
100.792
108.814
67.8
13767.1
3.2757
3.69325e+07
6.42326e+06
1.55186e+06
3.3155e+09
1.36708e+09
1.53954e+09
1.00373e+09
6.68582e+08
3.34964e+07
316659
260381
497809
73471
169255
17362.8
73807.9
13094.6
46107.8
29814.7
14543.1
5174.28
10149.5
2448.25
2368.82
1651.09
794.965
1618.34
52.0114
937.907
372.489
1246.38
43243.6
7626.29
19257.1
57116.4
23767.8
4771.73
8629.2
16349.8
10993.6
25393.5
15814
7441.38
2739.43
10840.3
7402.29
87767
147595
85493.7
59237.6
16662
3715.11
82274.8
103435
39611.4
264923
124440
28924.9
419.529
0.00093658
18.3606
18.5987
16.0543
5971.89
4.49604
3.0612e+07
4.65679e+06
800639
4.89508e+09
4.28671e+09
5.11565e+09
3.7628e+09
2.70832e+09
3.56592e+08
4.74842e+07
1700.68
131492
18089
93733.7
25067.7
82601.7
24016.4
78236.6
14224.2
31241.4
7651
27984.3
8487.84
12147.2
6722.41
5396.83
5546.72
1432.6
3013.92
1931.94
4122.07
26184
8181.16
16547.6
86605.6
37916.1
17820.7
25717
10488
23036.9
35079.4
52927.5
27863.2
6618.98
24453.5
7809.8
100222
154007
107831
78973.1
18056.4
8016.24
63282.3
47907.4
15725.9
174626
59133.7
38289.6
867.631
84.5615
1.21242
11.0733
1.71084
897.066
1.55666
2.39211e+07
3.02037e+06
291506
9.95778e+09
1.07651e+10
1.19163e+10
9.34029e+09
6.78893e+09
1.83845e+09
4.25364e+08
185314
13784.6
66325.6
183313
44703.4
159901
35570.4
115135
9187.73
48133.3
22377.3
39618.2
12003.3
14542.6
8169.63
5664.34
6071.99
1962.41
3404.43
5089.75
3312.94
13529.6
9084.21
15312.9
120642
59524.9
41358.7
51018
5242.32
43048.2
48844.8
114697
66976.1
16779.8
48741.4
8421.03
115916
158611
138181
103683
30500.1
22825.2
45353.1
11652.3
3014.94
96005.4
17345.9
41822.4
1489.9
1088.79
17.888
14.4396
1.36275
52.2641
5.98899
1.7624e+07
1.72684e+06
55733.8
2.03755e+10
2.1869e+10
2.31414e+10
1.83483e+10
8.8371e+09
3.25132e+09
1.06316e+09
837129
28766.3
1988.68
38919
3313.89
17580.2
5336.49
7883.67
6426.75
2761.3
4456.18
2029.87
1403.94
5045.54
5108.39
7239.36
9345.7
10481.3
20078.5
18793.1
24431.5
2425.17
26312.1
28186.4
191804
120177
92782.6
116780
101.859
97675
81915.7
221380
145546
43904.5
96524.4
7837.62
142356
165830
181281
139331
60228.1
54544.3
27400.5
1226.32
5224.25
33532.8
2449.76
40813.9
783.768
587.549
11.8396
24.5221
0.296114
0.285184
2.63286
1.16656e+07
735889
2337.13
3.72834e+10
3.91185e+10
3.91611e+10
2.13868e+10
1.34838e+10
6.78598e+09
2.99271e+09
1.32613e+08
377210
49678.8
14045.5
85062.7
144138
89388.8
223991
74499.1
225607
56154.7
173190
84313.9
148304
109525
115149
121688
86988.6
143146
75520.9
156514
12427.2
113755
72147.2
321617
227456
191624
227881
8609.03
206669
132348
384016
256529
98776.6
160669
4559.48
182257
170186
236686
176792
107145
101359
14385
26712.2
27734.5
3152.01
19059.7
38148.4
758.801
226.106
226.555
372.444
40.6992
44.7549
17.8692
6.86587e+06
195477
2.17111
6.32161e+10
6.37568e+10
4.23885e+10
2.86604e+10
2.30617e+10
1.44582e+10
7.84649e+09
1.15289e+09
1.30042e+08
6229.85
193559
24246.4
108043
7758.9
42459.9
2866.64
2869.69
4631.33
1851.53
808.453
4739.62
2372.23
7686.38
4833.17
10154.8
11186.7
15595.2
21899.2
351.16
34822.1
17133.8
155316
94009.5
106895
93058.3
536.294
131097
88566.1
309487
188930
91182.2
111656
11194.1
151554
126462
228176
154735
137080
115645
9855.31
70475.9
56611.4
10095.3
59497.9
32403.4
3387.63
24.6798
6.04601
5.8054
9.24165
8.62641
7.37402
3.34904e+06
14988.2
0.0157068
9.82677e+10
6.7692e+10
5.2219e+10
4.29697e+10
3.86603e+10
2.76168e+10
1.43481e+10
2.55976e+09
8.01641e+08
226664
22930.6
2067.38
39161.4
636.121
16615.9
329.173
3698.66
3783.91
2222.82
2486.73
1652.33
1748.37
1545.62
1486.7
1958.33
2296.84
4442.69
5836.85
1796.36
14852.4
6110.05
81052.4
49676.8
64200.7
49857.5
53.5058
99335.1
69654.4
253857
158245
93540.7
93451.6
10601.8
130988
94796.6
207397
134192
164726
131776
5356.06
135578
101957
59869.8
130729
18044.3
6074.97
73.3887
13.4921
21.6781
0.369819
1.04773
0.937387
1.08052e+06
34.8448
0.249369
1.02527e+11
8.009e+10
7.15785e+10
6.54251e+10
6.18838e+10
4.72278e+10
2.00624e+10
8.02035e+09
2.0885e+09
718466
6232.69
24344.4
114311
15239.3
70793.1
4649.55
23161.9
14294.5
11548.9
9899.91
5901.93
7321.83
2627.85
5480.27
1093.95
3163.52
873.973
1273.76
3852.45
4703.51
1219.66
34890.8
17981.5
33124.9
19651.4
597.839
60602.3
41635.9
185490
108702
84870.6
63656.2
13142.7
96865.2
61733.9
170648
98512.4
172561
128111
4249.8
202859
146163
147311
209183
10100.2
11465.6
74.0877
3.50475
2.31138
0.66483
4.18959
3.04362
178323
0.454638
0.160684
1.174e+11
1.04963e+11
1.01649e+11
9.80999e+10
9.37624e+10
5.51503e+10
2.92363e+10
1.93421e+10
6.99875e+09
3.18661e+08
327354
4838.07
15465.4
714.797
6821.1
1974.83
88.3632
1306.47
12.4122
795.205
97.2807
266.826
169.894
81.4363
241.578
115.787
602.189
983.441
1068.24
4866.46
264.391
18100.8
9617.42
18371.1
11676.6
1077.25
43642.9
26870.7
129231
79672.8
76076.7
50987.5
8150.96
82161.2
43784.8
130015
70491.2
160689
118375
4011.51
266227
196896
274106
306486
777.22
9743.68
1667.83
0.558482
0.905296
0.117789
3.12406
3.80385
8677.96
9.80065
1.51064
1.48108e+11
1.44411e+11
1.44864e+11
1.44245e+11
1.036e+11
6.65539e+10
4.34703e+10
2.55914e+10
1.80618e+10
1.80847e+09
2.49546e+08
26868
79866.6
10869.1
72475.6
490.94
9301.77
8225.55
1842.8
2444.72
101.067
776.154
128.106
329.248
202.561
164.756
318.562
262.709
622.709
2291.76
324.439
4969.14
1002.74
6115.48
1887.05
2815.66
17734.5
8038.46
66924.4
34259.8
50516.9
23623.8
10162.7
43393.1
19203.4
76999.4
32182.8
121522
81508
7931.2
292086
212427
393160
373367
735.595
17784.3
2821.12
76.7557
19.0791
1.49696
1.41495
1.37996
42.1067
2.54805
0.12611
1.96944e+11
1.99693e+11
2.04858e+11
2.03796e+11
1.19203e+11
8.58071e+10
6.46057e+10
3.76592e+10
2.45582e+10
4.73449e+09
1.45294e+09
680569
5859.66
604.07
4674.87
6775.24
11193.1
750.192
14013.3
2436.97
10058
3978.46
7009.45
4751.36
3942.97
4796.03
1729.69
5092.75
1082.35
3317.96
1470.01
1462.18
871.935
1110.59
1387.25
7227.73
4486.09
606.198
20098.8
8790.79
20433
7355.49
17933.4
17715
6880.51
34376.6
11425.3
73422.7
44371.1
18282.5
268429
206671
484138
428311
12579.1
10427.5
7291.6
70.0255
75.0715
4.36055
10.4398
12.9044
29.0507
15.0022
2.28077
2.64926e+11
2.74271e+11
2.82989e+11
2.1163e+11
1.44467e+11
1.14594e+11
9.50971e+10
5.97334e+10
3.58183e+10
1.54194e+10
8.0666e+09
1.78964e+08
149507
8554.13
75853.8
2452.89
7697.8
5499.5
4281.82
4811.92
4530.59
5640.14
4282.51
7984.04
3953.69
10833
3846.09
12940.6
5922.75
9830.63
14089.7
11454.3
18826.9
8198.57
21801.2
22595
11725.2
11270.9
2432.54
7918.63
389.713
8736.41
42374.2
2582.08
5192.29
3520.17
9806.77
21684
4901.48
52778.8
176015
140488
475549
395022
21199.5
39093.5
1367.85
0.00849158
24.7087
0.0242391
18.439
9.64243
7.72663
12.58
0.0105216
3.55591e+11
3.73884e+11
3.1232e+11
2.32063e+11
1.82033e+11
1.55221e+11
1.37599e+11
9.39367e+10
5.76726e+10
3.99666e+10
1.21316e+10
1.11394e+09
1.15701e+08
59430.8
53589.7
21543.1
148179
107897
197447
138646
198257
176802
169971
206763
134320
229345
106970
239109
103523
195397
129925
171166
172335
125784
193610
130815
197637
109745
152134
133015
88152
142370
163349
133458
71703.2
80874.1
92167.5
21771.8
51502.2
126094
60881.3
73191.1
342011
294112
13559.2
123281
23048
1.57417e-05
1653.83
0.0229827
727.629
1503.51
83.4759
24.4227
0.0439341
4.73899e+11
4.9937e+11
3.40257e+11
2.69375e+11
2.33855e+11
2.09842e+11
1.93945e+11
1.43335e+11
9.25409e+10
4.68726e+10
2.94978e+10
3.82006e+09
6.47137e+08
396441
71783
15157.6
25072.2
3183.69
30841.7
7282.77
15462.4
5810.16
4502.16
4126.26
2216.53
3595.79
1977.13
4203.34
2849.27
4020.88
4718.71
8660.65
7553.64
8719.32
9179.14
19492.3
10721.9
8748.84
13969.9
8344.44
8306.66
7165.31
52875.5
7185.28
3602.18
7755.95
2971.48
5573.66
2836.34
46609.5
93904.2
114155
411122
470429
47923.4
2290.75
4935.12
5.63445
1276.34
15.2017
32.7413
30.3078
18.1826
27.4658
6.1765
6.26288e+11
5.73235e+11
3.83165e+11
3.26611e+11
3.02414e+11
2.82274e+11
2.69129e+11
2.11415e+11
1.44501e+11
7.01107e+10
4.51361e+10
1.39394e+10
3.11947e+09
4.49739e+08
78157.6
2923.05
19362.1
34523.2
1872.42
10367.7
142.785
2142.85
341.611
346.739
259.421
680.817
222.836
1510.34
276.86
2646.78
560.794
1198.43
1192.05
765.009
2368.95
3297.83
2321.22
1020.81
946.868
830.747
425.463
2707.16
17802.3
2691.3
229.253
490.199
1710.57
7817.23
12863.6
25750.9
104852
112884
399206
531693
43931.5
40609.6
4343.79
0.257361
208.66
0.00595246
0.798322
2.18368
2.99438
1.1294
0.933344
8.16773e+11
5.91963e+11
4.46317e+11
4.06835e+11
3.91438e+11
3.76318e+11
3.66416e+11
3.00968e+11
2.17818e+11
1.16508e+11
6.20317e+10
3.2444e+10
1.6386e+10
3.09689e+09
4.4041e+08
269218
6263.2
7982.89
3808.94
996.218
10227.4
908.919
12369.1
3907.65
7775.29
5876.49
4613.14
7390.37
3564.95
11255.3
4045.52
5996.92
5099.89
3938.94
7456.42
391.607
11746.3
2421.39
4801.51
4504.02
3682.79
9351.2
3431.26
16440.5
3385.17
5834.6
9505.83
13754.6
30285.9
8476.46
108100
106227
318926
453774
26991.6
146416
12971.8
340.729
10064.9
0.0171025
17.5219
6.99137
3.89231
4.62176
4.08922
9.07645e+11
6.37373e+11
5.35085e+11
5.12318e+11
5.06178e+11
4.96072e+11
4.89794e+11
4.1735e+11
3.17001e+11
1.89869e+11
1.06152e+11
4.93932e+10
2.70039e+10
9.97388e+09
2.68395e+09
2.30825e+08
25022.3
53234.4
33673.9
54135.7
14180.8
27469.4
2784.31
11406.9
479.491
2973.33
192.192
303.008
640.407
3155.7
580.883
2888.86
1768.15
2966.61
4639.01
1068.24
10121.8
1598.23
5546.28
3250.02
5303.25
8801.46
1209.84
17245.5
2035.47
7934.28
6312.61
12055.4
24048
7621.63
72344
53940.6
197279
293964
9804.05
237863
2143.23
1536.81
881.43
0.0944285
31.7958
13.5961
5.6578
4.59652
4.69834
9.28679e+11
7.16033e+11
6.5581e+11
6.47964e+11
6.51513e+11
6.46499e+11
6.44061e+11
5.65673e+11
4.47056e+11
2.94958e+11
1.81163e+11
9.61325e+10
5.15261e+10
3.34879e+10
1.13917e+10
2.33419e+09
344125
70560.9
1887.08
10969
1056.58
4240.88
4646.58
20.2139
10895.5
4547.43
10839.2
12303.5
7627.53
16298.5
5398.53
10024.6
7054.33
6860.26
10033.8
2445.05
14604.3
2540.33
7159.54
3784.78
4479.36
7550.83
746.812
14023.2
1303.37
4975.81
3121.33
5028.77
14143.1
9587.73
38151.3
19578.3
85984
135803
1688.6
254706
2680.87
1780.28
4757.99
0.32847
214.041
73.8033
16.8038
26.0819
19.9254
9.68069e+11
8.34272e+11
8.15534e+11
8.20369e+11
8.32565e+11
8.32533e+11
8.34051e+11
7.50826e+11
6.12999e+11
4.3684e+11
2.9277e+11
1.76654e+11
1.03861e+11
4.74464e+10
3.91372e+10
9.8123e+09
9.50452e+08
6.66375e+07
9867.06
51980.4
42931.7
54907.7
15846.2
32025.7
1027.96
11947.7
1447.96
4068.52
1794.97
1570.42
1451.66
1676.92
2037.5
1851.8
2310.69
2479.45
2099.44
2063.65
2486.13
3385.22
2074.35
3203.61
4165.62
2226.97
5571.43
3720.02
8703.19
2056
4254.13
25235.1
1337.93
3358.79
10282.6
11078.8
18628.8
139956
18084.7
8771.07
205.823
16.783
65.3267
30.3598
17.2434
38.812
9.58896
1.06349e+12
9.99769e+11
1.01841e+12
1.03507e+12
1.05563e+12
1.06033e+12
1.06598e+12
9.78965e+11
8.20903e+11
6.21127e+11
4.46257e+11
2.96082e+11
1.89906e+11
9.50464e+10
5.08829e+10
2.44234e+10
6.09728e+09
2.60866e+09
105752
6970.76
417.317
24704.5
10155.9
46331
28316.4
83716.9
48011.6
131023
63865.6
144384
110470
129193
134364
111221
154034
101766
162538
107749
141513
128249
112152
141179
114009
165184
121064
150591
161065
119587
190245
178809
151655
155358
109050
131668
195008
48062.1
98476.1
97.0004
4032.35
1.32522
0.0270948
0.0288409
0.711761
0.639884
309220
1.2234e+12
1.22122e+12
1.26505e+12
1.29736e+12
1.3271e+12
1.33577e+12
1.34541e+12
1.255e+12
1.07571e+12
8.51885e+11
6.45701e+11
4.59644e+11
3.15805e+11
1.80426e+11
9.36229e+10
6.2811e+10
1.43696e+10
7.13516e+09
5.86363e+08
739460
137574
3538.21
10754.5
132.808
12023.7
3310.78
18472
11650.9
23677.2
21385.1
11564.5
11192.9
7616.49
4922.8
5161.49
1741.97
3557.99
2269.99
1750.63
1889.33
1185.7
1579.62
2770.96
1480.21
1890.72
3040.95
3122.77
3124.48
2860.75
13468.2
1498.93
2750.77
1953.15
668.315
21933.2
32890.2
8006.06
1213.9
6.61785
0.455179
786.341
1401.62
183.944
148.482
7.08621
1.45394e+12
1.50387e+12
1.56428e+12
1.61417e+12
1.65459e+12
1.66638e+12
1.67978e+12
1.58617e+12
1.38466e+12
1.13637e+12
8.98348e+11
6.75231e+11
4.90388e+11
3.11552e+11
1.77848e+11
8.09672e+10
5.42202e+10
1.96624e+10
7.77694e+09
2.30636e+09
9.41964e+06
16172.9
13977.2
60591.2
22608.3
50255
7905.58
26247.2
35.3256
672.999
2655.36
122.087
321.555
304.463
195.112
498.986
3756.24
683.235
3413.35
2528.41
3398.84
5696.25
1831.02
10449
2880.72
4979.34
5324.24
4006.42
10162.9
1788.04
11065.7
5588.51
5975.07
16082.1
1664.67
87781.4
28827.1
32354.1
119.738
59.3449
89.7026
349.442
249.855
58.8322
38.1186
1.76414e+12
1.84901e+12
1.92947e+12
1.99461e+12
2.04647e+12
2.06079e+12
2.07753e+12
1.98049e+12
1.75574e+12
1.48236e+12
1.21178e+12
9.50443e+11
7.218e+11
4.97205e+11
3.12173e+11
1.55886e+11
7.39251e+10
3.58552e+10
2.1079e+10
1.00808e+10
2.67714e+09
2.78676e+08
100758
4849.69
1750.11
4979.89
611.527
2407.72
2090.06
2491.14
239.514
9973.39
4075.75
14805
11429.6
12129.2
24458.3
9139.13
17466.9
10981.4
11177.7
15836.5
4910.01
20823.2
6643.75
11231.6
9489.69
6472.93
16942.7
1390.53
17391.1
7007.85
7088.76
18575.3
1452.95
69843.9
29610.8
11424.6
2.05697
13.8918
33.1877
828.126
264.89
480.734
84.0573
2.16606e+12
2.26822e+12
2.36887e+12
2.44752e+12
2.51074e+12
2.52725e+12
2.54629e+12
2.44481e+12
2.19593e+12
1.89637e+12
1.59269e+12
1.29187e+12
1.01771e+12
7.45574e+11
5.07671e+11
2.94522e+11
1.55775e+11
8.74979e+10
5.8995e+10
3.91144e+10
1.47003e+10
5.34054e+09
3.77238e+08
30282
11431.4
64535.2
37280.9
77219.5
8027.09
28224.7
21837.8
5695.9
10860.3
300.009
3829.4
4119.48
1162.02
853.092
1856.48
814.581
2813.03
1247.94
3267.66
3583.96
1885.14
3779.4
1474.02
5671.27
2648.24
2278.99
6748.47
1532.2
6212.55
2692.29
3616.85
22949.3
22874
47279.2
484.771
49.7753
608.387
850.425
59.1708
4.48626
4.11803
2.66417e+12
2.77704e+12
2.89266e+12
2.98338e+12
3.05736e+12
3.07606e+12
3.09582e+12
2.98817e+12
2.71423e+12
2.38759e+12
2.04999e+12
1.70903e+12
1.38767e+12
1.06681e+12
7.74675e+11
5.05961e+11
3.08287e+11
1.93154e+11
9.44776e+10
7.07167e+10
3.63209e+10
2.13477e+10
4.67538e+09
1.37379e+09
39466.4
884.089
784.607
2282.69
495.511
6446.09
17354.7
14790.3
30840.7
28227.9
54877.4
36179.6
83470.7
69214.5
86434.7
84217.7
78876.8
100762
74552.8
100372
78764.7
89544.4
90370.3
76417.9
108833
85564.5
95863.9
94297.6
91012.3
114413
103609
92250.4
46627.1
49823.1
13.6534
38012
0.657096
0.155445
7.4128
0.0266187
0.342866
3.25602e+12
3.38731e+12
3.51605e+12
3.61767e+12
3.70057e+12
3.72164e+12
3.73908e+12
3.62231e+12
3.32214e+12
2.96624e+12
2.59348e+12
2.21045e+12
1.84025e+12
1.46863e+12
1.12097e+12
7.96433e+11
5.36706e+11
3.63554e+11
2.01779e+11
1.17097e+11
7.30248e+10
4.96457e+10
1.07042e+10
7.97175e+09
8.93519e+08
939263
14033.9
8632.1
4737.68
3349.15
121.593
6547
360.444
9920.97
3900.44
14168.3
24307.7
15834.2
28235.6
19832
25907.2
22479.4
16578.5
23697.4
13940.9
13206.4
11651.7
7697.95
12253.5
3996.56
9359
5864.68
3738.2
6322.85
1837.33
8682.84
12379.8
3670.57
2336.8
247.522
0.906323
30.2028
901
2210.3
284.557
3.95658e+12
4.10767e+12
4.24716e+12
4.36103e+12
4.44925e+12
4.47324e+12
4.48447e+12
4.35491e+12
4.02723e+12
3.64076e+12
3.23181e+12
2.80564e+12
2.38573e+12
1.96179e+12
1.55805e+12
1.1763e+12
8.54443e+11
6.15571e+11
3.90941e+11
2.4011e+11
1.24783e+11
6.85695e+10
5.93335e+10
2.56958e+10
1.13528e+10
3.47267e+09
4.71881e+08
35212.6
4744.53
43721.8
57606.6
28642.8
49860
15881.9
34430.1
632.799
4213.1
4493.57
292.438
461.315
3017.76
893.916
4107.33
7448.2
2749.42
6206.87
4624.12
5459.11
6933.98
4176.57
9248.99
5740.76
7814.84
8445.5
5538.35
13589.1
13231.9
16538.5
12050.6
73.0454
384.807
341.806
791.748
1353.79
169.615
4.79038e+12
4.95189e+12
5.1007e+12
5.22657e+12
5.31723e+12
5.3439e+12
5.34545e+12
5.1978e+12
4.84123e+12
4.42322e+12
3.97668e+12
3.50699e+12
3.03615e+12
2.55936e+12
2.09801e+12
1.6585e+12
1.27281e+12
9.63465e+11
6.72078e+11
4.51625e+11
2.68709e+11
1.57337e+11
8.62806e+10
9.50248e+10
3.58608e+10
2.00886e+10
6.59461e+09
1.52536e+09
74377
4184.04
373.366
1461.37
3112.94
152.848
6165.26
383.001
10618.2
15096.7
18417.4
27375.6
25624.4
43942.9
30736.1
65153.9
54261.9
62368.6
69085.5
61076.4
84689.8
71045.9
76317.3
80495.4
77551.2
92212.4
90024.7
83908.8
73694.7
57319.8
44939.8
197.525
8.54459
5.48859
1.51291
3.46814
63.0698
5.77319e+12
5.94427e+12
6.1019e+12
6.23664e+12
6.32694e+12
6.35522e+12
6.34313e+12
6.16945e+12
5.78276e+12
5.33048e+12
4.84471e+12
4.32877e+12
3.80593e+12
3.27341e+12
2.75328e+12
2.25264e+12
1.80061e+12
1.41814e+12
1.05765e+12
7.64491e+11
5.09726e+11
3.32091e+11
1.84056e+11
1.15858e+11
7.99665e+10
4.9011e+10
1.66253e+10
7.3336e+09
1.90077e+09
71255.7
30465.8
30343.9
2487.29
3305.79
84.8377
244.402
3951.89
660.025
7349.59
884.688
10316.5
6583.67
15818
22344.7
17005.9
21565.3
16945.7
18254.5
15374.4
11411.3
11203.1
8599.29
4854.08
6287.11
2107.99
5373.45
5874.41
4807.9
5318.31
1.89702
0.22659
32.0003
10.2605
47.3701
33.7777
6.91244e+12
7.09428e+12
7.26173e+12
7.40018e+12
7.48751e+12
7.5161e+12
7.48565e+12
7.27685e+12
6.85862e+12
6.37075e+12
5.8441e+12
5.28083e+12
4.70511e+12
4.11544e+12
3.53539e+12
2.97085e+12
2.45179e+12
1.99441e+12
1.5635e+12
1.19509e+12
8.67119e+11
6.14144e+11
3.91221e+11
2.43569e+11
1.40441e+11
7.61454e+10
4.92892e+10
2.95266e+10
8.79452e+09
7.15921e+09
2.00844e+09
426245
72276.5
2470.17
18329.5
16136.1
33263.3
42595.5
17149.4
35244.4
9547.8
26436.5
1187.31
3591.17
6578.16
157.165
1921.86
58.6749
254.042
344.784
961.907
183.586
734.801
1422.45
303.382
4486.56
2795.65
5170.84
14196.6
341.047
16881.2
280.112
540.693
509.454
892.905
8.22983e+12
8.42318e+12
8.59854e+12
8.73536e+12
8.8175e+12
8.84381e+12
8.78993e+12
8.53624e+12
8.08469e+12
7.5602e+12
6.99033e+12
6.37928e+12
5.74904e+12
5.10178e+12
4.45955e+12
3.83022e+12
3.2432e+12
2.70931e+12
2.20567e+12
1.75958e+12
1.35529e+12
1.02106e+12
7.19259e+11
4.92723e+11
3.19486e+11
1.99139e+11
1.01842e+11
5.98425e+10
6.23328e+10
1.97873e+10
1.18702e+10
4.83432e+09
1.38855e+09
62558.9
38368.6
4266.93
1677.7
1147.57
1301.4
1689.03
637.476
2004.75
901.112
14.7407
301.531
532.334
23.7464
2004.99
839.929
3856.61
8492.54
4631.16
10371.5
10528.8
7219.56
18409.6
9513.78
14650
25741.7
2268.4
7090.87
1.94483
4.48843
36.5244
121.229
9.74866e+12
9.9514e+12
1.01293e+13
1.02601e+13
1.03341e+13
1.03542e+13
1.02708e+13
9.96153e+12
9.47557e+12
8.91262e+12
8.29809e+12
7.6374e+12
6.95195e+12
6.24525e+12
5.53995e+12
4.84295e+12
4.18606e+12
3.57551e+12
2.99644e+12
2.47113e+12
1.98781e+12
1.56925e+12
1.18757e+12
8.7976e+11
6.28815e+11
4.40514e+11
2.76392e+11
1.77105e+11
9.20784e+10
7.31165e+10
4.73067e+10
1.72136e+10
1.24414e+10
6.19772e+09
2.19931e+09
1.90592e+07
15539.9
12433.3
30267.6
40677.1
32984
51534
19262.5
37078
35100.2
20635.2
31463.3
6972.07
22058.1
97.0317
1668.67
2518.03
948.877
728.843
4671.32
2900.51
1014.64
7354.66
3346.41
10860.7
11766.9
5741.92
21563.7
546.882
267.124
1.14941e+13
1.16991e+13
1.18728e+13
1.19938e+13
1.20568e+13
1.20637e+13
1.19439e+13
1.15694e+13
1.10476e+13
1.04443e+13
9.78311e+12
9.0716e+12
8.32963e+12
7.56267e+12
6.79263e+12
6.02712e+12
5.29863e+12
4.61082e+12
3.95428e+12
3.34797e+12
2.78305e+12
2.27769e+12
1.81401e+12
1.42165e+12
1.08852e+12
8.21184e+11
5.8321e+11
4.09631e+11
2.44267e+11
1.26694e+11
8.1542e+10
1.01504e+11
5.00513e+10
1.93304e+10
1.73067e+10
8.1365e+09
3.70541e+08
34734.9
1240.52
248.737
1629.62
74.5379
378.634
168.676
1513.21
84.1132
2035.68
347.674
4305.4
658.706
7627.85
11114
12984
23181.4
17863.4
37065.6
36774.8
44706.5
52985.4
34428
43269.8
16139.7
339.527
8.48885
24.5685
1.35143e+13
1.37133e+13
1.38763e+13
1.39827e+13
1.40319e+13
1.40123e+13
1.38473e+13
1.34014e+13
1.28407e+13
1.21929e+13
1.14815e+13
1.07156e+13
9.91398e+12
9.08352e+12
8.24534e+12
7.40809e+12
6.60612e+12
5.83798e+12
5.10083e+12
4.41017e+12
3.75973e+12
3.16462e+12
2.61491e+12
2.1342e+12
1.71371e+12
1.35937e+12
1.04061e+12
7.81574e+11
5.34898e+11
3.33257e+11
2.21201e+11
1.29822e+11
8.19682e+10
8.14635e+10
4.10189e+10
2.43155e+10
8.84e+09
3.10332e+09
389497
71104
10173.1
411.961
3866.11
1865.4
0.0642018
2379.27
35.235
1758.59
67.3833
2278.9
1644.88
177.004
3216.68
1220.11
3804.38
8474.83
5020.32
10845.8
10793.6
12526.3
21999.4
16339.4
8798.89
1508.22
26.383
1.58104e+13
1.59979e+13
1.61438e+13
1.62315e+13
1.6263e+13
1.61983e+13
1.59744e+13
1.54615e+13
1.4857e+13
1.41613e+13
1.33976e+13
1.25749e+13
1.17123e+13
1.08161e+13
9.90875e+12
8.99653e+12
8.11863e+12
7.26987e+12
6.44957e+12
5.67287e+12
4.9342e+12
4.24739e+12
3.60829e+12
3.03594e+12
2.52368e+12
2.07705e+12
1.67081e+12
1.32063e+12
9.89306e+11
7.03247e+11
5.05438e+11
3.23055e+11
2.13175e+11
1.24348e+11
7.38681e+10
5.90705e+10
3.43828e+10
1.58317e+10
1.21876e+10
8.37362e+09
1.17214e+09
8.78481e+07
47367.5
15925.4
27138.4
24459.4
35147.8
26706.7
46467.3
15099.4
23645
32809.6
10926.5
25529.4
1852.52
5404.79
7332.47
114.427
3009.22
3382.66
1959.36
2289.13
9699.12
4277.63
254.451
1.84055e+13
1.85759e+13
1.86997e+13
1.87636e+13
1.8767e+13
1.86433e+13
1.83415e+13
1.77715e+13
1.71174e+13
1.63701e+13
1.5551e+13
1.46699e+13
1.37439e+13
1.27811e+13
1.1802e+13
1.08149e+13
9.85942e+12
8.92862e+12
8.02343e+12
7.15867e+12
6.32942e+12
5.54865e+12
4.81686e+12
4.14912e+12
3.54127e+12
2.99696e+12
2.49779e+12
2.05083e+12
1.63066e+12
1.2546e+12
9.60414e+11
6.91861e+11
4.99782e+11
3.31874e+11
2.19875e+11
1.1715e+11
1.56973e+11
8.77256e+10
4.12676e+10
1.95584e+10
1.14575e+10
8.51193e+09
1.47558e+09
55027.7
669.23
2109.83
21.5052
758.199
292.225
762.518
1677.99
335.444
546.482
420.192
845.83
436.765
1962.08
1191.31
4892.84
1200.96
8463.35
8093.9
8654.98
4355.01
352.371
2.1372e+13
2.15185e+13
2.16148e+13
2.16498e+13
2.16007e+13
2.14088e+13
2.10116e+13
2.03912e+13
1.96834e+13
1.88775e+13
1.79983e+13
1.70533e+13
1.606e+13
1.50258e+13
1.39708e+13
1.29036e+13
1.18678e+13
1.0851e+13
9.85692e+12
8.90006e+12
7.97568e+12
7.09705e+12
6.26703e+12
5.4992e+12
4.78979e+12
4.14261e+12
3.54323e+12
2.99432e+12
2.47906e+12
2.00838e+12
1.61276e+12
1.25338e+12
9.6681e+11
7.11442e+11
5.14545e+11
3.20617e+11
1.9408e+11
1.29776e+11
1.47742e+11
8.19899e+10
3.67273e+10
2.13318e+10
7.27634e+09
1.58354e+09
1.31552e+08
50753.6
44979.4
4943.8
61.3308
3514.01
1556.05
0.393251
1980.94
96.0706
2645.01
1052.97
42.4622
1237.75
5.1391
467.329
1702.77
135.825
1549.96
984.708
51.4402
2.47612e+13
2.48765e+13
2.49381e+13
2.4926e+13
2.48062e+13
2.45309e+13
2.40255e+13
2.33601e+13
2.2594e+13
2.1722e+13
2.07782e+13
1.9765e+13
1.87013e+13
1.75916e+13
1.64582e+13
1.53063e+13
1.41858e+13
1.30805e+13
1.19938e+13
1.09412e+13
9.91777e+12
8.93688e+12
8.00369e+12
7.1303e+12
6.31351e+12
5.55761e+12
4.85047e+12
4.19448e+12
3.5756e+12
3.00554e+12
2.50365e+12
2.04694e+12
1.65712e+12
1.30569e+12
1.00794e+12
7.18402e+11
4.72479e+11
3.25749e+11
2.11382e+11
1.44356e+11
8.46545e+10
4.3227e+10
4.89954e+10
1.8455e+10
2.21093e+10
1.05111e+10
8.56905e+09
1.16414e+09
1.18679e+06
44972.1
11899.9
17279.1
15477.6
27513
15777.8
15757.4
29098.5
11972.5
26089
6225.8
8614.49
15377.7
2416.02
8870.05
14.6739
2.8583e+13
2.8658e+13
2.86706e+13
2.8586e+13
2.8384e+13
2.8002e+13
2.73939e+13
2.6687e+13
2.58583e+13
2.49096e+13
2.38959e+13
2.28129e+13
2.16738e+13
2.04879e+13
1.9271e+13
1.80348e+13
1.68279e+13
1.56308e+13
1.44495e+13
1.32976e+13
1.21723e+13
1.10852e+13
1.00451e+13
9.06113e+12
8.13294e+12
7.26265e+12
6.44333e+12
5.67378e+12
4.947e+12
4.27215e+12
3.65983e+12
3.09852e+12
2.59889e+12
2.14305e+12
1.73568e+12
1.34545e+12
9.93761e+11
7.43537e+11
5.31384e+11
4.05119e+11
2.94542e+11
1.91206e+11
1.00316e+11
1.33711e+11
7.61945e+10
3.34703e+10
3.23547e+10
1.3004e+10
8.38669e+09
1.58868e+09
57741
2853.19
1635.02
231.604
836.8
2003.05
1.25671
2100.38
50.599
2388.2
833.428
1.67556
1559.81
4.33073
2493.3
3.2842e+13
3.286e+13
3.27978e+13
3.26296e+13
3.23266e+13
3.18184e+13
3.11267e+13
3.03299e+13
2.94349e+13
2.84384e+13
2.73556e+13
2.61967e+13
2.498e+13
2.3711e+13
2.24089e+13
2.10807e+13
1.97837e+13
1.84926e+13
1.72122e+13
1.5959e+13
1.47272e+13
1.35318e+13
1.23797e+13
1.12828e+13
1.02381e+13
9.25107e+12
8.3138e+12
7.42817e+12
6.58663e+12
5.80146e+12
5.07664e+12
4.40449e+12
3.79208e+12
3.2255e+12
2.70616e+12
2.21219e+12
1.75964e+12
1.4011e+12
1.09397e+12
8.78478e+11
6.90869e+11
5.09343e+11
3.20436e+11
1.84004e+11
1.22357e+11
1.34804e+11
8.27648e+10
4.53454e+10
1.77697e+10
1.15083e+10
2.79798e+09
6.7254e+08
65080.5
51864.4
24014.1
2758.95
2.58615
1921.31
186.205
920.885
1311.92
73.2743
669.953
36.2699
11.3979
3.74945e+13
3.74334e+13
3.72857e+13
3.70167e+13
3.65957e+13
3.59616e+13
3.51958e+13
3.42967e+13
3.33251e+13
3.22798e+13
3.11272e+13
2.98895e+13
2.8593e+13
2.72384e+13
2.58497e+13
2.4429e+13
2.30395e+13
2.16531e+13
2.02732e+13
1.89175e+13
1.75787e+13
1.62735e+13
1.5008e+13
1.37962e+13
1.26329e+13
1.15271e+13
1.04692e+13
9.465e+12
8.50497e+12
7.606e+12
6.76631e+12
5.97955e+12
5.25156e+12
4.57056e+12
3.93762e+12
3.33744e+12
2.78524e+12
2.31816e+12
1.91287e+12
1.5941e+12
1.31202e+12
1.03833e+12
7.57249e+11
5.04978e+11
3.52076e+11
2.16449e+11
1.48758e+11
1.07667e+11
7.45433e+10
4.01553e+10
5.24184e+10
4.05206e+10
1.68945e+10
1.97664e+10
7.34083e+09
9.78395e+08
1.37173e+06
37026.9
13217.8
8619.61
7478.66
20212.9
10038.9
16718.8
9238.95
4.25482e+13
4.23966e+13
4.21465e+13
4.17603e+13
4.12037e+13
4.0471e+13
3.96265e+13
3.86595e+13
3.76051e+13
3.64654e+13
3.52314e+13
3.39125e+13
3.25309e+13
3.10901e+13
2.96104e+13
2.80972e+13
2.66163e+13
2.51324e+13
2.36528e+13
2.21924e+13
2.07461e+13
1.93287e+13
1.79487e+13
1.66191e+13
1.53362e+13
1.41083e+13
1.29285e+13
1.18015e+13
1.07211e+13
9.70589e+12
8.74791e+12
7.84343e+12
6.9966e+12
6.19835e+12
5.44936e+12
4.74051e+12
4.08624e+12
3.50915e+12
2.99916e+12
2.56914e+12
2.18083e+12
1.80671e+12
1.43063e+12
1.07902e+12
8.19874e+11
5.8652e+11
4.55837e+11
3.72919e+11
3.02915e+11
2.16741e+11
1.19237e+11
8.87497e+10
6.86669e+10
6.43411e+10
3.21737e+10
1.85496e+10
6.90507e+09
1.67356e+09
9.55249e+07
36236.7
26097.9
26136.5
3485.65
178.332
2614.57
4.80193e+13
4.77603e+13
4.73902e+13
4.68737e+13
4.61797e+13
4.53628e+13
4.44308e+13
4.33826e+13
4.22402e+13
4.10067e+13
3.9685e+13
3.82795e+13
3.68096e+13
3.52782e+13
3.37062e+13
3.20967e+13
3.05209e+13
2.89391e+13
2.73577e+13
2.57922e+13
2.42368e+13
2.27065e+13
2.12106e+13
1.97621e+13
1.83577e+13
1.70068e+13
1.57022e+13
1.44514e+13
1.3246e+13
1.21112e+13
1.10327e+13
1.00076e+13
9.03951e+12
8.12129e+12
7.25446e+12
6.43254e+12
5.67189e+12
4.98323e+12
4.36278e+12
3.81673e+12
3.31577e+12
2.83635e+12
2.36364e+12
1.91961e+12
1.55592e+12
1.23809e+12
1.02406e+12
8.70691e+11
7.38716e+11
5.90905e+11
4.17395e+11
3.09526e+11
2.05929e+11
1.3676e+11
9.53798e+10
5.09209e+10
3.2099e+10
5.00451e+10
3.53683e+10
1.67965e+10
9.7278e+09
9.68394e+09
1.54266e+09
1.85578e+08
26749.8
5.39181e+13
5.35341e+13
5.30288e+13
5.23654e+13
5.15649e+13
5.06519e+13
4.96242e+13
4.84853e+13
4.7248e+13