/*--------------------------------*- C++ -*----------------------------------*\
| =========                 |                                                 |
| \\      /  F ield         | OpenFOAM: The Open Source CFD Toolbox           |
|  \\    /   O peration     | Version:  v2012                                 |
|   \\  /    A nd           | Website:  www.openfoam.com                      |
|    \\/     M anipulation  |                                                 |
\*---------------------------------------------------------------------------*/
FoamFile
{
    version     2.0;
    format      ascii;
    class       volScalarField;
    location    "1e-06";
    object      totalP;
}
// * * * * * * * * * * * * * * * * * * * * * * * * * * * * * * * * * * * * * //

dimensions      [1 -1 -2 0 0 0 0];


internalField   nonuniform List<scalar> 
10302
(
-14707.8
-13462.8
-13315
-12916.7
-13103.7
-12179.7
-12045
-7071.39
-5193.92
-778.072
-143.538
-1011.28
-1387.08
-1796.3
-1931.06
-1641.94
-2172.62
-2376.2
-2237.96
-1943.86
-2119.2
-1976.81
-2067.14
-2044.77
-2046.79
-2026.83
-1936.28
-1815.92
-1253.93
-2213.78
-2449.49
-1070.65
-1026.77
-2161.98
-1830.11
-1734.91
-1993.31
-2146.27
-1018.79
-722.79
-1823.61
-1583.51
-1650.18
-2019.94
-2118.16
-2155.96
-2083.96
-1901.4
-1718.19
-1347.25
-1348.22
-1180.42
-727.298
-95.6733
2013.52
2013.58
2012.75
1943.9
2007.61
1949.34
2049.31
1965.81
2413.46
2014.37
2071.85
8519.77
8610.75
9232.67
7565.33
7656.78
4890.78
4728.31
2190.95
3102.56
2268.29
2848.54
552.431
294.834
-743.012
-812.964
-555.408
-1568.29
-1601.75
-1825.09
-1620.21
-1860.44
-1752.25
-1907.85
-1892.89
-1955.31
-1935.54
-1890.51
-1767.98
-1212.58
-2037.88
-2275.91
-1527.78
-1480.9
-2035.19
-2041.76
-1741.39
-2035.32
-2034.62
-1465.28
-1274.26
-1760.57
-1811.46
-1649.48
-2020.1
-2117.49
-2155.56
-2083.52
-1900.91
-1717.41
-1345.79
-1350.36
-1184.44
-744.878
-113.27
1935.95
2002.42
1976.73
1919.65
1975.78
1965.63
2070.85
1992.58
2429.91
2036.66
2076.68
24742.6
24359.5
24984.9
22886.1
23022.7
18606.6
18273.1
10410.2
11378.3
6637.83
6986.62
3211.45
2995.43
1014.32
1046.99
888.372
-465.496
-823.748
-1045.84
-938.987
-1307.17
-1248.2
-1530.77
-1532.63
-1715.33
-1694.64
-1752.72
-1617.31
-1132.22
-1979.75
-2219.04
-1567.88
-1538.29
-2028.95
-2035.63
-1727.69
-2046.77
-2039.76
-1504.4
-1322.86
-1763.58
-1816.08
-1649.17
-2018.1
-2116.26
-2156.02
-2083.38
-1900.37
-1716.72
-1343.15
-1350.22
-1183.2
-743.406
-127.74
1795.78
2003.44
2003.62
1948.75
2009.11
2009.23
2113.98
2041.25
2453.12
2064.52
2088.78
32280.6
31800.2
32626.9
31063.7
31222.3
26053.5
25084.2
19927.4
15675.2
8354.95
8074.74
4202.23
3515.98
1775.86
1343.44
1002.39
-346.82
-412.441
-945.171
-731.063
-1237.04
-1152.87
-1470.24
-1484.19
-1652.21
-1670.22
-1688.18
-1602.78
-1095.38
-1962.75
-2191.59
-1577.45
-1541.1
-2024.95
-2035.74
-1718.71
-2045.6
-2035.02
-1506.71
-1325.4
-1761.11
-1816.53
-1646.12
-2015.69
-2114.7
-2155.64
-2082.67
-1899.9
-1716.18
-1339.62
-1352.03
-1182.88
-755.056
-151.056
1724.65
2003.3
2003.51
1947.06
2004.59
2024.21
2112.85
2051.85
2447.68
2067.31
2088.5
37770.3
37465.4
38341.3
37668.9
38339.3
34402.5
33056.4
24604.7
21969.1
12505.9
12034.3
7057.98
6438.42
3813.13
3440.04
2639.72
954.55
821.647
45.7643
152.79
-508.64
-475.573
-938.577
-972.34
-1281.74
-1306.87
-1447.93
-1365.71
-918.458
-1824.19
-2066.24
-1572.39
-1525.8
-1978.08
-1991.64
-1682.57
-2027.57
-2018.16
-1557.72
-1373.98
-1756.14
-1815.25
-1643.27
-2014.37
-2113.11
-2156.9
-2083.08
-1900.27
-1716.44
-1335.04
-1353.77
-1182.25
-758.621
-187.662
1429.53
2003.75
2004.91
1939.87
1997
2054.08
2127.66
2078.81
2464.91
2103.56
2112.42
41899.2
41909.9
42832.7
42618.7
43447.5
41951.7
41751
31235.8
29534.1
18104.5
17547.1
10834.2
10381.3
6442.3
6278.96
4527.58
2763.33
2222.25
1430.18
1328.46
547.443
485.517
-140.019
-196.166
-704.77
-711.215
-1056.52
-936.882
-644.378
-1568.2
-1845.51
-1442.59
-1387.77
-1875.38
-1883.11
-1608.64
-1976.06
-1976.79
-1556.83
-1373.25
-1741.97
-1803.29
-1631.2
-2007.24
-2110.49
-2155.82
-2081.09
-1900.58
-1716.56
-1329.07
-1356.64
-1182.72
-765.275
-201.642
1305.01
1897.56
2005.03
1974.12
2022.44
2091.62
2147.72
2105.98
2458.98
2118.04
2115.84
43203.3
43271
44340.9
43952.2
45017.5
43523.3
43779.8
34323.7
32038.6
20369
19016.6
12158.5
11157.8
7417.36
6726.37
5031.64
2977.46
2785.68
1616.66
1680.26
694.706
681.784
1.04286
-81.806
-549.572
-644.842
-904.679
-892.805
-558.7
-1527.1
-1770.41
-1464.69
-1397.05
-1847.38
-1868.8
-1563.73
-1969.04
-1958.37
-1581.05
-1394.95
-1736.32
-1800.28
-1621.34
-2002.65
-2106.91
-2155.03
-2079.24
-1900.2
-1715.5
-1322.01
-1360.11
-1182.74
-775.267
-223.009
1181.32
1800.32
1979.99
1979.51
2018.81
2098.03
2138.61
2110.7
2440.19
2123.4
2115.92
46117.5
46298
47332.7
46977.5
48413.6
47259.9
48209.1
39895.6
37090.8
25222.7
24023.5
15878.1
14996.7
10233.2
9637.19
7500.36
4940.93
4686.87
3210.02
3059.58
1944.44
1833.58
992.442
889.826
218.163
145.882
-317.752
-280.777
-33.9469
-1127.37
-1419.56
-1240.08
-1169.02
-1659.84
-1672.38
-1411.35
-1865.6
-1873.63
-1552.27
-1367.42
-1704.62
-1769.37
-1591.61
-1988.31
-2096.53
-2153.95
-2075
-1899.86
-1715.06
-1313.38
-1364.47
-1183.41
-785.927
-244.863
1072.08
1692.2
1913.29
1969.93
2014.17
2106.85
2140.6
2123.04
2433.2
2150.02
2134.38
47417
47470.4
48521.4
48102
49701.6
48696.8
49990.4
47117.4
44235.1
27836.1
25392.9
17348.2
15746.7
11366.2
10131.5
8209.36
5238.66
5223.7
3467.69
3521.49
2173
2129.54
1216.22
1081.69
463.742
271.089
-71.1732
-195.585
144.763
-1044.63
-1281.68
-1233.29
-1150
-1596.17
-1634.3
-1320.96
-1843.87
-1832.06
-1571.93
-1382.03
-1691.69
-1759.01
-1562.5
-1979.07
-2087.91
-2151.76
-2071.24
-1898.43
-1712.83
-1303.54
-1368.48
-1186.46
-799.012
-268.94
967.151
1584.26
1830.93
1953.7
1988.9
2100.85
2125.48
2116.87
2403.45
2152.83
2140.8
49935.3
50030
51130.8
50604.6
52475.5
51701.5
53532
49272.7
47372.8
32348.3
29899
20896.7
19495.3
14132.8
13130.6
10397.8
7359.02
7138.19
5235.16
5093.6
3624.18
3488.19
2411.18
2269.65
1431.95
1287.4
694.489
641.242
802.003
-444.801
-738.601
-850.522
-772.421
-1281.54
-1302.48
-1072.7
-1651.38
-1670.3
-1489.85
-1304.59
-1624.36
-1688.45
-1501.99
-1948.6
-2062.49
-2143.62
-2061.16
-1899.85
-1713.42
-1291.66
-1373.44
-1188.02
-815.301
-296.148
865.759
1460.06
1735.08
1916.38
1951.17
2096.89
2108.65
2110.56
2385.97
2177.93
2163.61
52792.9
52828.2
53789.1
53561.5
55617.3
54773.9
57242.8
53379.8
52358.7
39270.4
37163.5
26670.6
25749.3
18379.4
17877.6
13478
10467.6
9506.77
7697.42
7138.22
5617.18
5297.25
4040.47
3889.5
2757.58
2722.19
1750.26
1882.81
1665.2
497.93
74.6012
-185.825
-124.623
-747.069
-707.433
-644.337
-1252.59
-1371.27
-1268.23
-1102.56
-1464.68
-1508.52
-1374.56
-1854.34
-1993.63
-2100.44
-2017.83
-1883.69
-1692.32
-1276.81
-1375.44
-1187.97
-831.203
-320.531
780.546
1365.75
1674.35
1950.41
1987.21
2117.16
2125.45
2126.78
2364.88
2197.68
2185.93
53724.8
53567.6
54840.3
54758.9
56717
55799
58452.4
54921.3
54747.5
43075.9
39728.1
29071.3
27472.6
20009.9
18912.6
14540.8
11061.9
10442.8
8189.79
7840.88
6048.34
5793.08
4441.45
4242.39
3161.68
2979.9
2151.59
2069.04
2038.54
696.064
373.921
-54.407
1.9368
-571.895
-589.523
-440.971
-1170.36
-1240.04
-1248.18
-1077
-1411.88
-1463.98
-1295.61
-1822.36
-1956.7
-2084.49
-2001.79
-1875.25
-1685.3
-1261.17
-1379.54
-1193.94
-851.521
-348.863
698.52
1251.76
1594.31
1970.54
1999.57
2126.93
2117.04
2119.34
2320.25
2183.24
2194.03
55638
55610.2
57149.5
57079.8
59031.5
58253.4
61237.6
58275.6
59478
49694.9
46215.8
34917.3
33679.1
24772.1
24067.7
18247.3
14424.7
13231.4
10850.6
10132.9
8212.92
7791.28
6239.62
6040.16
4671.96
4603.25
3430.23
3513.52
3124.97
1856.24
1411.19
852.954
886.245
180.1
235.802
212.347
-552.049
-747.427
-849.146
-711.665
-1117
-1136.06
-1045.22
-1627.99
-1808.96
-1979.19
-1900.24
-1825.89
-1628.72
-1222.93
-1371.43
-1190.92
-872.572
-375.055
631.075
1139.74
1519.73
1980.92
1996.96
2125.57
2117.73
2121.16
2291.65
2187.28
2227.11
56455.1
56666.4
58153.7
58138.3
60034.6
59245.8
62320.5
59614.5
61534.7
53139.1
49149.8
37748.7
35572
26701.8
25359.2
19396.3
15195.5
14260.7
11519.7
10995.2
8815.47
8447.35
6793.97
6534.09
5206.39
4986.22
3936.82
3807.56
3563.11
2156.89
1824.5
1118.79
1132.06
467.131
443.578
509.927
-392.181
-520.763
-756.52
-619.642
-1003.82
-1043.28
-909.264
-1560.66
-1730.29
-1934.68
-1860.32
-1797.56
-1609.1
-1191.39
-1372.19
-1196.78
-897.102
-406.169
559.422
997.048
1446.15
1991.05
1988.04
2107.07
2099.62
2103.95
2230.72
2164.56
2236.29
58627.5
58956.7
60339.6
60192.4
62001.6
61490.9
64616
62571.1
65558.2
58696.3
56339
44506.3
42379.6
32481.5
31616.9
24129
19387
17755.9
14755.5
13777.5
11408.1
10833.1
8936.91
8668.96
7013.56
6928.05
5484.35
5563.21
4883.34
3593.51
3113.59
2330.28
2310.25
1493.12
1563.18
1402.16
519.964
225.334
-84.9242
-0.536503
-484.287
-470.247
-458.456
-1173.4
-1426.26
-1693.25
-1630.37
-1661.36
-1456.1
-1094.11
-1328.91
-1168.55
-910.56
-426.251
521.391
890.563
1397.43
1993.25
1960.31
2092.92
2094.24
2101.24
2214.59
2178.25
2267.83
59674.2
59919
61391.6
61424.9
63034.1
62677.9
65522.6
63717.5
67066.1
60914.9
59820.4
48550.2
44874.5
35137.7
33315.2
25659.3
20448.4
19018.4
15644.4
14861.4
12195.6
11666
9638.53
9300.49
7664.34
7415.44
6102.44
5939.6
5422.41
3978.81
3619.74
2722.1
2669.79
1891.89
1854.36
1809.94
767.467
566.606
110.857
187.05
-281.376
-311.722
-213.114
-1043.16
-1270.32
-1591.96
-1543.88
-1590.09
-1410.79
-1022.14
-1318.87
-1169.25
-936.326
-461.163
471.546
765.183
1341.52
1994.91
1926.04
2094.57
2077.59
2084.59
2178.56
2159.98
2273.7
61630
61909.5
63332.9
63248.8
64992.1
64805.2
67614.1
66224.4
70175.3
65190.1
66278.6
57921
52526.7
41930.4
41014.3
31795
26283.3
23717
19950.3
18449.7
15423.5
14590.2
12177.3
11818
9741.99
9661.78
7837.6
7967.6
6883.5
5634.68
5092.18
4182.14
4092.22
3148.14
3228.97
2870.76
1950.04
1540.6
1071.1
1079.58
495.009
546.304
451.684
-388.154
-736.053
-1126.61
-1098.06
-1295.73
-1076.44
-801.552
-1181.91
-1067.21
-914.273
-443.752
438.522
691.936
1336.73
2021.16
1914.97
2096.53
2082.04
2090.52
2185.99
2180.34
2299.45
62495.3
62816.7
64080.4
64196.2
65935.2
65903.4
68447.5
67258.2
71528.8
67424.2
69064.1
63875.4
62244.7
46676.5
43904.3
35348
28621.6
26154.7
21612.2
20216.3
16645.4
15827.8
13161
12710.1
10596.5
10328.7
8658.38
8483.83
7646.86
6134.27
5724.91
4711.94
4588.47
3688.79
3633
3462.85
2324.74
2045.33
1423.47
1420.17
845.561
823.525
889.976
-129.104
-422.223
-894.333
-893.385
-1112.25
-946.365
-625.469
-1115.39
-1024.78
-912.19
-460.374
429.363
650.295
1346.35
2018.91
1921.14
2103.59
2148.06
2144.88
2221.94
2240.43
2309.72
63274.3
63655.4
64850.7
64983.8
66712.4
66753.1
68965.7
69371.8
72226.8
68291.2
70591.9
66694.2
67666.7
49025.1
45314
37198.6
28964.1
27486.6
21907.6
20964.3
16941.6
16265.5
13506.9
12971.5
10991.8
10485.3
9035.31
8582.05
7880.71
6289.61
6042.98
4991.29
4840.33
4034.99
3824.7
3744.62
2490.08
2355.62
1639.62
1634.99
1101.67
984.425
1142.51
11.6614
-193.895
-724.929
-752.413
-962.126
-881.019
-495.704
-1092.67
-1018.71
-937.516
-524.712
384.578
511.354
1284.18
1993.32
1693.32
2065.16
2041.11
2045.44
2149.47
2150.57
2296.59
65281.1
65756.6
66743.7
66974.5
68495.5
68783.7
70824.4
70534.4
74342.2
71476.8
74559.2
72150.3
74824.4
59196.4
53372.1
45644
36817.4
34620.1
28019.6
26338
21290.4
20215.8
16648.2
16010.2
13421.3
12981.2
11111.3
10748.2
9699.48
8082.8
7716.87
6625.35
6438.05
5504.52
5369.17
5117.33
3916.09
3655.16
2912.37
2840.18
2199.83
2139.02
2174.14
1023.7
727.602
108.503
56.2409
-322.477
-221.858
47.1804
-706.808
-697.905
-758.891
-367.842
487.16
512.265
1354.24
2020.87
1622.99
2066.73
2001.91
2009
2128.75
2125.72
2309.87
66124.9
66472.3
67600.1
67977.9
69294.7
69761
71626.7
71358.5
75000.3
72538.1
75920
73658
76800.7
63454.3
58598.6
48828.8
39240.6
37018.3
29798.5
28126.4
22525
21381.3
17497.2
16725
14060.6
13426.8
11589.8
11046.8
10027.6
8393
8121.22
7019.47
6813.56
5923.57
5689.92
5437.68
4215.26
4043.82
3273.95
3199.14
2575.51
2442.5
2491.99
1310.03
1084.73
433.567
355.754
-46.0305
-22.6638
280.858
-575.958
-595.91
-714.474
-379.95
504.998
463.002
1369.89
1926.67
1525.57
2058.96
1949.58
1949.25
2081.59
2078.34
2279.83
68008.1
68215.6
69293.2
69634.7
70970.5
71595.6
73338.9
73319.6
76771.1
74908.3
78529.8
77192.9
80501.1
70296
68280
62204.9
49334.2
46334.2
38871.1
36511.6
29770.8
28002.1
22722.6
21679.1
17810.9
17184.6
14466.8
14029.5
12372.4
10565.9
10137.4
8919.66
8677.32
7627.52
7471.43
7011.04
5846.92
5547.61
4766.35
4634.86
3919.55
3849.26
3752.29
2604.44
2282.55
1580.68
1487.48
925.008
995.723
1141.08
139.437
37.6822
-263.677
44.3471
820.545
624.183
1586.08
2042.72
1826.39
2054.09
1937.67
1908.95
2046.96
2035.13
2268.6
68711.2
69094.1
70132.3
70427.1
71766.7
72540.1
74140.7
74286.4
77401.4
75929.5
79292
78212
81239.2
73192.1
71661.7
69300.3
52580.7
50197.2
41751.6
39455.5
32165.9
30281.9
24433.9
23211.4
18927.5
18156.1
15214.7
14661.6
12920.4
11090
10731.5
9455.99
9200.72
8139.53
7899.5
7421.61
6233.17
6024.61
5203.01
5080.4
4364.92
4223.12
4139.16
2972.69
2737.36
2004.45
1892.79
1319.63
1298.29
1491.26
395.352
272.24
-102.36
116.275
919.072
622.086
1663.87
2083.59
2009.04
2059.64
1857.03
1824.48
1986
1967.09
2226
70077.8
70596.5
71724.1
71900.1
73238.7
74073.7
75651
75960.2
78871.3
77851.9
81132.5
80315
83255.1
77328.1
77610.5
77378.8
67049.6
76909.3
51848.6
48959.7
42105.7
39735.7
33007.1
31461.7
25512.8
24811
20055.5
19826
16517.4
14297.4
13539
11977.7
11640.3
10220.3
10121.5
9191.35
8127.16
7678.71
6897.08
6707.67
5879.39
5850.2
5493.11
4488.67
4102.04
3390.86
3282.3
2537.12
2649.72
2576
1468.78
1262.53
699.794
948.848
1512.51
1117.43
2159.67
2463.29
2574.28
2270.35
2039.71
1869.66
1968.85
1927.28
2195.25
70840.2
71462.8
72590.6
72743.7
73988.3
74956.5
76420.7
76871.4
79468.3
78862.7
81796.2
81218.1
83517.2
79415.8
79269.3
81130.1
73112.8
83284
55478.7
53777.7
46092.9
43939.9
36678.2
34917
28427.5
27350.2
22110.3
21566.6
17847.8
15471.1
14760.5
12945.9
12588.5
11071.2
10846.7
9985.32
8746.43
8427.94
7513.15
7339.31
6504.4
6363.16
6180.7
5012.05
4749.89
3969.51
3838.63
3157.21
3112.74
3174.12
1941.55
1731.63
1129.52
1241.84
1894.62
1288.84
2337.32
2765.61
2729.35
2259.91
2095.68
2079.62
2086.65
2094.43
2207.07
71560.4
72279.3
73122.3
73478.5
74684.3
75693.3
77108.6
77613
79953.5
79606.2
82226.2
81742
83646.6
80281.8
80680.4
82294.5
75683.1
82827.3
69557.4
56952
48341.6
45893
38523.2
36436.3
30032.6
28309
23303.5
22002.2
18601.1
15664.8
15139.3
13210.6
12821.9
11361
10978.7
10186.9
8824.7
8635.96
7703.36
7544.68
6758.94
6532.07
6332.7
5176.77
5014.14
4258.9
4105.54
3482.51
3322.73
3416.19
2198.39
2000.14
1403.67
1395.74
2002.75
1293.1
2311.12
2644.18
2832.16
2469.66
1939.8
1643.3
1852.48
1775.3
2062.87
72907.2
73754.7
74238.1
74834.3
75982.9
77045.9
78405.7
79017.1
81173.9
81184.2
83595.6
83436.4
85210.1
82859.3
83581.2
85775.9
82013.6
88159.1
82499.6
71923
65973.1
56294.4
49603.4
47485.3
40636.6
38714.9
32325
30778
25640.3
21366.2
20251.8
17360.9
16726.4
14481.7
14098.7
12707.1
11159.4
10771.3
9683.23
9450.35
8505.69
8324.49
7944.57
6829.29
6584.41
5814.42
5660.79
4971.98
4883.75
4828.68
3615.8
3383.64
2699.28
2711.34
3104.07
2241.47
3075.39
3265.53
3700.7
3267.61
2682.62
2207.6
2022.46
1759.93
2050.85
73645
74377.2
74934.6
75720.2
76743.2
77863.1
79149.8
79799.3
81755.8
81978.9
84114.2
84097.3
85635.9
83914
84608.3
86582.7
83534.9
88991.4
85311.7
77421.1
70634.9
73968.8
53114.3
50885.2
43777
41604.7
34826.7
32999.1
27282.5
22881.9
21625.1
18435.3
17720.1
15218.9
14759.9
13128.2
11597.6
11237.3
10133.5
9903.8
8932.54
8707.56
8271.31
7186.11
6996.43
6232.64
6075.38
5405.11
5248.26
5206.51
4040.25
3835.62
3155.35
3090.77
3415.02
2482.61
3168.97
3346.91
3879.25
3438.47
2867.76
2260.8
1847.85
1525.08
1895.49
75063
75396.6
76054.5
76954.1
77905
79040
80300.8
80989
82804.5
83240.6
85203.5
85375.3
86874.3
85707.5
86748.6
88507.7
86938.8
91667.7
89784.4
84871.2
80870.9
89205.7
78621.3
61035.4
54872
53659.1
46575.1
45890.9
38550.6
33444.5
31140.8
26779.3
25564.6
21550.8
21153.1
17952.1
15878.7
14916.1
13354.2
12902.9
11446.2
11314.2
10326.8
9253.07
8840.43
8032.34
7873.09
7015.4
7045.87
6680.01
5630.45
5386.48
4628.23
4688.27
4682.18
3748.1
4147.5
4225.76
5125.24
4643.88
4381.49
3870.13
2696.37
2377.68
2157.63
75998.1
76089.8
76716.4
77726
78594.1
79785.1
80978.6
81709.2
83354.2
83953.6
85683
86040.7
87329
86735.5
87674.9
89432
88063
92335.7
90611.9
88308.9
85022.9
94986.4
91343
76061.2
59422.5
57143.3
52172.3
49287.8
43628.8
37190.5
35304.9
30051
28766.1
24148.2
23484.8
19820.3
17467.7
16479.3
14607.1
14143.9
12462
12242.5
11193.4
10003.2
9668.65
8758.23
8580.66
7762.48
7642
7395.22
6272.34
6055.98
5344.49
5264.33
5366.35
4263.18
4492.99
4549.84
5345.29
5269.72
4746.17
4376.24
3050.06
2952.72
2232.79
76495.7
76858.3
77499.5
78513.5
79365.2
80518.3
81677.9
82410.5
83934.7
84605.6
86129.7
86565
87728.7
87426.1
88389.2
89890.8
88817.2
92308
90922.8
90034.7
87412.9
96657.9
94752
83417.1
70802.7
60827.7
53219.3
50972.1
45225
38831.6
37073.7
31685.8
30191.2
25563.5
24387.6
20826
17805.1
17065.5
14978.8
14491
12810.8
12443.3
11438.1
10129.3
9876.2
8977.23
8773.87
7999.81
7790.77
7533.93
6480.56
6279.8
5616.44
5471.13
5488.84
4441.97
4544.63
4549.31
5273.83
5351.32
5071.64
4753.09
3289.45
2701.16
2130.2
77417.2
77949.9
78685.7
79672.9
80489.3
81586.8
82715.8
83485.6
84913.5
85697.7
87088.6
87665.9
88796.1
88837
89888.3
91310.9
90888.9
93793.9
92959.9
93122.2
92024.7
99911.7
99569.2
92660.3
84521.7
82053.6
88064.9
62287.7
57756.4
52222.7
50528.2
45085.6
43346.1
37812.9
36387.1
31348.6
27104.7
25402
22076.5
21049.8
18156.1
17631.4
15575.7
13696.4
13090.4
11758.6
11442.6
10283.7
10130.8
9498
8353.96
8090.41
7323.14
7225.91
7038.98
5987.92
5912.47
5682.56
6244.52
6584.61
6369.3
6202.83
5545.45
5217.8
3679.6
78046.8
78641.8
79407.2
80384.7
81183.7
82250.6
83327.5
84131
85448
86286.2
87555.2
88216.6
89276.5
89570.4
90582.1
91966.6
91761.8
94309.3
93612.3
94326.1
93682.9
99900
99892
96144.7
90301.8
89843.2
102335
80469.1
62202.7
55756.6
54777.8
48879.1
47234.1
41460.6
39860.6
34294.8
30100.6
28116.1
24524.2
23424.1
19939.4
19441
16239
14892.3
14122.4
12677
12350.1
10963.6
10827.4
10044.7
8941.57
8688.92
7874.72
7740.56
7508.09
6463.25
6337.53
5962.52
6360.07
6805.6
6696.72
6612.13
5962.93
5853.12
3955.96
78899.7
79561.9
80338.5
81252
82061.3
83041.8
84075.6
84890.7
86116.9
86960.6
88103.7
88819
89802.4
90237.1
91227.5
92410.8
92422.2
94524.6
94069.3
95127.2
94706.1
99537.1
99473.6
97068
92447.7
93480.4
102831
88713.1
76720.4
57456.1
55695.4
51140.9
49350.4
44117.3
41931.4
37263.8
31603.3
30582.8
26179.9
25047.5
21499.9
20388.9
17825.4
15185.8
14784.7
13053.8
12622.8
11341.9
10891.4
10239.4
8999.27
8763
8017.47
7735.58
7552.08
6474.1
6328.92
5962.9
6143.65
7039.51
6929.23
6870.17
6716.03
6328.25
4694.55
79938.5
80732.6
81480.4
82348.3
83148.8
84056
85028.6
85881.1
87041.3
87916
88998.4
89789.7
90760
91354
92382.2
93489.8
93832.9
95632.5
95610.8
96851.5
97001.6
100721
100836
99795.7
97220.5
98935.8
105720
97875.2
90987.1
79846.7
76931
64937.4
61692.9
58476.8
56752.3
52651.2
46963.7
45444.6
40009.4
38308.5
33312.2
31778.6
27589.3
23743.1
22423.9
19463.8
18659.1
16147.6
15665.5
13990.8
12194.7
11776.5
10526.1
10245.2
9643.73
8444.63
8206.75
7534.14
7580.63
8105.47
7739.54
8170.4
8134.12
7999.1
7530.38
80840.8
81681.9
82349.9
83214.2
83994.7
84848.2
85726.1
86620.3
87681.6
88578.1
89582.9
90399.9
91331.8
92007.4
93015.4
94006.2
94536.6
96066
96264.4
97522.2
97851.1
100738
100643
100292
98346.7
99922.5
103693
99270.7
94917.3
86221.8
85635.1
79767.5
81983.6
60856.1
58763.3
55386.5
50067.8
48471.2
43140.3
41421
36180.8
34635
29816.3
25968.3
24426.8
21214.8
20298.7
17301.3
16757.7
14649.7
12880.9
12409.9
10993.2
10694
9884.34
8774.57
8544.99
7779.25
7726.25
8043.79
7758.37
8417.87
8410.61
8344.67
7925.21
82035.6
82863.6
83463
84309.5
85061.8
85857.2
86627.2
87584.2
88554.6
89489.7
90430.3
91288.8
92203.3
92957.8
93977.7
94876.2
95619
96929.7
97409.1
98628.1
99213.7
101474
101595
101750
100431
101883
103899
101702
98714.4
93389.1
93629.1
91332.2
95478.3
83328.2
79495.9
77430.8
62462.6
61132.3
57464.5
56200.2
51638.6
50909.4
45421.7
41418.7
38918.5
34728.4
33287.6
28725.7
28324.7
23992.7
20994.5
19897.6
17211
16974.5
14765.6
13085.7
12540.2
11128.1
11112.5
10458.2
9745.99
10095
9792.24
10141.8
9895.32
82893
83649
84195.7
85031.7
85772.5
86531.9
87185.3
88206
89097.8
90021.9
90932
91795.3
92698.8
93504
94500.8
95353.2
96134.8
97366.7
97932.1
99150.6
99801
101620
101849
102243
101457
102552
103523
102038
99822.7
95454.7
96526.3
95567.2
98824.2
91320.2
88837.7
89674.7
118271
65067.1
61451.8
60582.7
56950
55028
51450.3
45734.3
44277.6
39080.9
37525.2
32819.7
31511.3
27449.3
23866.4
22764.3
19568.5
19111.4
16640
14779.7
14190.7
12526.4
12318.8
11379.7
10477.3
10614.6
10442.2
10514.5
10386.1
84049
84765.5
85282.7
86094.5
86781.1
87503.9
88026.3
89062.7
89893.3
90798.4
91649.7
92512.1
93365.3
94195.9
95139
95912.5
96778.2
97848.8
98511.8
99600.7
100314
101747
102048
102517
102045
102885
103209
102253
100366
96988.6
97991.8
96665
99397
94359.4
93038.2
91905.5
96969.2
81718.3
63862.6
61290.2
57875.1
56653.1
52653.3
47629
46032.2
41191.5
39552.5
34925.3
33355.2
29282.1
25460.1
24238.9
20994.6
20121.9
17581
15396.6
14754.5
13009.8
12598.7
11502.4
10469.2
10476.4
10241.9
10647.8
10699.1
85183.6
85898.5
86392
87196.1
87747.7
88452.9
88920.7
89970.4
90749
91658.2
92464.8
93359.3
94188.5
95049.3
95986.9
96704.1
97656.1
98644
99407.3
100427
101223
102422
102870
103415
103274
103971
104087
103603
102277
99905
100564
99708.3
101690
98592.4
98473.4
98456.3
100097
95505.1
88754.7
88482.2
91594.4
93392.1
64789.2
62194.2
60937.9
57556.1
56480.5
52334.4
51491.3
46603.3
42162.9
40360.8
35898.2
34782.1
30372.6
26758.3
25351.5
22138.2
21541.6
18739.3
16543.6
15969.7
14529.3
14769.2
14224.3
85894.9
86613
87107.6
87896.6
88377.7
89046.5
89526.8
90548.9
91270.6
92151.4
92941.3
93825.3
94653.1
95519.4
96440.6
97136.4
98078.2
99060.2
99814.5
100822
101593
102654
103149
103720
103774
104305
104376
104000
103115
101280
101707
100935
102030
100046
99878.4
100594
100417
99873.1
95666.8
98539.3
106722
103728
99464.4
65559
64985.6
61459.2
60381.5
57610.6
55085.2
52151.5
46315.1
44837.7
40010.5
38277.7
34008.2
29943.5
28571.8
24783.5
24101.7
20759.8
18619.5
17870.6
15885.1
16020.5
14873
87127.3
87812.3
88309.9
88980.7
89410.5
89993.7
90541.8
91499.7
92184.1
93031.1
93779.3
94648.3
95426.3
96287.5
97155.1
97798.7
98775.3
99657.5
100438
101334
102107
102994
103527
104051
104205
104610
104596
104331
103647
102317
102546
101922
102516
101067
101022
101339
100213
101162
99323.8
103325
110446
109387
115228
102908
96503
62127.7
61147
58104.6
56764.2
53124.1
48457.3
46936.8
42513.5
40666.9
36691.5
32302.1
30950.8
27375.4
26036.3
23140
20140.3
19327.1
17268.7
16771.5
16014.5
88299.5
88943.9
89386.3
89952.7
90321.2
90828.7
91426.7
92286.9
92984.9
93832.1
94575.8
95441.9
96202.9
97060.4
97923.1
98522.1
99518.3
100360
101170
102018
102806
103614
104200
104733
105004
105375
105411
105302
104839
104020
104150
103774
104163
103446
103530
103817
103088
104460
104044
108394
114266
116245
123111
119897
113026
89263.7
90017.1
99862.4
71660.9
66251.5
63821.9
62983.1
59977.6
58863.3
55421.2
51285
49713.3
45588.7
44062.7
39903.9
35509.3
33915
30020.3
28902.1
25763.6
89078.8
89684.3
90030.5
90554.3
90877.1
91400.2
91998.5
92974
93700.5
94394.8
95054.8
95897.1
96639.1
97491.9
98335.6
98920.8
99916.7
100749
101536
102365
103119
103884
104468
105004
105328
105671
105755
105720
105427
104922
105007
104759
105015
104660
104773
105091
104519
105793
105718
109602
114105
116942
122363
120664
112970
99321.5
102434
116537
102157
107940
66685.3
65540.9
63207.6
61675.6
59538.1
54665.4
53525.6
49166
47365.7
43368.6
38772.1
37279.1
32672.3
31617.5
27609.2
90407.7
90896.2
91152.4
91636.8
91909.5
92530.6
93111.6
93896.6
94507.7
95353.4
95991.2
96832.6
97524.6
98367.5
99154.4
99703.7
100703
101464
102247
102993
103732
104408
104998
105488
105849
106147
106270
106279
106075
105755
105791
105662
105829
105678
105837
106156
105872
107044
107441
110610
113961
116964
120824
118918
112979
104688
107856
118497
113210
124683
101159
132756
64142.2
62612.4
60263.4
56602.3
55768.5
52204.2
50167.2
46960.4
42269.4
40986.5
37366.4
34970.6
32235.1
91364
91770.9
91987.3
92422
92674.5
93327
93938.9
94509
95021.2
95966.3
96675.9
97492.1
98207.6
99007
99804.5
100324
101288
102041
102815
103548
104276
104938
105537
106043
106444
106771
106953
107068
106958
106843
106913
106913
107107
107158
107429
107833
107913
109071
109919
112610
115366
117987
120758
119462
116001
110720
113569
121343
121235
129241
121206
137828
98575.5
88335.8
89726.1
105990
71786.4
66616.3
65580.1
64358.8
60470.8
59590.1
56766.7
54481.4
51584
92232.1
92631.4
92828.7
93232.7
93554.3
94252.2
94779.8
95499.3
96036.5
96817
97422.4
98219.3
98888.9
99689.3
100443
100939
101934
102634
103405
104094
104801
105422
106009
106501
106911
107239
107456
107615
107567
107608
107698
107757
107966
108103
108434
108843
109150
110188
111176
113400
115620
117796
119635
118539
116294
112896
114817
119125
120632
125306
120703
125354
102858
94492.6
97695.8
116551
93850.6
96996.4
93615.3
64816.2
61950.4
61191.7
58277.2
56868.3
53579.2
93065.4
93413.8
93599.7
93977.4
94354.1
95032
95534.2
96220.1
96755.6
97529.6
98119.4
98896.4
99538.3
100316
101051
101511
102483
103161
103924
104587
105298
105896
106499
106989
107436
107787
108056
108289
108297
108460
108600
108749
108994
109238
109629
110046
110537
111523
112618
114497
116393
118228
119606
119078
117849
116086
117439
120195
122044
124694
122451
122778
109648
103429
106757
117207
107829
111491
111058
93620.2
85577.2
88125
96573.1
106650
67386
93895.7
94244.8
94417.8
94872.1
95264.7
95920.2
96389.7
97051.8
97562.3
98302.9
98862.2
99615.6
100227
100990
101693
102140
103096
103745
104490
105123
105824
106395
106998
107470
107938
108286
108597
108856
108919
109172
109346
109544
109808
110109
110521
110947
111544
112465
113531
115105
116688
118211
119306
119091
118491
117568
118553
120355
121872
123270
121590
120221
111957
107109
108795
113289
109405
109723
106374
98061.3
92717.3
97106.9
106324
99179.5
83679.5
94706.3
95032
95231.9
95753.4
96099.1
96753.9
97179.7
97847.3
98320.8
99059.6
99567.1
100320
100876
101644
102294
102715
103674
104291
105025
105624
106322
106869
107478
107945
108440
108797
109159
109460
109547
109910
110126
110395
110692
111055
111508
111929
112620
113488
114523
115874
117246
118541
119429
119528
119324
118983
119755
120977
122210
122979
121810
120095
114843
111467
111983
113793
112097
111355
108423
102931
100403
103477
108523
104813
98227.5
95221.7
95549.6
95798.3
96341.4
96697.8
97296.6
97723.9
98350.3
98814.1
99505.9
100010
100727
101285
102009
102667
103068
103967
104597
105289
105900
106569
107130
107728
108216
108723
109111
109510
109863
109989
110392
110677
110977
111327
111722
112211
112656
113352
114205
115151
116346
117532
118657
119442
119680
119761
119712
120328
121218
122047
122509
121540
119930
116444
113886
113938
114090
113152
111957
109248
105732
103376
105155
107820
105134
102087
96407
96792.4
97063.7
97599.7
97938.4
98514.7
98905
99524
99944
100608
101076
101776
102287
102998
103603
103980
104909
105466
106173
106714
107390
107893
108505
108949
109474
109841
110273
110619
110758
111226
111512
111862
112201
112627
113110
113530
114251
115022
115917
116933
117976
118935
119606
119968
120181
120305
120799
121413
121980
122146
121311
119925
117466
115565
115124
114712
113990
112713
110496
108096
106119
107074
108127
106496
104622
97185.9
97596.7
97880.7
98358.5
98696.1
99217.4
99608.2
100178
100599
101208
101683
102336
102856
103516
104124
104470
105337
105887
106566
107104
107757
108263
108864
109324
109850
110256
110698
111102
111256
111768
112107
112503
112880
113344
113866
114285
115016
115762
116609
117535
118473
119350
119959
120420
120737
120995
121428
121909
122315
122337
121693
120572
118845
117415
116782
116209
115551
114409
112730
111130
109779
110240
110677
109765
108869
98235.8
98633
98875.3
99333.9
99637.4
100146
100502
101049
101434
102013
102457
103100
103587
104241
104810
105148
106024
106542
107211
107717
108363
108845
109445
109891
110431
110831
111303
111710
111888
112461
112813
113239
113631
114110
114631
115030
115786
116480
117264
118092
118928
119719
120261
120787
121145
121453
121828
122193
122464
122398
121884
120988
119695
118570
117861
117176
116529
115506
114214
113021
111990
112161
112245
111781
111361
99112.4
99474
99694.2
100117
100397
100875
101200
101718
102080
102646
103077
103694
104163
104789
105341
105650
106489
106997
107643
108135
108766
109238
109830
110274
110818
111230
111714
112144
112330
112937
113317
113778
114193
114702
115240
115631
116392
117066
117824
118584
119368
120111
120609
121177
121573
121930
122279
122590
122808
122696
122325
121627
120675
119801
119102
118456
117847
116982
116025
115146
114404
114471
114495
114380
114400
100160
100499
100699
101100
101350
101795
102096
102595
102922
103477
103878
104478
104922
105534
106058
106363
107183
107666
108298
108767
109391
109843
110435
110864
111417
111821
112325
112760
112968
113610
113995
114484
114901
115431
115963
116347
117112
117742
118459
119152
119878
120560
121016
121605
122003
122365
122677
122945
123106
122985
122715
122170
121443
120739
120093
119505
118932
118203
117456
116796
116250
116285
116313
116396
116674
100975
101294
101461
101834
102052
102483
102755
103236
103547
104099
104475
105062
105479
106076
106568
106842
107652
108122
108742
109191
109804
110241
110829
111250
111805
112208
112723
113161
113366
114041
114441
114951
115374
115921
116453
116816
117596
118203
118904
119551
120250
120897
121316
121935
122346
122734
123038
123296
123456
123331
123179
122768
122233
121691
121110
120633
120134
119562
119009
118505
118170
118232
118351
118608
119066
101971
102266
102425
102775
102986
103393
103654
104113
104410
104936
105292
105854
106256
106830
107311
107587
108353
108806
109405
109843
110444
110869
111453
111867
112424
112828
113347
113797
114023
114701
115098
115625
116048
116607
117134
117500
118268
118844
119519
120119
120787
121395