/*--------------------------------*- C++ -*----------------------------------*\
| =========                 |                                                 |
| \\      /  F ield         | OpenFOAM: The Open Source CFD Toolbox           |
|  \\    /   O peration     | Version:  v2012                                 |
|   \\  /    A nd           | Website:  www.openfoam.com                      |
|    \\/     M anipulation  |                                                 |
\*---------------------------------------------------------------------------*/
FoamFile
{
    version     2.0;
    format      ascii;
    class       volVectorField;
    location    "1e-06";
    object      U;
}
// * * * * * * * * * * * * * * * * * * * * * * * * * * * * * * * * * * * * * //

dimensions      [0 1 -1 0 0 0 0];


internalField   nonuniform List<vector> 
10302
(
(6.37113 1.11394 1.06846e-30)
(6.34583 1.0522 -2.09521e-26)
(6.4188 1.05364 -1.04949e-26)
(6.40677 0.940446 -4.57863e-31)
(6.47087 0.927921 -1.9878e-26)
(6.60293 0.674479 0)
(6.624 0.614827 -2.35608e-30)
(6.67833 0.0173127 -8.34973e-30)
(6.57671 -0.0682404 -8.59635e-30)
(6.05807 -0.461411 -8.37811e-30)
(5.8999 -0.465893 -1.73251e-27)
(5.00443 -0.464421 9.72176e-31)
(4.87294 -0.462371 0)
(4.26519 -0.428255 6.50275e-28)
(4.17715 -0.414318 -2.64267e-28)
(3.44523 -0.367154 0)
(3.41368 -0.361215 0)
(3.04631 -0.330589 0)
(2.99 -0.332761 0)
(2.95858 -0.32148 0)
(2.55397 -0.285433 1.83704e-29)
(2.49799 -0.279569 3.69329e-29)
(2.08369 -0.231053 0)
(2.01026 -0.224396 -9.61136e-30)
(1.68372 -0.186984 -8.76323e-32)
(1.60984 -0.180192 -1.03713e-29)
(1.34053 -0.150145 3.03301e-31)
(1.27389 -0.138306 -9.7356e-31)
(0.972693 -0.101643 4.54554e-29)
(0.505771 -0.0149726 -2.66403e-29)
(0.3448 0.00545529 -6.63932e-29)
(0.0669939 0.0297711 5.64347e-28)
(0.0734276 0.0222163 0)
(0.206251 -0.0160226 6.20331e-31)
(0.200314 -0.0134996 2.9731e-31)
(0.207501 -0.0188507 0)
(0.0514747 0.0118368 0)
(-0.0534692 0.0225424 -1.42435e-29)
(-0.0201848 0.0300734 5.83195e-28)
(0.0084133 0.0255392 0)
(0.0614525 0.00332407 -2.08834e-32)
(0.0101496 0.0109078 4.63373e-31)
(-0.136632 0.0212801 -9.21566e-31)
(-0.225556 0.036948 5.39505e-32)
(-0.299941 0.0458336 1.05336e-29)
(-0.338406 0.0484313 -1.07506e-30)
(-0.353312 0.0501584 1.04159e-29)
(-0.355073 0.0488735 -1.28289e-30)
(-0.350646 0.0486716 3.98645e-30)
(-0.303764 0.0398987 2.31492e-30)
(-0.232844 0.0316369 4.26474e-31)
(-0.247281 0.0305031 0)
(0.00804838 -0.00667429 -1.86995e-30)
(0.046708 -0.0154144 6.17987e-29)
(0.272576 -0.0735624 -1.64566e-31)
(0.157153 -0.0623905 -2.24706e-28)
(0.144382 -0.0584336 2.33657e-28)
(0.143387 -0.0128188 0)
(0.107479 -0.0096918 2.76846e-34)
(-0.0232019 0.00907076 -7.45093e-30)
(-0.178974 0.026615 1.09206e-33)
(-0.20084 0.0288453 -4.56811e-32)
(-0.201628 0.0245025 0)
(-0.163654 0.0197199 -4.25781e-32)
(-0.120801 0.0132454 2.52607e-33)
(6.9373 1.06404 -1.4456e-26)
(6.87165 1.00964 5.91523e-32)
(6.9983 1.01223 1.37152e-26)
(6.91893 0.906999 0)
(7.0359 0.894658 -2.61884e-26)
(7.08927 0.633427 0)
(7.19432 0.580547 -2.3304e-26)
(7.26449 -0.0146007 1.7508e-30)
(7.21984 -0.112782 2.78725e-30)
(6.68213 -0.478224 -3.42925e-27)
(6.60042 -0.483583 -2.81599e-27)
(5.64549 -0.470569 9.64765e-31)
(5.6138 -0.483104 4.55917e-31)
(4.93508 -0.44542 5.7755e-28)
(4.92159 -0.444679 6.09802e-28)
(4.48816 -0.430737 0)
(4.08211 -0.401623 0)
(4.01665 -0.388385 -2.61151e-31)
(3.59823 -0.366845 1.85248e-28)
(3.46289 -0.343103 0)
(3.08689 -0.312238 8.35061e-29)
(2.98313 -0.302327 6.00302e-29)
(2.55498 -0.25308 4.74695e-29)
(2.48213 -0.249909 -6.43288e-29)
(2.082 -0.203917 1.51876e-31)
(2.04009 -0.203354 4.64469e-29)
(1.67263 -0.161457 3.63727e-31)
(1.65008 -0.159058 -1.00288e-30)
(1.38429 -0.109935 1.26051e-28)
(0.86136 -0.0244817 -8.38392e-29)
(0.65438 -0.0132862 1.73976e-30)
(0.442479 0.0443621 9.59378e-28)
(0.443806 0.0258293 8.96475e-28)
(0.5164 -0.0210637 0)
(0.422023 -0.00724018 0)
(0.459371 -0.0376035 9.66671e-29)
(0.245447 0.0265917 0)
(0.0702912 0.0251385 -1.35632e-28)
(0.127299 0.0548087 9.02427e-28)
(0.151642 0.0486812 8.72629e-31)
(0.284169 0.00233197 1.87391e-28)
(0.0953425 0.0361769 1.13363e-36)
(-0.0264774 0.0231055 -1.14164e-30)
(-0.201444 0.0480083 3.43116e-29)
(-0.285777 0.0533745 4.64615e-29)
(-0.349474 0.0601536 0)
(-0.369035 0.0618364 2.63066e-32)
(-0.3829 0.0614142 0)
(-0.390821 0.0624126 4.53841e-29)
(-0.347814 0.0484027 -1.21863e-30)
(-0.300044 0.0508339 -3.42633e-29)
(-0.318062 0.0448187 1.77939e-30)
(-0.0620044 0.0119917 2.72973e-29)
(-0.0742386 0.0246263 1.1664e-28)
(0.0610514 -0.0163567 0)
(0.0335564 -0.0542012 -5.99115e-33)
(0.0377525 -0.053895 5.22981e-28)
(0.0413647 0.00139954 -4.68074e-33)
(0.0108394 0.00554832 9.07077e-29)
(-0.131031 0.0356963 -2.75533e-29)
(-0.274954 0.0432638 0)
(-0.29001 0.0432924 0)
(-0.278776 0.0342965 -6.2392e-33)
(-0.259633 0.0305348 4.33272e-32)
(-0.178589 0.0184455 1.10115e-29)
(7.67031 1.86117 -6.82148e-27)
(7.64474 1.78887 6.54619e-27)
(7.74501 1.81229 1.32794e-26)
(7.67889 1.71819 6.50541e-34)
(7.77573 1.74297 -1.35143e-26)
(7.79319 1.49002 0)
(7.88799 1.46948 -1.23105e-26)
(7.91206 0.619309 -1.44509e-30)
(7.90447 0.551082 -1.78366e-30)
(7.47371 -0.145079 -2.80658e-27)
(7.39908 -0.166498 -2.23771e-30)
(6.53232 -0.309589 -7.35888e-31)
(6.51371 -0.322526 3.88986e-31)
(5.79729 -0.363683 5.73918e-28)
(5.82462 -0.365525 7.06112e-28)
(5.37981 -0.375815 5.21839e-31)
(4.93775 -0.361986 -1.58968e-35)
(4.66451 -0.356169 -2.44263e-31)
(4.40403 -0.348185 4.68089e-31)
(4.23198 -0.332928 -2.66476e-36)
(3.85166 -0.309275 6.44268e-33)
(3.72891 -0.299751 -2.94412e-29)
(3.2722 -0.2571 2.97959e-29)
(3.19502 -0.253309 1.53139e-31)
(2.71759 -0.21122 3.09967e-31)
(2.68613 -0.20908 4.15114e-31)
(2.18632 -0.167756 7.00757e-31)
(2.20323 -0.166032 9.35712e-31)
(1.76612 -0.104562 2.57659e-28)
(1.514 -0.038227 0)
(1.32601 -0.0321933 3.80052e-28)
(0.996442 0.0802654 1.03883e-27)
(0.990289 0.0507205 8.87888e-28)
(0.877638 -0.0454001 0)
(0.848796 -0.042341 0)
(0.683903 -0.0410359 3.29268e-28)
(0.577296 0.0102005 0)
(0.424035 0.0066068 0)
(0.291937 0.120859 0)
(0.344588 0.109727 -9.87347e-28)
(0.293972 0.0153718 1.48141e-28)
(0.214001 0.0358045 2.81473e-31)
(0.0419729 0.0346723 -1.73139e-28)
(-0.138623 0.0667365 5.52248e-29)
(-0.233589 0.0669712 0)
(-0.330226 0.0736057 9.66985e-32)
(-0.356289 0.074634 -7.31285e-29)
(-0.401705 0.0744854 0)
(-0.417058 0.0767138 8.99661e-29)
(-0.397443 0.0594361 0)
(-0.380749 0.0671504 -6.04695e-29)
(-0.404432 0.0540655 0)
(-0.178099 0.0193436 1.00619e-28)
(-0.169235 0.0285868 3.42352e-30)
(0.00914732 -0.0307348 9.32444e-31)
(-0.0649202 -0.0528137 3.85876e-29)
(-0.074797 -0.0462211 -6.02017e-30)
(-0.0956193 0.0273162 0)
(-0.127119 0.0328007 -6.00134e-33)
(-0.245306 0.0641388 -1.29601e-32)
(-0.390425 0.0652312 1.95914e-33)
(-0.403441 0.0624732 1.56508e-29)
(-0.379678 0.0437272 0)
(-0.359665 0.0379857 0)
(-0.266458 0.0212827 0)
(7.84071 2.04045 -3.32372e-27)
(7.8138 1.97354 0)
(7.91495 1.99805 3.39809e-27)
(7.85078 1.93576 0)
(7.94109 1.97973 0)
(7.95236 1.8228 8.75423e-27)
(8.02608 1.80121 7.09021e-34)
(8.40684 1.13618 2.04082e-31)
(8.04767 0.843272 0)
(7.64296 0.0170209 -2.40755e-27)
(7.49965 -0.0285602 0)
(6.76229 -0.211549 0)
(6.60978 -0.239023 0)
(6.07746 -0.298508 4.83856e-28)
(5.9112 -0.307869 -6.34763e-31)
(5.42938 -0.329314 -4.45924e-31)
(5.01058 -0.318135 4.55209e-31)
(4.954 -0.323356 -2.1129e-31)
(4.48733 -0.317985 -1.24913e-32)
(4.43111 -0.307335 0)
(3.94014 -0.28248 1.44869e-28)
(3.85657 -0.275835 3.16468e-28)
(3.37846 -0.234622 1.14269e-31)
(3.28393 -0.231189 1.37468e-28)
(2.86355 -0.194628 -2.49253e-31)
(2.75234 -0.187944 -1.83062e-31)
(2.39132 -0.157488 0)
(2.25266 -0.145495 1.1968e-28)
(1.90343 -0.090195 -7.57562e-33)
(1.57195 -0.0271669 0)
(1.46503 -0.0232779 8.13931e-29)
(1.11063 0.0475022 -1.17594e-30)
(1.096 0.011528 1.64294e-30)
(0.959031 -0.0372271 -8.11449e-29)
(0.883753 -0.0266189 0)
(0.747479 -0.034363 -3.84307e-32)
(0.60421 0.0211178 -2.13042e-29)
(0.520039 0.0130101 5.66745e-29)
(0.331337 0.0798216 0)
(0.382892 0.0606508 -1.14995e-27)
(0.305265 0.0260255 -1.71457e-30)
(0.222539 0.0501138 -2.05946e-29)
(0.0491768 0.0457926 2.89438e-32)
(-0.129446 0.0766131 4.0039e-29)
(-0.212954 0.0736245 5.7276e-31)
(-0.324196 0.0829437 8.59265e-30)
(-0.35125 0.0830879 9.46453e-31)
(-0.39776 0.0836615 0)
(-0.41605 0.0855702 9.31952e-29)
(-0.407911 0.0651957 -1.24731e-30)
(-0.383053 0.0792446 -4.91801e-31)
(-0.409996 0.0606772 -2.54939e-29)
(-0.203943 0.0284585 0)
(-0.184038 0.0423646 -2.83946e-28)
(-0.0354593 -0.026736 -8.67747e-35)
(-0.0699025 -0.0511856 -2.37958e-29)
(-0.0775536 -0.0483148 -1.64797e-29)
(-0.109704 0.0313364 -1.41367e-29)
(-0.130804 0.0353218 2.39024e-29)
(-0.288365 0.0764466 0)
(-0.394448 0.068646 -3.489e-33)
(-0.409408 0.064193 6.48735e-30)
(-0.392763 0.0451992 1.58464e-29)
(-0.363895 0.0375456 0)
(-0.285086 0.0202356 -1.63786e-34)
(8.27642 2.07068 -2.03408e-27)
(8.26285 2.00979 -1.04479e-27)
(8.36068 2.03358 -9.70325e-33)
(8.32792 1.98443 0)
(8.41328 2.04644 2.92565e-27)
(8.40222 2.03178 5.36513e-27)
(8.46401 2.0772 -6.51395e-32)
(8.54024 1.36412 -7.68142e-32)
(8.47171 1.24118 0)
(8.13924 0.307833 -2.62678e-27)
(8.039 0.247372 7.33496e-31)
(7.41331 -0.0515173 4.58267e-31)
(7.31805 -0.0890178 0)
(6.76508 -0.205242 0)
(6.66956 -0.219386 8.2123e-28)
(6.21051 -0.265649 -3.57058e-28)
(5.77745 -0.285714 1.65726e-31)
(5.70258 -0.297104 -3.79716e-28)
(5.24914 -0.299648 2.18793e-28)
(5.14361 -0.29292 -2.81127e-31)
(4.68835 -0.279228 1.19243e-36)
(4.58439 -0.275228 -1.53878e-30)
(4.10756 -0.241519 1.34998e-31)
(4.01595 -0.241889 -2.93373e-29)
(3.54148 -0.206635 4.40687e-30)
(3.45746 -0.205766 1.93524e-29)
(2.98675 -0.170926 3.13823e-31)
(2.89575 -0.162981 -2.11417e-29)
(2.47383 -0.10484 -2.10845e-28)
(2.20363 -0.0507562 0)
(2.08423 -0.0456346 0)
(1.8235 0.000395649 -8.40296e-28)
(1.79123 -0.0366833 6.64218e-31)
(1.43202 -0.0611746 -1.87339e-29)
(1.36684 -0.0559075 0)
(1.12122 -0.0511264 1.88207e-35)
(0.977634 0.00180487 -2.29893e-32)
(0.878661 -0.0019592 2.07989e-28)
(0.662978 0.0628136 -1.50812e-30)
(0.674821 0.0450032 -1.49177e-27)
(0.457594 0.0289998 -9.70638e-29)
(0.39038 0.050874 3.95671e-29)
(0.231004 0.045345 2.8788e-28)
(0.0333816 0.0805618 -1.92377e-30)
(-0.0679327 0.0754095 0)
(-0.235048 0.0886672 4.26783e-33)
(-0.270415 0.087188 1.24985e-28)
(-0.35285 0.0900143 -1.3353e-30)
(-0.376488 0.0927052 8.18757e-29)
(-0.400411 0.0703878 -1.28174e-30)
(-0.412131 0.0913403 9.20402e-29)
(-0.452618 0.0679601 -3.83629e-29)
(-0.343931 0.0439979 -7.48385e-29)
(-0.327747 0.0659825 -3.34856e-28)
(-0.102988 -0.0167581 2.78641e-27)
(-0.0977249 -0.0579012 -2.52231e-28)
(-0.100748 -0.0565958 -1.21228e-33)
(-0.182393 0.0497394 1.67666e-29)
(-0.212959 0.056398 6.0813e-30)
(-0.39904 0.105613 4.31437e-33)
(-0.461598 0.0817169 -2.13265e-33)
(-0.471748 0.0757275 0)
(-0.450554 0.0491394 2.7485e-29)
(-0.426947 0.0405401 4.0829e-32)
(-0.349755 0.0203981 -1.18525e-29)
(8.71138 2.03936 -3.83167e-28)
(8.73176 1.97768 -3.54587e-28)
(8.82604 2.00304 0)
(8.8203 1.94552 -3.47203e-28)
(8.90203 2.00572 -5.10945e-33)
(8.87576 2.05099 -2.38966e-27)
(8.93309 2.16921 -4.66535e-31)
(8.89011 1.72656 -3.00912e-27)
(8.88407 1.59693 8.82748e-32)
(8.58723 0.640233 -1.29943e-31)
(8.53026 0.567451 2.42701e-27)
(7.9955 0.155439 1.40576e-27)
(7.94813 0.122544 0)
(7.39296 -0.0690572 -2.92774e-31)
(7.36652 -0.0802649 1.11875e-32)
(6.83226 -0.16842 -9.59472e-28)
(6.5238 -0.212697 -1.3824e-31)
(6.31439 -0.230186 -4.67776e-28)
(5.99704 -0.251259 0)
(5.83187 -0.25229 2.56787e-31)
(5.44022 -0.252602 1.91791e-31)
(5.30944 -0.250854 -1.08462e-28)
(4.85315 -0.229153 0)
(4.76572 -0.228818 1.31736e-28)
(4.25165 -0.202336 1.98528e-28)
(4.2076 -0.199976 1.10409e-28)
(3.63915 -0.169294 5.58198e-29)
(3.61494 -0.163006 -1.24896e-28)
(3.04652 -0.102398 1.3266e-35)
(2.85807 -0.0664343 -1.23307e-30)
(2.69814 -0.0601366 2.62714e-28)
(2.47655 -0.029008 3.01921e-32)
(2.43181 -0.0548055 0)
(1.97719 -0.0664919 0)
(1.93415 -0.0639093 5.62164e-31)
(1.55135 -0.0574198 4.75085e-32)
(1.42864 -0.0105001 -7.21703e-29)
(1.28278 -0.0101167 1.11407e-28)
(1.05563 0.0473736 0)
(1.03287 0.0349454 -6.29918e-28)
(0.711269 0.0344299 -1.02776e-30)
(0.667204 0.0502882 0)
(0.477035 0.0413997 -3.52793e-28)
(0.295853 0.0811386 0)
(0.163751 0.0756302 -1.51459e-28)
(-0.0570599 0.0928025 -6.07167e-29)
(-0.105266 0.0901304 3.38852e-32)
(-0.254911 0.0955817 -7.76234e-29)
(-0.274932 0.0987958 1.11048e-28)
(-0.344296 0.0749397 -1.30406e-30)
(-0.383629 0.104017 1.20049e-28)
(-0.437068 0.0792195 -2.06168e-30)
(-0.440705 0.0626654 -2.12961e-28)
(-0.441459 0.0784171 -3.49206e-35)
(-0.223841 -0.0133881 2.19483e-27)
(-0.131288 -0.0516956 4.43325e-28)
(-0.117111 -0.0574675 3.60172e-29)
(-0.229493 0.0685397 2.09845e-29)
(-0.263169 0.0761968 0)
(-0.433202 0.121861 1.79925e-29)
(-0.498924 0.089738 7.27618e-30)
(-0.507168 0.0827444 1.03174e-29)
(-0.491821 0.0517012 -3.97066e-29)
(-0.474227 0.0422073 3.29274e-30)
(-0.40572 0.0201876 -4.09246e-29)
(8.81772 1.97469 3.18467e-28)
(8.8528 1.91185 0)
(8.94763 1.93186 0)
(8.94377 1.86747 -4.00959e-28)
(9.02223 1.93034 -8.1602e-28)
(8.9983 1.92826 3.30369e-33)
(9.04713 2.06421 4.96757e-31)
(9.00768 1.845 -2.12104e-27)
(8.96803 1.73607 -2.37218e-31)
(8.70374 0.78899 -3.69026e-31)
(8.60663 0.677448 1.55316e-27)
(8.15011 0.261307 9.30872e-28)
(8.02954 0.200312 -9.14906e-28)
(7.58396 0.0117832 -1.60096e-31)
(7.44689 -0.020914 -4.21816e-31)
(7.00369 -0.121345 -2.05798e-28)
(6.59925 -0.174657 1.62408e-31)
(6.5335 -0.186292 -3.45288e-31)
(6.08554 -0.220787 -2.36007e-28)
(6.02084 -0.218545 -8.783e-29)
(5.54165 -0.226795 0)
(5.45192 -0.225246 0)
(4.9799 -0.208173 1.68313e-29)
(4.87343 -0.207957 7.80953e-29)
(4.42436 -0.185722 4.06757e-29)
(4.29309 -0.182583 0)
(3.8627 -0.15719 9.88998e-33)
(3.68712 -0.145096 -2.89463e-32)
(3.1906 -0.0921409 0)
(2.93011 -0.0583035 2.00271e-28)
(2.85095 -0.0525088 2.7018e-28)
(2.57339 -0.0304993 1.47052e-27)
(2.52384 -0.0494346 -2.6271e-35)
(2.1167 -0.0598265 -5.07158e-31)
(1.99915 -0.0584217 -5.94566e-31)
(1.71424 -0.054556 -4.37346e-28)
(1.47871 -0.00520553 1.27326e-30)
(1.41873 -0.00589497 -1.62015e-30)
(1.11889 0.0492213 0)
(1.09869 0.0372738 0)
(0.780375 0.0431643 -1.98654e-30)
(0.704231 0.0544828 6.75653e-31)
(0.542073 0.0400913 -9.161e-28)
(0.330994 0.0848291 -3.73454e-30)
(0.242664 0.0767296 -1.50638e-28)
(-0.0199608 0.0974109 0)
(-0.0730168 0.0917381 -2.09129e-30)
(-0.213839 0.10075 -8.44215e-29)
(-0.260064 0.103842 2.53822e-28)
(-0.311782 0.077213 -2.59384e-30)
(-0.372298 0.11137 9.80645e-31)
(-0.426677 0.0863214 -2.11534e-29)
(-0.451065 0.0709816 -1.1464e-29)
(-0.445331 0.0798594 -2.01718e-29)
(-0.251884 -0.0206195 2.06621e-27)
(-0.134854 -0.0515088 8.18104e-28)
(-0.120952 -0.0551204 0)
(-0.237724 0.0738186 0)
(-0.266163 0.0793063 0)
(-0.445368 0.13001 -6.67068e-33)
(-0.501628 0.09087 1.64303e-29)
(-0.510254 0.0839426 1.27573e-33)
(-0.500922 0.0524636 -3.71237e-29)
(-0.479016 0.0420679 7.9222e-32)
(-0.422983 0.018679 -9.8167e-30)
(9.10557 1.96646 1.01712e-34)
(9.16306 1.89472 -1.76191e-28)
(9.24819 1.9137 2.20637e-28)
(9.25387 1.86494 -1.60669e-28)
(9.33794 1.91784 0)
(9.3183 1.88422 1.71735e-33)
(9.37653 2.00775 1.20503e-27)
(9.31917 2.05071 -1.07538e-30)
(9.26934 2.00236 1.90612e-27)
(9.03399 1.15322 3.81888e-31)
(8.97572 1.0728 9.04191e-28)
(8.58253 0.554626 -6.11298e-28)
(8.51052 0.512636 -4.78038e-28)
(8.09636 0.225717 0)
(8.01216 0.213165 3.52799e-28)
(7.65249 0.048285 -3.85624e-31)
(7.23695 -0.0258249 0)
(7.18315 -0.067067 0)
(6.7545 -0.103629 -7.33854e-33)
(6.63786 -0.123391 -6.08779e-33)
(6.22745 -0.140309 0)
(6.11703 -0.148979 -9.06462e-29)
(5.678 -0.14579 1.92382e-28)
(5.58404 -0.147595 1.22415e-28)
(5.11328 -0.141904 1.13167e-35)
(5.03359 -0.1354 3.22147e-31)
(4.54435 -0.128239 -1.0572e-28)
(4.44031 -0.106746 1.05527e-28)
(3.97119 -0.0772071 0)
(3.62212 -0.0433614 2.7436e-28)
(3.48815 -0.0425183 3.39593e-28)
(3.21919 -0.0262866 -2.28654e-32)
(3.1595 -0.0379621 -4.10977e-28)
(2.72635 -0.0474888 3.35428e-36)
(2.64497 -0.0464631 1.13838e-30)
(2.26185 -0.0494326 5.04074e-28)
(2.01635 -0.000856362 1.38741e-28)
(1.89225 -0.00293059 0)
(1.59897 0.0474724 0)
(1.54996 0.0384445 0)
(1.16561 0.0500627 -1.06473e-28)
(1.10892 0.0551208 0)
(0.9179 0.0376158 -5.20422e-28)
(0.696968 0.0884546 0)
(0.581098 0.0789433 0)
(0.283348 0.103239 0)
(0.213444 0.0951964 3.70127e-32)
(-0.0358619 0.106973 2.84551e-30)
(-0.0755016 0.110146 1.67115e-28)
(-0.194753 0.0813879 0)
(-0.280229 0.124359 -1.45663e-28)
(-0.348486 0.0983738 -1.48555e-29)
(-0.460345 0.0840934 0)
(-0.468302 0.0876465 0)
(-0.325733 -0.0203839 -1.6379e-31)
(-0.191551 -0.0426234 4.53035e-28)
(-0.175729 -0.040535 -2.9531e-35)
(-0.285106 0.0967483 -1.29759e-29)
(-0.312789 0.103469 -1.64415e-32)
(-0.46904 0.148842 1.00218e-29)
(-0.524212 0.0985719 -1.991e-29)
(-0.532485 0.0904363 5.17784e-30)
(-0.534665 0.0537638 0)
(-0.520181 0.0421667 -1.40429e-33)
(-0.476313 0.0162407 0)
(9.21602 1.9107 -2.0658e-28)
(9.27845 1.83448 -1.10514e-28)
(9.3517 1.87411 1.97107e-28)
(9.35423 1.81693 -1.52801e-28)
(9.43681 1.86566 5.14804e-31)
(9.43799 1.81155 -3.62536e-28)
(9.49662 1.90226 9.30656e-28)
(9.62998 2.08067 0)
(9.59793 2.22021 2.83979e-27)
(9.16406 1.33837 -8.98457e-28)
(9.05253 1.19291 -5.69197e-33)
(8.71633 0.687638 -4.51188e-29)
(8.58813 0.610025 -2.00184e-28)
(8.25393 0.333359 0)
(8.09044 0.287823 1.51655e-28)
(7.78466 0.126739 3.19522e-30)
(7.31989 0.0263191 -2.93293e-31)
(7.31034 -0.00264747 2.57847e-31)
(6.84256 -0.0589977 1.75919e-29)
(6.81241 -0.07535 3.4587e-29)
(6.33356 -0.104235 2.41214e-31)
(6.26255 -0.113352 5.71149e-29)
(5.81074 -0.115779 -3.01608e-29)
(5.6995 -0.11954 8.00067e-31)
(5.29371 -0.11658 -3.18561e-29)
(5.12746 -0.113115 -5.69215e-31)
(4.77611 -0.106751 -4.92776e-31)
(4.52042 -0.0864696 0)
(4.16387 -0.0609598 1.62716e-31)
(3.70962 -0.0245505 1.82795e-28)
(3.66351 -0.0313283 3.14825e-28)
(3.32897 -0.0209532 -6.34454e-28)
(3.26565 -0.0296707 -4.85737e-28)
(2.88828 -0.0372963 0)
(2.72253 -0.0375843 -6.07825e-29)
(2.45804 -0.0390673 4.77479e-28)
(2.07778 0.0102418 1.01541e-28)
(2.05651 0.00272583 -7.93347e-29)
(1.6769 0.0531328 -1.77579e-30)
(1.63836 0.0432865 6.14313e-28)
(1.27048 0.0602493 4.55573e-29)
(1.16027 0.0588363 -6.93174e-31)
(1.04025 0.0364115 9.08607e-31)
(0.74321 0.0944547 0)
(0.69106 0.0792917 -1.09331e-30)
(0.344972 0.10764 4.21749e-31)
(0.268245 0.0962225 -2.52596e-28)
(0.0408143 0.111933 0)
(-0.0500888 0.113083 0)
(-0.136867 0.0830656 4.23619e-28)
(-0.25773 0.131752 -2.04418e-28)
(-0.323684 0.106017 -1.53361e-35)
(-0.448253 0.0932878 5.99121e-30)
(-0.465441 0.0896503 0)
(-0.334648 -0.0323017 -1.86717e-27)
(-0.200871 -0.0393197 4.68187e-28)
(-0.188939 -0.0326638 0)
(-0.296614 0.103557 -3.78738e-29)
(-0.316978 0.107367 1.21828e-32)
(-0.472859 0.154433 1.07544e-32)
(-0.526405 0.0998311 -3.04298e-29)
(-0.53479 0.0920808 0)
(-0.543575 0.0547992 0)
(-0.525584 0.0422447 -1.66493e-30)
(-0.494598 0.0139823 -5.16559e-33)
(9.47544 1.86785 1.59972e-28)
(9.54647 1.81427 9.30344e-32)
(9.60775 1.84449 1.27792e-31)
(9.6082 1.7901 -1.71396e-28)
(9.69602 1.83845 2.76867e-28)
(9.70646 1.77205 0)
(9.77751 1.84085 0)
(9.74581 1.88713 -1.30918e-27)
(9.68048 2.13252 0)
(9.43296 1.62745 -1.28513e-27)
(9.36531 1.521 -9.402e-28)
(9.0579 0.949551 -6.85894e-28)
(8.98538 0.879354 7.05552e-28)
(8.65422 0.525852 -1.86386e-31)
(8.56783 0.484119 -1.10752e-27)
(8.24837 0.269213 3.10847e-28)
(7.88394 0.146206 0)
(7.83256 0.106077 3.14042e-31)
(7.44778 0.032372 3.97352e-28)
(7.36551 0.00797713 -3.65573e-31)
(6.97134 -0.0384525 -3.09633e-31)
(6.87974 -0.054102 -2.91872e-28)
(6.47113 -0.0704928 2.66455e-28)
(6.38015 -0.0808227 -3.17473e-28)
(5.95599 -0.0862903 -3.75394e-33)
(5.86241 -0.0912073 -3.40574e-31)
(5.4282 -0.0873815 -1.03219e-30)
(5.30165 -0.0763975 -1.50323e-30)
(4.86455 -0.0531805 -3.4677e-28)
(4.47734 -0.0308408 8.63951e-28)
(4.3628 -0.0386564 0)
(4.04425 -0.035061 -2.9388e-28)
(3.97152 -0.0435507 -2.58062e-31)
(3.56554 -0.0446568 -1.38253e-28)
(3.46535 -0.0539669 -6.74777e-28)
(3.04974 -0.0455133 -1.30528e-31)
(2.74811 -0.0116883 3.02963e-28)
(2.63102 -0.0123267 -2.52578e-28)
(2.28325 0.0298167 0)
(2.21375 0.0208508 3.74062e-28)
(1.79253 0.0457359 0)
(1.71259 0.031288 2.86799e-28)
(1.42864 0.0240858 -1.27929e-30)
(1.22615 0.0721838 -2.64715e-30)
(1.12892 0.062707 0)
(0.799714 0.0894677 0)
(0.712675 0.073552 -5.54782e-28)
(0.36188 0.10119 2.78601e-30)
(0.291728 0.0950656 4.68949e-30)
(0.0678623 0.0773883 5.03759e-32)
(-0.0706906 0.130498 -1.41718e-28)
(-0.156986 0.106948 0)
(-0.374919 0.0990716 4.00244e-28)
(-0.4124 0.0882704 -6.0499e-28)
(-0.387037 -0.0340621 7.37888e-30)
(-0.270217 -0.023717 5.1157e-28)
(-0.260079 -0.0115212 0)
(-0.344354 0.12778 9.02529e-30)
(-0.363135 0.132457 -1.81418e-32)
(-0.48835 0.173736 5.50381e-30)
(-0.542749 0.108265 4.97986e-33)
(-0.551328 0.0992681 0)
(-0.575601 0.0572605 6.03769e-33)
(-0.567206 0.0439882 -5.4455e-38)
(-0.549862 0.0127095 8.68646e-33)
(9.74735 1.84443 2.06967e-28)
(9.8073 1.78246 1.68665e-31)
(9.84504 1.81789 -4.98886e-35)
(9.87784 1.76996 -3.53752e-31)
(9.97263 1.8015 9.53724e-34)
(9.98174 1.73613 0)
(10.0743 1.7955 -7.84728e-28)
(10.0002 1.81261 -9.77601e-28)
(9.94216 2.03163 0)
(9.74094 1.93376 -1.55459e-30)
(9.69087 1.86794 -1.99321e-34)
(9.40425 1.27951 -1.52033e-27)
(9.3831 1.22129 2.23418e-33)
(9.04501 0.783664 0)
(9.03054 0.756308 -1.27969e-27)
(8.66046 0.47032 6.88363e-35)
(8.43433 0.322664 1.50187e-31)
(8.27026 0.257113 3.05173e-31)
(8.03249 0.165614 7.84145e-28)
(7.88713 0.124917 -3.51461e-31)
(7.59052 0.0599931 -3.12533e-31)
(7.47255 0.037784 -4.37946e-31)
(7.11576 0.00110516 5.77908e-28)
(7.04176 -0.00942681 -6.10149e-28)
(6.61232 -0.0338633 2.8866e-33)
(6.58667 -0.037176 -6.11133e-28)
(6.08199 -0.0472581 -4.86444e-28)
(6.0864 -0.0389757 0)
(5.52503 -0.0237025 -9.54638e-28)
(5.29463 -0.0170881 6.68279e-28)
(5.09671 -0.0241671 7.4008e-28)
(4.81891 -0.030817 5.68238e-31)
(4.73591 -0.034331 0)
(4.29981 -0.0386916 -3.5621e-28)
(4.27595 -0.0450942 -5.49836e-28)
(3.73951 -0.033419 -2.89022e-31)
(3.53428 -0.0139512 4.88153e-28)
(3.28748 -0.0111566 6.49996e-31)
(3.00058 0.0200317 1.1819e-30)
(2.8927 0.0178635 2.12092e-35)
(2.42658 0.0409567 7.20452e-31)
(2.39215 0.0257306 7.89947e-28)
(1.9376 0.025505 -5.0441e-31)
(1.80082 0.0605118 4.06886e-28)
(1.62731 0.0566693 7.10313e-31)
(1.35216 0.0755573 0)
(1.26863 0.065857 -6.47902e-28)
(0.821117 0.092669 0)
(0.79269 0.0864427 0)
(0.390721 0.0788299 -5.43891e-28)
(0.236585 0.129047 -9.58345e-29)
(0.119443 0.112976 -3.60809e-29)
(-0.21104 0.109578 4.70814e-28)
(-0.256962 0.0937669 -1.29496e-27)
(-0.351464 -0.0339658 -1.74431e-27)
(-0.310499 -0.00299935 0)
(-0.310604 0.0114992 0)
(-0.372361 0.147042 -2.85068e-33)
(-0.388365 0.151815 5.60748e-32)
(-0.4837 0.181609 1.76952e-29)
(-0.552742 0.118793 -7.86415e-31)
(-0.562774 0.108816 -8.33368e-31)
(-0.604967 0.0627962 -5.7293e-29)
(-0.60659 0.0486336 1.4117e-29)
(-0.603497 0.01572 8.41625e-30)
(9.81382 1.8008 3.65009e-35)
(9.85863 1.74516 3.36147e-31)
(9.91447 1.78651 -4.61293e-35)
(9.96579 1.72152 -6.08576e-31)
(10.0562 1.75033 -1.84811e-28)
(10.0645 1.69766 -3.1986e-35)
(10.1492 1.74013 -3.4585e-31)
(10.0894 1.69045 4.14959e-32)
(10.0478 1.85789 -1.67144e-30)
(9.85891 2.02509 -1.45446e-30)
(9.75788 1.96937 -1.80462e-27)
(9.50544 1.41263 -4.10534e-31)
(9.44659 1.32127 0)
(9.16499 0.893525 -8.68915e-32)
(9.09407 0.830905 -1.05616e-27)
(8.80846 0.548254 6.00474e-35)
(8.50621 0.373223 1.38839e-32)
(8.43974 0.324622 0)
(8.11599 0.209458 -2.44814e-31)
(8.03567 0.182554 -5.75542e-28)
(7.68877 0.0982927 -2.76318e-31)
(7.60072 0.0800639 0)
(7.23701 0.0346563 3.7004e-31)
(7.14825 0.0219242 -5.7676e-28)
(6.76823 -0.00398645 -5.51758e-28)
(6.67613 -0.0133563 -1.18314e-27)
(6.28158 -0.0223873 -5.16672e-28)
(6.16486 -0.0213507 1.40561e-30)
(5.7659 -0.00587212 -4.38937e-28)
(5.39507 -0.00556445 6.77423e-28)
(5.28654 -0.00930954 1.54928e-27)
(4.95055 -0.0253848 -3.75966e-28)
(4.86529 -0.0271713 -1.81758e-32)
(4.478 -0.0311243 4.10787e-28)
(4.37196 -0.0373037 -1.28542e-30)
(3.95901 -0.0263215 -7.77852e-28)
(3.6219 -0.0137414 5.29775e-28)
(3.49884 -0.00772349 -4.68358e-31)
(3.11468 0.0150532 1.74368e-28)
(3.02439 0.0165736 1.84958e-28)
(2.58401 0.0419167 -1.82828e-35)
(2.47933 0.0260372 4.20684e-28)
(2.0852 0.0252508 9.19313e-35)
(1.87106 0.0547107 9.83645e-28)
(1.77097 0.0547533 7.11163e-31)
(1.45281 0.0684383 0)
(1.36276 0.0609613 -3.41045e-28)
(0.975922 0.0870173 -1.68312e-28)
(0.857127 0.0810186 -3.32731e-28)
(0.519792 0.0753314 -5.94862e-28)
(0.300898 0.125066 0)
(0.191854 0.114227 -9.6997e-29)
(-0.143027 0.115005 6.00448e-30)
(-0.221645 0.0906179 -1.28921e-27)
(-0.359855 -0.036313 -1.76336e-27)
(-0.312271 0.00154257 -7.8068e-31)
(-0.315205 0.0166444 -3.41431e-28)
(-0.374525 0.152647 2.65386e-29)
(-0.388367 0.155668 8.06915e-34)
(-0.484576 0.190557 1.72786e-32)
(-0.553496 0.121536 7.10487e-30)
(-0.563478 0.111483 1.2682e-29)
(-0.613422 0.0633242 4.10609e-34)
(-0.612461 0.047325 2.2652e-29)
(-0.622371 0.017155 3.41132e-30)
(9.98437 1.784 -4.83894e-32)
(10.0424 1.73748 -1.9225e-31)
(10.1129 1.76405 0)
(10.1772 1.69807 0)
(10.2623 1.74373 0)
(10.2756 1.68737 3.70056e-28)
(10.3684 1.72275 3.8678e-31)
(10.3122 1.64566 2.26735e-31)
(10.3194 1.7872 5.15542e-31)
(10.126 2.04741 1.4149e-30)
(10.0144 2.2356 -1.77448e-27)
(9.78017 1.76133 1.17223e-30)
(9.75433 1.69914 -9.87202e-28)
(9.48554 1.22501 8.25875e-35)
(9.46296 1.19133 -8.70333e-28)
(9.16447 0.833426 5.39984e-28)
(8.94601 0.640474 8.98313e-32)
(8.82305 0.550762 -1.22618e-31)
(8.59446 0.425229 0)
(8.47817 0.367089 -6.01338e-28)
(8.20473 0.271315 2.36361e-31)
(8.10418 0.238314 6.15465e-28)
(7.78504 0.171922 3.24637e-31)
(7.71726 0.158026 6.45192e-28)
(7.34077 0.105036 2.5048e-31)
(7.30871 0.103981 -6.77806e-28)
(6.8779 0.0657999 -6.19017e-28)
(6.86188 0.077381 0)
(6.38915 0.0663417 1.11801e-31)
(6.14039 0.0624471 1.49228e-27)
(5.97129 0.0488478 8.48084e-28)
(5.68766 0.0300926 -8.67539e-28)
(5.60566 0.0280967 0)
(5.19994 0.0158048 5.57482e-28)
(5.17269 0.0173693 1.26043e-30)
(4.69225 0.0174532 -1.65231e-27)
(4.44831 0.0261228 1.03037e-30)
(4.2135 0.0225982 5.38879e-28)
(3.89738 0.0425383 -2.14347e-29)
(3.77781 0.0442383 1.57563e-31)
(3.30651 0.0627553 2.46989e-28)
(3.26277 0.052052 -4.86484e-28)
(2.74831 0.0481733 0)
(2.54291 0.0697039 5.23296e-28)
(2.34477 0.0679774 0)
(2.06726 0.0779787 1.19045e-31)
(1.98837 0.0751622 1.0701e-30)
(1.54556 0.091761 -3.98201e-28)
(1.50703 0.0925978 -7.59939e-32)
(1.02045 0.0829498 -6.14562e-28)
(0.786503 0.132052 0)
(0.638642 0.126506 1.21535e-28)
(0.186423 0.129493 -5.6967e-30)
(0.108203 0.10362 -1.33229e-27)
(-0.21452 -0.0213016 0)
(-0.279165 0.029816 -7.25332e-28)
(-0.299932 0.0414888 -7.16255e-28)
(-0.366012 0.167232 2.29233e-29)
(-0.377347 0.17262 0)
(-0.466337 0.199707 -1.37573e-30)
(-0.554415 0.136501 1.19482e-29)
(-0.567572 0.125514 2.24705e-29)
(-0.637953 0.0711692 6.52767e-29)
(-0.646213 0.0572407 0)
(-0.672016 0.0252623 1.62293e-30)
(10.0458 1.75561 -1.70742e-28)
(10.1162 1.70659 0)
(10.1917 1.71782 0)
(10.2661 1.66592 -1.51096e-28)
(10.3341 1.70759 2.34196e-31)
(10.3451 1.65076 4.06134e-28)
(10.4378 1.67787 -4.35625e-28)
(10.4021 1.57065 3.75789e-31)
(10.4228 1.66944 -1.12026e-27)
(10.2467 1.75595 2.07292e-27)
(10.0932 2.09936 -1.8849e-30)
(9.87098 1.87148 -7.47247e-31)
(9.81886 1.78302 -8.89267e-28)
(9.58665 1.33103 -3.04967e-31)
(9.5268 1.25982 -1.35585e-34)
(9.28256 0.906812 1.02798e-27)
(9.02038 0.687462 6.6373e-28)
(8.96299 0.617704 -8.77668e-32)
(8.68031 0.467938 7.27398e-35)
(8.61051 0.426853 -6.46773e-28)
(8.30454 0.308959 0)
(8.22649 0.281256 6.91027e-28)
(7.90475 0.205465 5.97001e-31)
(7.82434 0.18739 7.35067e-28)
(7.48679 0.135907 7.35659e-28)
(7.40159 0.1241 7.83833e-28)
(7.05287 0.0925556 -7.1474e-28)
(6.94455 0.0908083 7.57317e-28)
(6.59393 0.0844622 -2.90542e-31)
(6.24996 0.072269 8.50282e-28)
(6.15412 0.0657177 -1.78137e-31)
(5.82771 0.0378716 -6.73937e-28)
(5.74365 0.0359419 6.09314e-28)
(5.38246 0.0250268 7.25268e-28)
(5.27991 0.0219441 -8.34433e-28)
(4.91002 0.0253217 -8.93197e-28)
(4.55225 0.0244256 0)
(4.43597 0.0275194 1.35523e-27)
(4.03484 0.0363408 0)
(3.93417 0.0412002 5.21914e-33)
(3.49127 0.0606226 3.58627e-28)
(3.37159 0.0493657 -1.20741e-27)
(2.91795 0.0474042 1.01024e-27)
(2.63413 0.0618345 0)
(2.51527 0.0652975 -5.88777e-28)
(2.18708 0.0686772 0)
(2.0991 0.0675599 4.88799e-28)
(1.71912 0.083321 -2.82248e-28)
(1.58719 0.0824579 4.30288e-28)
(1.20187 0.0752526 7.34091e-28)
(0.884951 0.121644 -9.27676e-32)
(0.751203 0.121298 1.55975e-28)
(0.304438 0.127622 0)
(0.172097 0.0955963 -6.99785e-28)
(-0.203513 -0.0260868 -1.31582e-27)
(-0.26841 0.0336023 -7.03465e-28)
(-0.291761 0.0442552 -5.7084e-28)
(-0.359677 0.169545 6.40929e-29)
(-0.373404 0.174567 0)
(-0.459181 0.20589 -2.79294e-29)
(-0.553515 0.139994 1.22914e-29)
(-0.566951 0.129186 -1.52596e-32)
(-0.645102 0.0710236 5.37463e-29)
(-0.650828 0.0591648 0)
(-0.689014 0.0282489 6.02804e-31)
(10.2283 1.73912 -2.10772e-28)
(10.3068 1.68273 -3.52266e-35)
(10.3832 1.70223 -9.16191e-32)
(10.4354 1.65752 -1.99541e-28)
(10.4948 1.69261 -2.56417e-31)
(10.5244 1.64361 4.45881e-28)
(10.623 1.65607 -3.41151e-28)
(10.6086 1.54837 0)
(10.665 1.62276 -9.56619e-28)
(10.4947 1.63931 1.43215e-27)
(10.359 1.95497 1.1316e-30)
(10.1388 2.13138 1.71313e-27)
(10.0955 2.10811 -3.66905e-31)
(9.86894 1.67155 0)
(9.84906 1.62792 0)
(9.59864 1.23238 5.43405e-28)
(9.40897 0.993287 1.34119e-27)
(9.30046 0.880922 0)
(9.10091 0.715479 0)
(8.9999 0.642146 -6.70157e-28)
(8.7611 0.510387 0)
(8.67224 0.467112 7.21089e-28)
(8.39472 0.368662 -7.62524e-28)
(8.33378 0.349517 4.07468e-31)
(8.00437 0.268718 1.5111e-27)
(7.97523 0.26568 1.58726e-27)
(7.59653 0.203087 -3.43247e-31)
(7.58383 0.212164 1.53323e-27)
(7.16594 0.177039 0)
(6.93857 0.160822 0)
(6.78679 0.144107 0)
(6.523 0.115141 0)
(6.44575 0.11158 7.20372e-28)
(6.07772 0.0901938 -1.80121e-33)
(6.05495 0.0942314 -8.6661e-28)
(5.61607 0.0853912 2.90039e-31)
(5.3855 0.082014 0)
(5.16266 0.0743406 7.62822e-28)
(4.85639 0.0808574 7.98019e-35)
(4.73445 0.0836365 -2.98807e-28)
(4.28202 0.0944424 8.68444e-33)
(4.24204 0.091316 -6.52803e-28)