/*--------------------------------*- C++ -*----------------------------------*\
| =========                 |                                                 |
| \\      /  F ield         | OpenFOAM: The Open Source CFD Toolbox           |
|  \\    /   O peration     | Version:  v2012                                 |
|   \\  /    A nd           | Website:  www.openfoam.com                      |
|    \\/     M anipulation  |                                                 |
\*---------------------------------------------------------------------------*/
FoamFile
{
    version     2.0;
    format      ascii;
    class       volVectorField;
    location    "1e-06";
    object      UMean;
}
// * * * * * * * * * * * * * * * * * * * * * * * * * * * * * * * * * * * * * //

dimensions      [0 1 -1 0 0 0 0];


internalField   nonuniform List<vector> 
10302
(
(6.4206 1.47864 1.15444e-30)
(6.39234 1.39735 -2.43936e-26)
(6.46642 1.40005 -1.227e-26)
(6.45132 1.27234 -4.04879e-31)
(6.5196 1.26058 -2.40874e-26)
(6.65097 0.983328 0)
(6.68255 0.914368 -2.42054e-30)
(6.74474 0.189172 -8.52627e-30)
(6.64002 0.0906715 -9.57672e-30)
(6.1049 -0.432187 -1.01969e-29)
(5.92853 -0.43313 -3.79726e-27)
(5.01445 -0.454268 1.31985e-30)
(4.88816 -0.451945 0)
(4.27338 -0.423472 1.81179e-27)
(4.19185 -0.411038 -7.79084e-28)
(3.44572 -0.36604 0)
(3.41878 -0.359102 0)
(3.04774 -0.32955 0)
(2.99981 -0.332014 0)
(2.96812 -0.322136 0)
(2.55793 -0.286251 7.3184e-29)
(2.50477 -0.28075 1.29107e-28)
(2.08752 -0.232064 0)
(2.01586 -0.225567 -3.23664e-29)
(1.68728 -0.188107 -1.22929e-31)
(1.6141 -0.181628 -5.75632e-29)
(1.34379 -0.1514 1.99943e-31)
(1.28255 -0.14032 -9.3389e-31)
(0.966973 -0.101005 1.59563e-28)
(0.49801 -0.0137926 -5.25614e-29)
(0.347801 0.0063876 -1.39423e-28)
(0.0653317 0.0168191 1.16938e-27)
(0.0703274 0.0104133 0)
(0.207989 -0.0179022 1.05565e-31)
(0.202062 -0.0154043 1.99238e-31)
(0.200054 -0.0177794 0)
(0.0488706 0.0114909 0)
(-0.0507297 0.022215 7.43635e-29)
(-0.0207413 0.0149104 1.49296e-27)
(0.00715514 0.00872195 0)
(0.0627668 0.00266543 4.42546e-33)
(0.0131106 0.00987056 3.55675e-31)
(-0.147276 0.0230827 -1.87162e-30)
(-0.24437 0.0393272 7.81673e-32)
(-0.306337 0.0468237 -2.06164e-29)
(-0.338022 0.048253 -1.03914e-28)
(-0.346232 0.0492249 -2.13934e-28)
(-0.345023 0.0473915 -1.80172e-30)
(-0.335603 0.0465195 -1.17742e-28)
(-0.295326 0.0390022 3.58382e-30)
(-0.231391 0.0306515 2.92103e-31)
(-0.235765 0.0283603 0)
(0.0244317 -0.0109272 -2.36287e-30)
(0.0696433 -0.021684 3.76568e-28)
(0.274635 -0.0793712 2.08878e-31)
(0.155736 -0.0592943 -1.9505e-28)
(0.143398 -0.0548974 2.28971e-28)
(0.143055 -0.0119601 0)
(0.108208 -0.00882801 2.41316e-34)
(-0.0230014 0.00916949 -6.69403e-30)
(-0.179427 0.0266679 2.08836e-34)
(-0.200991 0.0289339 -3.03407e-31)
(-0.202127 0.0245205 0)
(-0.164365 0.0198455 -2.38255e-31)
(-0.121095 0.0132133 -1.15299e-31)
(6.99164 1.5263 -1.60532e-26)
(6.91823 1.43875 6.60167e-32)
(7.05009 1.45275 1.52546e-26)
(6.96107 1.31892 0)
(7.08475 1.32057 -2.98759e-26)
(7.12982 1.02471 0)
(7.2408 0.972326 -2.91267e-26)
(7.30109 0.225373 1.08331e-30)
(7.26317 0.119043 2.64618e-30)
(6.70479 -0.424322 -6.39193e-27)
(6.61449 -0.429586 -5.98829e-27)
(5.64229 -0.450175 1.12955e-30)
(5.61778 -0.460925 5.88188e-31)
(4.9328 -0.434084 1.58475e-27)
(4.92675 -0.432962 1.75111e-27)
(4.49041 -0.424287 0)
(4.07727 -0.394134 0)
(4.02267 -0.384358 -3.5626e-31)
(3.59704 -0.363079 8.56909e-28)
(3.4616 -0.341716 0)
(3.08385 -0.311225 3.00607e-28)
(2.98103 -0.301909 2.00424e-28)
(2.55084 -0.252807 1.30975e-28)
(2.47957 -0.249394 -1.8159e-28)
(2.07843 -0.204182 1.65925e-31)
(2.03811 -0.203495 3.12358e-29)
(1.67123 -0.162513 2.42707e-31)
(1.65483 -0.159747 -9.83529e-31)
(1.38104 -0.107694 3.94563e-28)
(0.845994 -0.0211931 -2.41855e-28)
(0.66655 -0.011207 2.04465e-30)
(0.448218 0.0211836 2.20063e-27)
(0.436945 0.00675339 1.929e-27)
(0.47978 -0.0198755 0)
(0.423729 -0.0101324 0)
(0.457257 -0.0361255 1.82246e-28)
(0.235675 0.0266978 0)
(0.0942269 0.0230849 1.51772e-28)
(0.131543 0.0301795 2.51833e-27)
(0.143573 0.0231967 1.08768e-30)
(0.225376 0.00936088 -1.34855e-27)
(0.0961642 0.0351487 -4.27888e-35)
(-0.037065 0.0266307 -2.03962e-30)
(-0.219143 0.0504304 -8.84824e-29)
(-0.29125 0.0547818 -3.43058e-29)
(-0.348115 0.0599822 0)
(-0.360613 0.0611149 4.29417e-32)
(-0.371314 0.0596915 0)
(-0.374068 0.0599299 -6.22171e-28)
(-0.337519 0.0478155 -1.79295e-30)
(-0.297231 0.048369 -6.33207e-28)
(-0.303918 0.0415922 1.95446e-30)
(-0.0419132 0.00538196 7.8796e-28)
(-0.0372942 0.0127152 1.04981e-27)
(0.0798055 -0.0300961 0)
(0.0357618 -0.0505899 -5.03141e-33)
(0.038245 -0.050324 4.54859e-28)
(0.0416797 0.00232518 -4.79689e-33)
(0.0112194 0.00675959 8.84956e-29)
(-0.13084 0.0361156 -3.30313e-29)
(-0.274706 0.0432611 0)
(-0.289359 0.0433956 0)
(-0.278409 0.0340619 -1.18784e-31)
(-0.25972 0.0305485 2.46054e-31)
(-0.178301 0.0182832 1.02946e-28)
(7.72956 2.16408 -6.90188e-27)
(7.70297 2.07097 6.29233e-27)
(7.80354 2.09169 1.26276e-26)
(7.73292 1.98157 5.5337e-34)
(7.83142 2.00066 -1.14585e-26)
(7.83995 1.73346 0)
(7.9339 1.70402 -1.10306e-26)
(7.95032 0.79131 -1.55448e-30)
(7.94455 0.712961 -1.41313e-30)
(7.4956 -0.104445 -3.45242e-27)
(7.42345 -0.118935 -1.96998e-30)
(6.53632 -0.291988 -6.03734e-31)
(6.53215 -0.298072 3.64662e-31)
(5.80133 -0.352611 1.00337e-27)
(5.84421 -0.3506 1.40931e-27)
(5.38846 -0.367028 5.73512e-31)
(4.94402 -0.353923 -4.35659e-35)
(4.67024 -0.350771 -2.66372e-31)
(4.4159 -0.343989 5.28398e-31)
(4.24128 -0.332222 -3.51133e-36)
(3.8596 -0.308264 5.79982e-33)
(3.73815 -0.300138 3.34565e-29)
(3.27819 -0.25726 -4.84065e-29)
(3.20407 -0.253575 1.3166e-31)
(2.72239 -0.212161 2.69089e-31)
(2.6951 -0.210076 3.14178e-31)
(2.18997 -0.169612 4.54221e-31)
(2.21692 -0.167052 9.3744e-31)
(1.76429 -0.102394 4.54277e-28)
(1.50776 -0.0354273 0)
(1.33974 -0.0297833 1.17339e-27)
(1.02339 0.0502883 3.84143e-27)
(0.998566 0.0270045 3.3408e-27)
(0.871446 -0.0482832 0)
(0.857042 -0.0448729 0)
(0.683558 -0.0388428 2.50855e-28)
(0.572162 0.0101466 0)
(0.440182 0.00564362 0)
(0.314973 0.0925414 0)
(0.34045 0.0818469 -4.47159e-27)
(0.27637 0.0171785 -5.67144e-28)
(0.215945 0.0353809 -7.65153e-33)
(0.0324128 0.0393286 -3.37304e-28)
(-0.155746 0.0695168 -2.23845e-28)
(-0.238529 0.0689328 0)
(-0.328493 0.0736027 4.75983e-31)
(-0.347436 0.0743609 4.07027e-28)
(-0.390113 0.0727445 0)
(-0.400192 0.0742164 -9.87446e-28)
(-0.387325 0.059423 0)
(-0.378864 0.0632727 -1.03536e-27)
(-0.390791 0.0500205 0)
(-0.160295 0.0107524 1.06341e-27)
(-0.146373 0.0152831 2.51827e-30)
(0.0143366 -0.0471672 4.72129e-31)
(-0.0666081 -0.0521781 3.35714e-29)
(-0.0745871 -0.0468818 -4.28259e-29)
(-0.0955594 0.0273804 0)
(-0.127593 0.0331654 -4.7221e-33)
(-0.245359 0.064519 -4.31941e-32)
(-0.390904 0.065306 2.02469e-33)
(-0.403514 0.0627575 1.70918e-29)
(-0.380095 0.0434527 0)
(-0.360596 0.0380579 0)
(-0.266857 0.0211511 0)
(7.85999 2.25769 -5.89859e-27)
(7.82988 2.16719 0)
(7.9322 2.17904 5.31937e-27)
(7.86386 2.097 0)
(7.95653 2.13407 0)
(7.96487 1.95274 5.59107e-27)
(8.0383 1.91713 -4.41865e-32)
(8.44181 1.26259 1.33223e-31)
(8.04589 0.926183 0)
(7.64206 0.0356454 -1.24519e-27)
(7.49918 -0.0061604 0)
(6.75367 -0.202772 0)
(6.60447 -0.226261 0)
(6.0724 -0.291073 2.23567e-28)
(5.90746 -0.2999 -5.81791e-31)
(5.41865 -0.3268 -3.65971e-31)
(4.99828 -0.315001 6.11054e-31)
(4.95154 -0.319853 -1.78792e-31)
(4.47906 -0.316853 -1.22022e-32)
(4.42764 -0.309113 0)
(3.93042 -0.284882 5.25874e-28)
(3.85107 -0.27921 1.20977e-27)
(3.36921 -0.237745 6.49398e-32)
(3.27727 -0.234322 5.88149e-28)
(2.85633 -0.197847 -1.66644e-31)
(2.74588 -0.191877 -1.15111e-31)
(2.38772 -0.161135 0)
(2.25259 -0.149323 5.25098e-28)
(1.89499 -0.0889719 -1.13176e-32)
(1.55185 -0.0253618 0)
(1.46615 -0.0218703 2.62079e-28)
(1.11306 0.0227338 -1.39138e-30)
(1.08194 -0.00623324 1.78301e-30)
(0.945296 -0.0421431 -1.38327e-27)
(0.882845 -0.0320289 0)
(0.742645 -0.0318661 2.25166e-31)
(0.59186 0.0192304 -9.63704e-28)
(0.529612 0.0104987 -3.84151e-28)
(0.344158 0.0567322 0)
(0.369621 0.0402551 -6.20697e-27)
(0.286598 0.025846 -2.50764e-30)
(0.222415 0.0476053 -1.04625e-27)
(0.0385337 0.0506252 5.50033e-32)
(-0.148478 0.0788877 -4.43555e-28)
(-0.219289 0.0753977 6.58119e-31)
(-0.32345 0.0824727 -6.2905e-28)
(-0.343335 0.0826321 1.39814e-30)
(-0.386501 0.0816578 0)
(-0.399368 0.0826626 -1.38846e-27)
(-0.397756 0.0656032 -1.72205e-30)
(-0.38046 0.0742038 -1.2691e-31)
(-0.395817 0.0559823 9.2739e-28)
(-0.184488 0.0182933 0)
(-0.156823 0.026358 -1.73089e-27)
(-0.0288551 -0.0469631 -5.77129e-35)
(-0.0696528 -0.0513723 -2.06669e-29)
(-0.0768991 -0.048527 -1.46483e-29)
(-0.109121 0.0308486 -3.02382e-29)
(-0.130253 0.0347663 2.90328e-29)
(-0.287899 0.0761445 0)
(-0.393989 0.0682882 -8.95128e-33)
(-0.408604 0.0641538 3.45873e-30)
(-0.392258 0.0449284 1.73988e-28)
(-0.363662 0.037797 0)
(-0.284583 0.0202579 1.1395e-31)
(8.32821 2.31082 -1.42621e-26)
(8.31519 2.20102 -6.9163e-27)
(8.41201 2.20844 -7.29734e-31)
(8.37437 2.13801 0)
(8.46119 2.19083 1.03845e-26)
(8.44344 2.14906 5.61662e-27)
(8.5079 2.16679 -2.34415e-32)
(8.54819 1.42381 -1.06298e-31)
(8.4958 1.30708 0)
(8.15327 0.334365 -2.04706e-27)
(8.05822 0.283324 5.85606e-31)
(7.4208 -0.0370215 4.09538e-31)
(7.33281 -0.0663046 0)
(6.77071 -0.193369 0)
(6.68336 -0.204301 1.03866e-27)
(6.21631 -0.26004 -4.21833e-28)
(5.78215 -0.278496 1.78768e-31)
(5.71058 -0.290471 -5.69187e-28)
(5.25456 -0.295444 4.25106e-28)
(5.14934 -0.292126 -2.64625e-31)
(4.69145 -0.279257 2.32693e-36)
(4.58895 -0.276248 9.29637e-29)
(4.10933 -0.242779 1.05649e-31)
(4.01937 -0.242756 2.66385e-29)
(3.54234 -0.208401 -2.10409e-28)
(3.46023 -0.207651 -1.57113e-28)
(2.98756 -0.173692 2.34658e-31)
(2.90299 -0.16513 9.47566e-29)
(2.47161 -0.102253 -1.16666e-28)
(2.19339 -0.048094 0)
(2.09011 -0.04306 0)
(1.8325 -0.0240236 -2.41486e-27)
(1.78689 -0.054052 6.51315e-31)
(1.42367 -0.0662312 -1.00148e-27)
(1.36984 -0.0602856 0)
(1.11932 -0.0471704 3.8204e-33)
(0.968988 0.000171376 -3.36741e-32)
(0.886962 -0.00412311 -5.07921e-28)
(0.673845 0.03793 -1.70698e-30)
(0.665346 0.0227615 -5.54572e-27)
(0.441939 0.0282294 6.53748e-28)
(0.390098 0.0489545 -8.79138e-28)
(0.221655 0.0521719 5.48223e-28)
(0.0141463 0.0839573 -2.91992e-30)
(-0.0743072 0.0782327 0)
(-0.234715 0.0886935 1.79893e-32)
(-0.262816 0.0875612 -5.77571e-28)
(-0.341868 0.0881325 -1.75292e-30)
(-0.359866 0.0899428 -7.91337e-28)
(-0.39065 0.0717118 -1.71075e-30)
(-0.410965 0.0851765 1.63953e-27)
(-0.438915 0.0625437 1.11913e-27)
(-0.323338 0.0318855 -1.65126e-27)
(-0.291799 0.0454305 -2.4285e-27)
(-0.0817733 -0.0661029 2.52478e-27)
(-0.0966224 -0.0612702 -1.75677e-28)
(-0.100935 -0.0567586 -1.15225e-33)
(-0.182481 0.0498037 1.75067e-29)
(-0.212901 0.0561716 4.84888e-30)
(-0.399337 0.105756 8.76196e-33)
(-0.46166 0.0815162 -5.74036e-33)
(-0.471414 0.0757844 0)
(-0.450453 0.0487076 2.4358e-28)
(-0.427169 0.0407153 2.44518e-31)
(-0.349603 0.0202882 -1.4139e-28)
(8.75571 2.29058 -9.38888e-27)
(8.77597 2.18594 -9.21388e-27)
(8.86847 2.20341 0)
(8.85867 2.12687 -7.9358e-27)
(8.93978 2.17711 -9.848e-32)
(8.90701 2.18919 -9.62121e-27)
(8.96445 2.27979 -3.85301e-31)
(8.90946 1.77167 -1.86006e-27)
(8.90497 1.65277 1.0792e-31)
(8.59701 0.66976 -8.40985e-32)
(8.54711 0.612859 2.72941e-27)
(7.99947 0.174348 1.73826e-27)
(7.96391 0.152725 0)
(7.39675 -0.054348 -2.45488e-31)
(7.3836 -0.0597543 7.77499e-33)
(6.83374 -0.160904 -1.46727e-27)
(6.53105 -0.202152 -1.631e-31)
(6.32177 -0.22114 -8.03511e-28)
(6.00702 -0.243913 0)
(5.84063 -0.249071 2.29588e-31)
(5.44747 -0.249611 1.83418e-31)
(5.31871 -0.249472 -3.57884e-28)
(4.85871 -0.228045 0)
(4.77526 -0.227612 3.39619e-28)
(4.25581 -0.202301 2.83458e-28)
(4.2176 -0.200135 1.82108e-28)
(3.64302 -0.170904 -1.12032e-28)
(3.63 -0.163632 -2.09878e-28)
(3.04677 -0.0995021 7.31746e-36)
(2.85484 -0.0626245 -1.45911e-30)
(2.70717 -0.0564165 5.55217e-28)
(2.48862 -0.0496593 3.40019e-32)
(2.43448 -0.0699545 0)
(1.97572 -0.0711886 0)
(1.94507 -0.0674259 6.30094e-31)
(1.55367 -0.0527941 -6.02086e-32)
(1.42786 -0.0118355 5.20046e-28)
(1.29374 -0.0121279 -2.32512e-28)
(1.07054 0.0251725 0)
(1.03183 0.0148354 -2.32575e-27)
(0.703044 0.0329886 -1.44517e-30)
(0.672698 0.0487531 0)
(0.472799 0.0490849 -6.39943e-28)
(0.282358 0.0852098 0)
(0.160956 0.0791778 -8.04189e-29)
(-0.0528298 0.0932376 6.63547e-28)
(-0.0936308 0.0910652 5.29653e-32)
(-0.241611 0.0936779 9.48564e-28)
(-0.254662 0.0960602 -9.06409e-28)
(-0.333225 0.0769737 -1.71153e-30)
(-0.381451 0.0968185 1.94548e-27)
(-0.421878 0.0727632 -2.00762e-30)
(-0.420271 0.0478806 -2.09821e-27)
(-0.404692 0.0561783 -1.51236e-34)
(-0.203058 -0.0527417 2.26432e-27)
(-0.130102 -0.0573686 3.18888e-28)
(-0.117026 -0.0576968 -8.08588e-31)
(-0.22979 0.0690355 2.78556e-29)
(-0.263488 0.0765665 0)
(-0.433233 0.122232 2.32849e-29)
(-0.499338 0.0896923 3.21308e-29)
(-0.507199 0.0829679 1.1453e-29)
(-0.492285 0.0510844 -3.15995e-28)
(-0.475241 0.0422587 1.94838e-28)
(-0.406346 0.0199105 -3.8226e-28)
(8.83347 2.21241 1.10105e-26)
(8.86882 2.13384 0)
(8.96234 2.15017 0)
(8.9552 2.06897 -1.76522e-26)
(9.03197 2.11884 -1.62604e-26)
(9.00296 2.08096 9.911e-31)
(9.04911 2.18787 9.37146e-31)
(9.00527 1.86888 -1.01566e-27)
(8.96787 1.75601 -2.63115e-31)
(8.69993 0.79709 -3.65508e-31)
(8.60512 0.697771 1.36509e-27)
(8.14395 0.268366 9.08378e-28)
(8.02572 0.212658 -9.60895e-28)
(7.57875 0.0187509 -1.31024e-31)
(7.44375 -0.0134813 -3.88944e-31)
(6.99505 -0.121501 -4.54152e-29)
(6.58815 -0.171572 1.71192e-31)
(6.53164 -0.180683 -3.11874e-31)
(6.07616 -0.218587 -3.30611e-28)
(6.01827 -0.218177 -1.01678e-28)
(5.53132 -0.227465 0)
(5.44737 -0.226666 0)
(4.97034 -0.209505 -5.26782e-29)
(4.86714 -0.209267 -1.07896e-28)
(4.41652 -0.187081 -1.13052e-28)
(4.28595 -0.184848 0)
(3.85754 -0.159471 8.70945e-33)
(3.68457 -0.147773 -3.1915e-32)
(3.18 -0.0902579 0)
(2.91122 -0.0547834 1.49073e-28)
(2.84764 -0.0485542 3.27476e-28)
(2.56923 -0.0506762 3.32404e-27)
(2.51304 -0.0647265 -6.74939e-35)
(2.10446 -0.0654235 -5.70073e-31)
(1.9957 -0.0625509 -7.10599e-31)
(1.70831 -0.0491894 -1.32116e-28)
(1.46448 -0.00669581 2.10321e-30)
(1.42034 -0.00796511 -1.38532e-30)
(1.12054 0.0265673 0)
(1.08793 0.0170185 0)
(0.765307 0.0406565 -2.57231e-30)
(0.700475 0.0528385 6.31234e-31)
(0.530406 0.0499367 -1.45676e-27)
(0.30847 0.0888809 -5.74836e-30)
(0.233535 0.0804295 -7.97915e-29)
(-0.0226826 0.0975844 0)
(-0.0677951 0.0928127 -2.85415e-30)
(-0.203928 0.0987599 1.069e-27)
(-0.244225 0.101123 -2.03951e-27)
(-0.302909 0.0799342 -3.18852e-30)
(-0.372674 0.103297 -3.03245e-31)
(-0.413491 0.0791682 1.54054e-27)
(-0.429555 0.054999 -1.12524e-29)
(-0.409414 0.056792 -1.69723e-29)
(-0.234732 -0.0566261 2.03895e-27)
(-0.133011 -0.0571269 6.39784e-28)
(-0.120422 -0.0570709 0)
(-0.237492 0.0736552 0)
(-0.26542 0.0787094 0)
(-0.445128 0.129826 -7.32832e-33)
(-0.501327 0.090478 3.96454e-29)
(-0.509603 0.0838856 7.58505e-33)
(-0.500416 0.0518477 -3.34137e-28)
(-0.478628 0.0422534 4.8367e-31)
(-0.42231 0.0185077 -1.67955e-28)
(9.14417 2.2287 -2.85312e-32)
(9.19988 2.14598 -1.09569e-26)
(9.28357 2.16158 1.03084e-26)
(9.28773 2.09176 -9.68551e-27)
(9.36731 2.103 0)
(9.3406 2.05072 -1.57478e-31)
(9.39397 2.15919 1.33593e-26)
(9.32664 2.10834 -4.11331e-30)
(9.28876 2.04006 1.26334e-27)
(9.04504 1.17157 1.28458e-31)
(8.99125 1.09837 6.18337e-28)
(8.58832 0.559663 -3.42651e-28)
(8.52531 0.525258 -1.27715e-28)
(8.10177 0.230685 0)
(8.02824 0.220267 -6.4894e-29)
(7.65926 0.0498974 -1.75033e-31)
(7.24729 -0.0222992 0)
(7.19639 -0.0604132 0)
(6.76353 -0.100861 -6.59846e-33)
(6.64786 -0.121898 -4.17451e-33)
(6.23649 -0.139681 0)
(6.12778 -0.148896 2.49659e-28)
(5.68576 -0.145791 -5.24767e-28)
(5.59539 -0.147347 -2.68582e-28)
(5.11933 -0.141877 -2.27703e-35)
(5.04561 -0.135861 1.47365e-31)
(4.55015 -0.128991 2.46375e-28)
(4.45728 -0.108012 -4.21804e-28)
(3.97607 -0.0747586 0)
(3.62288 -0.0391568 -4.8318e-29)
(3.49704 -0.0376562 1.60475e-28)
(3.23054 -0.0417643 -2.00184e-32)
(3.16538 -0.0497876 -1.19239e-27)
(2.72845 -0.0517133 -8.07611e-35)
(2.65857 -0.0488005 1.43055e-30)
(2.26599 -0.0435021 1.17535e-28)
(2.018 -0.00129136 -6.69194e-28)
(1.90196 -0.00419049 0)
(1.61224 0.0284444 0)
(1.55265 0.0213851 0)
(1.16237 0.0474144 1.71523e-27)
(1.11695 0.0541641 0)
(0.91687 0.0479791 -7.40947e-28)
(0.68726 0.0929771 0)
(0.580208 0.0832304 0)
(0.289504 0.104018 0)
(0.227121 0.0970659 5.3901e-32)
(-0.021121 0.105105 3.40163e-30)
(-0.0525142 0.107825 -1.11111e-27)
(-0.18299 0.0849665 0)
(-0.277775 0.115876 -2.33425e-27)
(-0.3324 0.0906153 1.73362e-27)
(-0.438391 0.0661775 0)
(-0.430319 0.0620461 0)
(-0.301754 -0.0619252 -1.39174e-31)
(-0.190989 -0.0488685 3.88848e-28)
(-0.176682 -0.044464 -2.46589e-35)
(-0.285775 0.0968248 -1.06541e-29)
(-0.313276 0.103201 -1.29157e-32)
(-0.469197 0.148871 9.92994e-30)
(-0.524567 0.0983382 -3.01246e-29)
(-0.532484 0.0904366 4.45824e-30)
(-0.535129 0.0530685 0)
(-0.521177 0.0423155 -7.07028e-33)
(-0.477019 0.0159884 0)
(9.23392 2.18433 -1.23025e-26)
(9.29324 2.09992 -1.15102e-26)
(9.36569 2.12992 1.10519e-26)
(9.36296 2.0153 -1.11333e-26)
(9.43882 2.02416 -2.36963e-30)
(9.4374 1.95862 -1.99464e-26)
(9.48752 2.04476 1.66993e-26)
(9.63817 2.20714 0)
(9.61275 2.27909 2.45074e-27)
(9.15418 1.32605 -2.57135e-28)
(9.05069 1.19054 -3.6161e-33)
(8.71162 0.677764 6.06867e-28)
(8.58522 0.600312 -1.1401e-27)
(8.25027 0.328266 0)
(8.08786 0.278685 1.20685e-27)
(7.77899 0.121967 -5.15729e-28)
(7.30996 0.0200804 -4.56762e-31)
(7.30913 -0.00149468 1.14835e-31)
(6.83348 -0.0633249 -9.21594e-28)
(6.81162 -0.0775611 -5.79159e-28)
(6.32474 -0.108171 1.12426e-31)
(6.26033 -0.116504 1.41089e-27)
(5.80327 -0.118693 -7.33747e-28)
(5.69584 -0.122258 7.23783e-28)
(5.28824 -0.118128 5.60467e-28)
(5.12288 -0.116002 -2.17799e-31)
(4.77351 -0.107953 -3.01769e-31)
(4.51991 -0.0901735 0)
(4.15776 -0.0593792 3.5819e-31)
(3.69315 -0.0218224 -4.99253e-28)
(3.66077 -0.0266407 -7.08466e-29)
(3.32418 -0.035477 -1.44869e-27)
(3.25873 -0.0414448 -1.32349e-27)
(2.87967 -0.0421149 0)
(2.72163 -0.0408737 8.19528e-28)
(2.45441 -0.0329021 -4.81863e-29)
(2.06446 0.00893363 -1.92082e-27)
(2.05706 0.00134176 5.42352e-28)
(1.67609 0.0334284 -1.28168e-30)
(1.63097 0.0256165 2.09829e-27)
(1.25911 0.0562934 1.10976e-27)
(1.15773 0.0572982 -1.01992e-30)
(1.03343 0.0482146 1.27094e-30)
(0.722367 0.098651 0)
(0.682966 0.0834766 -1.45148e-30)
(0.341469 0.107558 5.79528e-31)
(0.273019 0.0973473 1.17763e-27)
(0.0502352 0.109366 0)
(-0.0340485 0.110346 0)
(-0.128737 0.0868613 -3.4782e-28)
(-0.260304 0.122183 -2.51779e-27)
(-0.311925 0.096988 -2.04742e-34)
(-0.427996 0.0738866 5.4209e-30)
(-0.429881 0.0634614 0)
(-0.313949 -0.0655915 -2.01027e-27)
(-0.198393 -0.0461516 4.23193e-28)
(-0.187975 -0.0380338 0)
(-0.296269 0.10262 -4.80104e-29)
(-0.316195 0.105937 1.06517e-32)
(-0.472582 0.153971 9.20026e-33)
(-0.526163 0.099205 -3.37995e-29)
(-0.534219 0.0916938 0)
(-0.543052 0.0539606 0)
(-0.525081 0.0423006 1.83106e-28)
(-0.493849 0.0135739 -9.90669e-32)
(9.50645 2.16862 1.29021e-26)
(9.57397 2.10241 -6.79933e-31)
(9.62787 2.07367 7.06937e-31)
(9.62453 1.96731 -1.27911e-26)
(9.7126 2.00886 1.1953e-26)
(9.71955 1.9311 0)
(9.78613 1.99951 0)
(9.73395 2.06309 -1.34614e-26)
(9.67584 2.23419 0)
(9.44008 1.65053 -9.57305e-28)
(9.38058 1.54882 -7.95346e-28)
(9.06685 0.959351 -5.66434e-28)
(9.00078 0.897721 5.969e-28)
(8.66244 0.532248 -1.80631e-31)
(8.58329 0.495872 -8.79905e-28)
(8.25513 0.271177 1.99584e-28)
(7.89473 0.152803 0)
(7.84391 0.113585 3.33624e-31)
(7.45695 0.0374003 2.40768e-28)
(7.37503 0.0131079 -3.1321e-31)
(6.97966 -0.0345639 -2.14987e-31)
(6.88944 -0.0498606 -2.34381e-28)
(6.47853 -0.0670662 1.66138e-28)
(6.38967 -0.0764529 -2.64086e-28)
(5.96165 -0.082613 -2.49044e-33)
(5.87161 -0.0869769 -2.71105e-31)
(5.43345 -0.0841451 -8.35586e-31)
(5.31514 -0.0738132 -1.59234e-30)
(4.86763 -0.0492318 -1.63907e-28)
(4.47737 -0.0241625 5.9323e-28)
(4.3685 -0.0299719 0)
(4.05117 -0.0419532 -3.51518e-28)
(3.97539 -0.0482539 -1.70498e-32)
(3.56667 -0.0449661 1.07731e-28)
(3.47443 -0.0514734 -5.12297e-28)
(3.05082 -0.0368657 -9.87668e-32)
(2.74528 -0.0088107 -1.31021e-29)
(2.63605 -0.0103111 -1.1818e-28)
(2.28953 0.0158673 0)
(2.21364 0.00876623 1.01656e-27)
(1.78842 0.0436592 0)
(1.7161 0.0332249 5.10552e-29)
(1.42475 0.0377135 -1.45872e-30)
(1.21337 0.0785531 -4.00858e-30)
(1.12474 0.0689192 0)
(0.800383 0.0913229 0)
(0.719086 0.0772981 -3.84664e-28)
(0.372961 0.0996153 3.23722e-30)
(0.310329 0.0947808 6.32574e-30)
(0.076481 0.0824357 5.5908e-32)
(-0.0728411 0.121687 -2.2874e-27)
(-0.1446 0.0979336 0)
(-0.354935 0.0786047 3.01671e-27)
(-0.376834 0.0616482 -3.00293e-27)
(-0.3643 -0.0716031 6.79937e-30)
(-0.269253 -0.0305934 3.82626e-28)
(-0.259855 -0.0171625 0)
(-0.344523 0.127746 9.72108e-30)
(-0.36336 0.132106 -1.86492e-32)
(-0.488577 0.174048 6.23616e-30)
(-0.542841 0.108044 2.63365e-33)
(-0.551066 0.0991355 0)
(-0.575538 0.0563679 -1.43275e-32)
(-0.567353 0.043942 1.70841e-35)
(-0.549756 0.0122912 5.95718e-32)
(9.77461 2.16304 1.3738e-26)
(9.82455 2.03509 1.97216e-30)
(9.85759 2.01397 -2.77608e-33)
(9.89334 1.95619 -3.43946e-30)
(9.9871 1.98251 -1.0247e-31)
(9.99405 1.90755 0)
(10.0841 1.9559 -2.24137e-26)
(10.0029 2.00613 -1.86014e-26)
(9.94939 2.21487 0)
(9.73916 1.97786 -2.73846e-30)
(9.70454 1.91056 -2.06411e-34)
(9.40979 1.30134 -1.71653e-27)
(9.396 1.25893 -6.20316e-33)
(9.04866 0.799453 0)
(9.04453 0.784547 -1.75165e-27)
(8.6622 0.479693 9.49117e-35)
(8.44306 0.340593 3.44107e-31)
(8.27755 0.271307 3.58287e-31)
(8.04103 0.180237 1.26016e-27)
(7.89539 0.137001 -3.31759e-31)
(7.59783 0.072335 -2.79344e-31)
(7.48212 0.0492402 -3.87055e-31)
(7.12208 0.0116192 1.00486e-27)
(7.05211 0.001957 -1.06983e-27)
(6.61689 -0.0243467 -2.1401e-33)
(6.59779 -0.0259728 -1.10832e-27)
(6.08606 -0.0390253 -8.10328e-28)
(6.10268 -0.0296213 0)
(5.52514 -0.0167811 -1.20497e-27)
(5.29688 -0.00529738 1.02627e-27)
(5.10367 -0.0114715 1.13277e-27)
(4.82742 -0.0291937 4.1364e-31)
(4.74433 -0.0320596 0)
(4.30349 -0.0335166 -6.5939e-28)
(4.2907 -0.0371119 -1.01839e-27)
(3.74227 -0.0221914 -3.01279e-31)
(3.53721 -0.00629525 7.21044e-28)
(3.29451 -0.00561596 3.89697e-31)
(3.01104 0.0127435 9.94923e-31)
(2.89954 0.0109509 2.43537e-35)
(2.42805 0.0415257 4.8549e-31)
(2.40371 0.0305087 1.14949e-27)
(1.93897 0.0402297 -5.64596e-31)
(1.79746 0.0688541 6.84839e-28)
(1.62854 0.0644086 8.55828e-31)
(1.35832 0.0798122 0)
(1.28106 0.0711951 -1.33346e-27)
(0.834786 0.0924665 0)
(0.817017 0.0878251 0)
(0.402889 0.0846236 -1.14132e-28)
(0.239859 0.12156 -1.90876e-27)
(0.136522 0.104151 -1.56021e-27)
(-0.187043 0.0883667 3.11937e-27)
(-0.214664 0.0669501 -6.00878e-27)
(-0.32458 -0.0661127 -2.13546e-27)
(-0.308863 -0.00980049 0)
(-0.309846 0.00635427 0)
(-0.372305 0.147914 -2.40271e-33)
(-0.388526 0.152708 5.14141e-32)
(-0.483378 0.181934 1.97264e-29)
(-0.55295 0.119021 -4.58734e-30)
(-0.562708 0.109015 -3.08106e-30)
(-0.605462 0.0619657 -3.58126e-28)
(-0.607647 0.0484782 1.24972e-28)
(-0.604282 0.0155935 7.1072e-30)
(9.81649 2.06675 2.91265e-33)
(9.85271 1.94894 1.23365e-29)
(9.91313 1.98289 -2.84575e-33)
(9.96577 1.90934 -3.20939e-30)
(10.0539 1.93341 -1.29043e-26)
(10.0606 1.87157 -2.44144e-33)
(10.1405 1.87223 8.9061e-30)
(10.0785 1.86101 -1.06737e-29)
(10.0301 2.04103 -1.66426e-29)
(9.83719 2.06947 -6.29871e-30)
(9.75587 1.99251 -1.28872e-27)
(9.50328 1.42353 -3.55146e-31)
(9.44591 1.33966 0)
(9.16276 0.901427 -9.48362e-32)
(9.09352 0.845458 -1.0058e-27)
(8.80553 0.55166 5.92734e-35)
(8.50036 0.383485 2.81271e-32)
(8.44147 0.333717 0)
(8.10974 0.218381 -2.19762e-31)
(8.03586 0.191748 -6.76846e-28)
(7.68271 0.106945 -2.25402e-31)
(7.60004 0.0890633 0)
(7.23187 0.0431465 2.90608e-31)
(7.14631 0.0310614 -7.60386e-28)
(6.76368 0.00475143 -7.25348e-28)
(6.67316 -0.00386833 -1.63977e-27)
(6.27892 -0.0140003 -7.05681e-28)
(6.16516 -0.0131534 1.45808e-30)
(5.76103 0.000475177 -4.54405e-28)
(5.38218 0.00598556 8.94105e-28)
(5.28302 0.0038778 2.0589e-27)
(4.94456 -0.0208691 -1.39616e-27)
(4.86081 -0.0227553 -2.5535e-31)
(4.47161 -0.0241953 7.2822e-28)
(4.37121 -0.0284629 -1.7047e-30)
(3.95378 -0.0144365 -8.4186e-28)
(3.60822 -0.00470201 7.9082e-28)
(3.49657 -0.000401986 -2.13587e-31)
(3.10921 0.0102716 -5.98276e-30)
(3.01837 0.0115805 5.5202e-29)
(2.57458 0.0433112 -9.48523e-36)
(2.47584 0.031651 6.29007e-28)
(2.07737 0.0412215 1.13904e-34)
(1.85273 0.0647815 1.70462e-27)
(1.76305 0.0639724 8.05308e-31)
(1.44555 0.0737049 0)
(1.36114 0.0669162 -8.34247e-28)
(0.979278 0.0870564 1.79376e-28)
(0.866301 0.0823498 -1.27544e-28)
(0.523449 0.0822974 -2.79635e-28)
(0.291521 0.116894 0)
(0.198098 0.104174 -1.5322e-27)
(-0.12778 0.0923261 4.80758e-30)
(-0.18971 0.0634888 -5.7445e-27)
(-0.333976 -0.0707063 -2.31936e-27)
(-0.310546 -0.00638766 -6.16298e-31)
(-0.313854 0.0107712 -3.25387e-28)
(-0.37424 0.152828 2.43151e-29)
(-0.38847 0.155543 -1.43345e-33)
(-0.484891 0.190773 1.38425e-32)
(-0.553512 0.121156 6.56187e-30)
(-0.563158 0.111168 1.20879e-29)
(-0.613047 0.062171 1.43548e-33)
(-0.611939 0.0466204 5.89072e-29)
(-0.621564 0.0169136 2.59941e-30)
(9.98971 2.00069 -7.12644e-30)
(10.0524 1.94717 -7.09718e-30)
(10.1251 1.96851 0)
(10.1885 1.89558 0)
(10.2719 1.93628 0)
(10.2786 1.8339 2.72984e-26)
(10.3723 1.8414 -9.44866e-30)
(10.318 1.82387 -1.13394e-29)
(10.3079 1.97634 1.2593e-29)
(10.1098 2.18772 1.05989e-29)
(10.0254 2.2801 -1.26444e-27)
(9.78735 1.78047 8.18626e-31)
(9.7677 1.72763 -7.99399e-28)
(9.49086 1.23785 6.82886e-35)
(9.47698 1.21543 -7.18092e-28)
(9.16721 0.839889 4.32006e-28)
(8.95691 0.655453 1.24247e-31)
(8.83112 0.563526 -8.81484e-32)
(8.60511 0.438639 0)
(8.48742 0.378946 -5.25393e-28)
(8.21438 0.283704 1.81763e-31)
(8.11476 0.250231 5.60318e-28)
(7.79369 0.183362 2.48808e-31)
(7.72897 0.170308 6.11284e-28)
(7.34747 0.116189 1.749e-31)
(7.32154 0.116862 -6.89729e-28)
(6.88397 0.0766163 -6.76644e-28)
(6.87959 0.0892674 0)
(6.39187 0.0739851 5.19545e-32)
(6.1476 0.0764491 1.67539e-27)
(5.98019 0.0637853 9.79277e-28)
(5.6988 0.0403925 -1.68542e-27)
(5.61759 0.0376468 0)
(5.20762 0.0267713 8.56722e-28)
(5.19057 0.0300479 1.59076e-30)
(4.69704 0.0308712 -1.78e-27)
(4.45495 0.0388102 1.30947e-30)
(4.22183 0.0331902 8.51685e-28)
(3.91017 0.0441896 -3.77498e-28)
(3.78846 0.0448525 4.90614e-31)
(3.31258 0.0671058 3.06847e-28)
(3.27829 0.0604174 -7.32179e-28)
(2.75193 0.0645427 0)
(2.54355 0.0810906 8.59777e-28)
(2.34838 0.0784476 0)
(2.07537 0.0853151 2.08182e-31)
(2.00075 0.0826615 1.25679e-30)
(1.55794 0.0936094 -3.29769e-28)
(1.53025 0.0955516 -1.05913e-31)
(1.03113 0.0912118 -5.17765e-28)
(0.791018 0.125576 0)
(0.655065 0.117282 1.30213e-27)
(0.210155 0.107265 -4.32108e-30)
(0.151708 0.0776644 -5.2965e-27)
(-0.183716 -0.0501001 0)
(-0.275687 0.0202426 -5.8121e-28)
(-0.297344 0.0356202 -8.29729e-28)
(-0.365385 0.167733 1.74339e-29)
(-0.376984 0.172726 0)
(-0.465924 0.199793 -1.43707e-30)
(-0.554492 0.136599 1.09531e-29)
(-0.567458 0.125617 2.10932e-29)
(-0.638459 0.0701805 2.73878e-28)
(-0.647056 0.0571117 0)
(-0.672685 0.0252896 2.22565e-30)
(10.039 1.97193 -1.70822e-26)
(10.1141 1.91883 0)
(10.19 1.92402 0)
(10.2635 1.86709 -1.45642e-26)
(10.3216 1.85858 -2.92348e-30)
(10.326 1.75681 2.96752e-26)
(10.4299 1.78554 -2.80165e-26)
(10.3988 1.7078 -1.30487e-29)
(10.4008 1.85309 -2.41864e-26)
(10.215 1.98182 1.6434e-26)
(10.0854 2.21433 -5.67594e-30)
(9.86828 1.88488 -4.56657e-31)
(9.81819 1.79363 -6.94284e-28)
(9.58464 1.33444 -2.71183e-31)
(9.52629 1.26886 3.20093e-32)
(9.27933 0.906077 7.5617e-28)
(9.01561 0.692864 4.76198e-28)
(8.96453 0.624448 -7.81169e-32)
(8.67525 0.473897 5.32566e-35)
(8.61117 0.434739 -4.83459e-28)
(8.29978 0.316426 0)
(8.22651 0.289995 5.29701e-28)
(7.90086 0.214115 4.87955e-31)
(7.82339 0.197029 5.89126e-28)
(7.48332 0.145702 6.39824e-28)
(7.39977 0.134899 6.82373e-28)
(7.0507 0.102822 -6.84484e-28)
(6.94568 0.101284 7.2089e-28)
(6.58992 0.0913308 -1.87317e-31)
(6.24011 0.0858955 8.88796e-28)
(6.15198 0.0806975 -2.45002e-31)
(5.82302 0.0504528 -1.01608e-27)
(5.74164 0.047446 9.09554e-28)
(5.37842 0.0379878 1.01868e-27)
(5.28102 0.0358309 -1.11571e-27)
(4.9057 0.0394371 -9.55736e-28)
(4.54013 0.0391665 0)
(4.43379 0.0403671 2.10046e-27)
(4.02943 0.0420318 0)
(3.93061 0.0450674 9.00115e-33)
(3.4844 0.0673172 5.8094e-28)
(3.37012 0.0594513 -1.89561e-27)
(2.91086 0.0647435 1.09847e-27)
(2.61752 0.0757987 0)
(2.50867 0.0780646 -1.13882e-27)
(2.17995 0.0786418 0)
(2.09631 0.0771342 1.14885e-27)
(1.71939 0.0867077 -5.24581e-28)
(1.59276 0.0865009 6.76e-28)
(1.20267 0.0856822 8.68387e-28)
(0.872474 0.11504 2.28894e-30)
(0.75311 0.11127 1.05709e-27)
(0.315594 0.10401 0)
(0.200412 0.0693229 -2.34896e-27)
(-0.177996 -0.0560374 -2.1647e-27)
(-0.267548 0.0230135 -5.68824e-28)
(-0.290377 0.0386362 -6.83171e-28)
(-0.359617 0.169744 6.48143e-29)
(-0.373837 0.174048 0)
(-0.459336 0.205587 -2.7793e-29)
(-0.553765 0.139427 1.14003e-29)
(-0.566903 0.128727 -1.87714e-32)
(-0.644945 0.0695744 1.67283e-28)
(-0.650379 0.0585893 0)
(-0.688272 0.0279303 5.37926e-31)
(10.2338 1.96341 -1.73429e-26)
(10.3149 1.90206 -3.12327e-33)
(10.3913 1.91763 -6.0448e-31)
(10.4347 1.86641 -1.51354e-26)
(10.4824 1.80562 -9.35247e-31)
(10.5147 1.74807 3.07209e-26)
(10.6259 1.76184 -2.89799e-26)
(10.6174 1.65044 0)
(10.6631 1.78119 -2.69785e-26)
(10.477 1.87889 2.26613e-26)
(10.357 2.18095 6.64356e-30)
(10.1343 2.17118 1.22039e-27)
(10.1073 2.13547 -2.93844e-31)
(9.87459 1.68683 0)
(9.86177 1.65158 0)
(9.60154 1.23938 4.28233e-28)
(9.41906 1.00781 9.1774e-28)
(9.308 0.894184 0)
(9.11072 0.729297 0)
(9.00855 0.654986 -4.93797e-28)
(8.77004 0.524143 0)
(8.68205 0.480438 5.55094e-28)
(8.40293 0.381646 -6.18084e-28)
(8.34474 0.363364 3.7631e-31)
(8.01093 0.281288 1.31802e-27)
(7.98726 0.280365 1.39599e-27)
(7.60239 0.215482 -2.92749e-31)
(7.60037 0.226552 1.48184e-27)
(7.16887 0.185601 0)
(6.9469 0.17688 0)
(6.79543 0.160116 0)
(6.53384 0.131589 0)
(6.45787 0.126637 9.97578e-28)
(6.08628 0.106084 -1.55539e-33)
(6.07287 0.110933 -1.14875e-27)
(5.62099 0.100527 2.73144e-31)
(5.39361 0.0998 0)
(5.17091 0.0898558 1.1775e-27)
(4.86902 0.0921889 2.0827e-34)
(4.74651 0.092549 -8.60612e-28)