/*--------------------------------*- C++ -*----------------------------------*\
| =========                 |                                                 |
| \\      /  F ield         | OpenFOAM: The Open Source CFD Toolbox           |
|  \\    /   O peration     | Version:  v2012                                 |
|   \\  /    A nd           | Website:  www.openfoam.com                      |
|    \\/     M anipulation  |                                                 |
\*---------------------------------------------------------------------------*/
FoamFile
{
    version     2.0;
    format      ascii;
    class       volSymmTensorField;
    location    "1e-06";
    object      UPrime2Mean;
}
// * * * * * * * * * * * * * * * * * * * * * * * * * * * * * * * * * * * * * //

dimensions      [0 2 -2 0 0 0 0];


internalField   nonuniform List<symmTensor> 
10302
(
(0.00128651 0.00977793 1.01323e-33 0.0744026 7.78305e-33 6.12323e-63)
(0.00113522 0.00868653 -8.93374e-29 0.0665459 -6.94725e-28 1.10336e-53)
(0.0011819 0.00891453 -4.68517e-29 0.0673518 -3.6018e-28 2.86274e-54)
(0.00103522 0.00804173 2.2256e-33 0.0626073 1.7545e-32 5.8488e-63)
(0.00122297 0.00879464 -1.17464e-28 0.0634685 -8.66516e-28 1.5611e-53)
(0.00117921 0.00815698 0 0.0568179 0 0)
(0.00181737 0.00989781 -2.9668e-34 0.054166 -2.59866e-33 2.72532e-62)
(0.00230417 0.00664068 4.66268e-33 0.0194358 1.05162e-32 3.49323e-61)
(0.00216202 0.00604953 -2.96321e-32 0.0171746 -8.9291e-32 9.68062e-61)
(0.00122255 0.000905659 -5.13543e-32 0.000695968 -4.10865e-32 2.86433e-60)
(0.000433396 0.000598505 -4.6853e-29 0.000863806 -7.20902e-29 6.63004e-54)
(5.98937e-05 7.36658e-05 2.77391e-33 9.45886e-05 3.73259e-33 1.58743e-61)
(0.00011779 0.000104845 0 0.000102578 0 0)
(3.55098e-05 2.72812e-05 8.83591e-30 2.31783e-05 8.39299e-30 3.40476e-54)
(0.000108019 3.5535e-05 -6.49877e-30 1.4341e-05 -2.88803e-30 6.07282e-55)
(3.1229e-07 9.10464e-07 0 2.77874e-06 0 0)
(1.26913e-05 7.94211e-06 0 6.28865e-06 0 0)
(1.33646e-06 1.38645e-06 0 1.62246e-06 0 0)
(5.01793e-05 7.21183e-06 0 1.5363e-06 0 0)
(4.6332e-05 -2.37675e-06 0 1.66996e-07 0 0)
(7.84616e-06 -1.47046e-06 2.35416e-31 2.89641e-07 -3.34867e-32 1.51423e-56)
(2.27536e-05 -3.94705e-06 7.47499e-31 6.87819e-07 -1.19385e-31 6.53379e-56)
(7.02091e-06 -1.97284e-06 0 5.56874e-07 0 0)
(1.5427e-05 -3.33083e-06 -1.82336e-31 7.20454e-07 3.8828e-32 6.73764e-57)
(6.34818e-06 -2.31292e-06 -1.21876e-34 8.6655e-07 5.01462e-35 3.80615e-63)
(8.805e-06 -3.36073e-06 -1.3755e-31 1.30937e-06 5.59867e-32 2.68809e-57)
(4.69254e-06 -2.23745e-06 -2.15993e-34 1.17595e-06 1.16074e-34 1.17695e-62)
(3.84372e-05 -9.47477e-06 5.81439e-34 2.3442e-06 -1.4842e-34 1.62087e-62)
(1.90195e-05 -2.3586e-06 -8.3507e-31 3.03743e-07 1.26357e-31 8.28853e-56)
(3.49257e-05 -5.43754e-06 2.60795e-31 8.50546e-07 -4.30546e-32 3.57749e-57)
(1.12867e-05 2.16003e-06 -3.87243e-31 4.53296e-07 -7.00399e-32 1.53938e-56)
(8.37239e-07 8.04881e-06 -3.62878e-31 0.000130186 -6.28599e-30 3.08842e-55)
(6.46118e-06 2.57974e-05 0 0.000103229 0 0)
(9.90575e-07 -2.1619e-07 -1.77906e-34 3.34845e-06 6.08006e-34 1.36072e-61)
(1.33286e-06 -2.01157e-06 -1.278e-34 3.86456e-06 2.74406e-34 2.12439e-62)
(3.61005e-05 -4.95585e-06 0 6.83338e-07 0 0)
(4.55956e-06 1.19819e-06 0 4.13474e-07 0 0)
(1.74114e-05 -2.86048e-06 6.71164e-31 4.81495e-07 -1.16563e-31 3.12904e-56)
(1.91807e-07 -1.49001e-06 7.7473e-32 0.000207321 -1.21369e-29 7.22738e-55)
(2.44241e-06 2.34057e-05 0 0.000231944 0 0)
(3.35273e-06 4.33447e-07 -1.11535e-35 2.60234e-07 -9.36698e-36 3.75578e-64)
(3.98856e-06 -1.85325e-06 -2.39519e-34 1.05052e-06 1.37232e-34 1.85102e-62)
(7.95515e-05 -1.35705e-05 9.97814e-33 2.3154e-06 -1.6966e-33 1.44505e-60)
(0.000221485 -2.71419e-05 -3.40522e-34 3.33285e-06 4.11643e-35 5.86468e-64)
(2.29611e-05 -3.54445e-06 2.56185e-31 5.47925e-07 -3.78519e-32 7.17036e-57)
(1.11221e-06 -3.72479e-07 -2.39689e-31 1.27419e-07 8.30623e-32 5.48613e-56)
(3.59843e-05 -5.32428e-06 -2.39034e-30 8.10072e-07 4.01484e-31 2.61603e-55)
(6.69092e-05 -1.10138e-05 -3.38026e-33 1.85925e-06 5.67327e-34 1.81982e-61)
(0.000142531 -2.21038e-05 -2.261e-30 3.47128e-06 3.82738e-31 5.9817e-56)
(4.65648e-05 -6.03441e-06 1.19854e-32 8.20469e-07 -1.74644e-33 4.07717e-60)
(6.50691e-07 -6.39962e-07 -5.83731e-35 1.24666e-06 -1.29492e-35 1.60545e-62)
(7.82651e-05 -1.80553e-05 0 4.4083e-06 0 0)
(0.000161537 -4.89784e-05 -4.49642e-33 1.5221e-05 1.35603e-33 1.61249e-61)
(0.00022865 -7.94612e-05 4.34044e-30 3.23313e-05 -1.55272e-30 1.21285e-55)
(1.43347e-06 -3.32121e-06 2.25586e-34 1.15311e-05 -1.18352e-33 1.60931e-61)
(9.6976e-07 -2.10302e-06 -2.52427e-32 4.56088e-06 5.47552e-32 8.26054e-58)
(4.69629e-07 -1.71708e-06 1.48899e-32 6.28018e-06 -5.52433e-32 9.35533e-58)
(5.21096e-08 -1.51151e-07 0 4.46006e-07 0 0)
(2.58556e-07 3.24471e-07 -1.00452e-38 4.09819e-07 -1.20557e-38 5.60033e-70)
(2.17732e-08 1.00267e-08 2.20217e-34 4.69775e-09 9.65986e-35 3.0055e-60)
(9.76667e-08 -1.11167e-08 2.86716e-37 1.26699e-09 -3.21108e-38 1.36244e-66)
(7.6395e-09 -3.93343e-09 -4.62212e-36 3.23074e-09 -1.78566e-35 4.15929e-61)
(1.11588e-07 -2.44034e-09 0 1.02489e-10 0 0)
(2.74393e-07 -4.90565e-08 1.65549e-34 8.77208e-09 -2.94691e-35 2.44274e-61)
(4.57565e-08 5.72163e-09 4.28349e-35 7.30643e-10 5.43169e-36 8.99535e-62)
(0.00159651 0.0137754 -2.73691e-29 0.118879 -2.35094e-28 1.75703e-54)
(0.00116892 0.0109461 1.15763e-34 0.102528 1.08638e-33 3.41579e-65)
(0.00144785 0.0125111 2.8351e-29 0.108133 2.4499e-28 1.64649e-54)
(0.000960545 0.00958233 0 0.0956383 0 0)
(0.00128919 0.0114805 -8.28371e-29 0.102284 -7.42462e-28 9.60658e-54)
(0.000900054 0.00900957 0 0.0903224 0 0)
(0.00112549 0.0101259 -1.41713e-28 0.0915305 -1.29842e-27 2.25675e-53)
(0.000666207 0.00494056 -1.35085e-32 0.0373081 -9.96261e-32 2.8733e-61)
(0.00103592 0.00610838 -1.09265e-32 0.0364113 -6.89082e-32 1.88248e-61)
(0.000291327 0.000804624 -5.05294e-29 0.00229144 -1.50046e-28 1.04749e-53)
(0.000113937 0.000516107 -3.51966e-29 0.00240945 -1.70727e-28 1.27843e-53)
(3.25778e-06 -2.42089e-05 -1.63083e-34 0.000362995 2.22732e-33 1.88589e-62)
(1.07082e-05 6.85422e-05 4.50279e-34 0.000446548 3.04289e-33 2.34491e-62)
(1.73097e-06 -1.0348e-05 -9.39096e-31 0.000114376 1.48773e-29 2.17528e-54)
(1.51779e-05 4.34012e-05 5.52446e-30 0.000131432 1.80241e-29 2.71711e-54)
(3.74715e-06 1.29474e-05 0 4.58233e-05 0 0)
(1.04718e-05 -2.18258e-05 0 5.69316e-05 0 0)
(1.9461e-05 1.70256e-05 -4.56567e-34 1.63744e-05 -4.71309e-34 1.46066e-62)
(4.66043e-07 -1.64935e-06 -2.5814e-31 1.66302e-05 4.50825e-30 1.37805e-54)
(6.15342e-07 -8.44406e-07 0 1.6629e-06 0 0)
(4.33925e-06 -1.88548e-06 -6.26648e-31 9.74629e-07 4.13141e-31 2.23707e-55)
(2.06231e-06 -4.48775e-07 -3.04846e-31 1.11398e-07 1.02066e-31 1.40186e-55)
(8.53432e-06 -3.94387e-07 -4.4663e-31 2.14553e-08 1.69071e-32 7.61995e-56)
(3.18447e-06 -6.23902e-07 3.42943e-31 1.26311e-07 -8.29797e-32 1.15932e-55)
(6.12627e-06 1.1875e-06 -6.00741e-35 4.14648e-07 -2.45934e-35 1.5863e-63)
(2.00868e-06 4.77454e-07 -4.51556e-32 2.0752e-07 -4.38659e-32 1.92404e-56)
(1.24511e-06 1.45858e-06 1.41125e-34 1.97036e-06 1.77122e-34 1.68245e-62)
(1.18991e-05 -2.09171e-06 1.89813e-34 3.77393e-07 -3.5909e-35 6.46205e-63)
(6.78213e-06 -4.53331e-06 -1.19722e-30 3.05455e-06 8.59018e-31 4.44597e-55)
(0.000137717 -3.03666e-05 3.05696e-30 6.75505e-06 -7.33543e-31 1.30502e-55)
(8.66476e-05 1.90123e-05 2.38193e-33 4.70211e-06 6.41412e-34 1.06283e-61)
(1.62693e-05 -8.11142e-05 4.61668e-30 0.000429321 -2.53738e-29 1.55185e-54)
(2.76282e-05 8.8407e-05 -5.21817e-30 0.0002889 -1.7497e-29 1.10763e-54)
(0.000735934 2.91304e-05 0 8.64609e-06 0 0)
(1.08921e-06 -1.90873e-06 0 2.28733e-05 0 0)
(4.41345e-06 -2.09523e-06 -3.83653e-31 1.13082e-06 1.28799e-31 6.7219e-56)
(6.14621e-05 1.1664e-05 0 5.65539e-06 0 0)
(0.00031106 -3.46267e-05 7.00722e-30 4.31187e-06 -1.00647e-30 2.73912e-55)
(8.53946e-06 -6.4721e-05 4.3623e-30 0.000550419 -3.77201e-29 2.60311e-54)
(4.07837e-05 0.000148918 -8.26989e-34 0.000556161 -3.1027e-33 2.31304e-62)
(0.00208304 -0.000186714 9.4911e-29 1.98137e-05 -5.87977e-30 6.69502e-54)
(4.38302e-07 1.07829e-06 3.11273e-38 7.1879e-06 2.26742e-37 7.21517e-69)
(7.78651e-05 -2.57257e-05 9.43405e-33 8.50945e-06 -3.07752e-33 1.34032e-60)
(0.000198744 -2.46821e-05 2.7136e-30 3.12919e-06 -2.99693e-31 5.89194e-56)
(1.7278e-05 -4.414e-06 6.00156e-31 1.13368e-06 -1.40942e-31 5.143e-56)
(2.43443e-06 -8.24721e-07 0 3.9565e-07 0 0)
(4.69563e-05 -5.99307e-06 1.21544e-34 9.8529e-07 -1.8709e-35 3.65633e-64)
(8.39144e-05 -1.63266e-05 0 3.62054e-06 0 0)
(0.000170579 -3.08177e-05 -1.33072e-29 5.97004e-06 2.93544e-30 1.74392e-54)
(6.44161e-05 -7.18483e-06 -6.16037e-33 1.14911e-06 9.64982e-34 8.17205e-61)
(2.78206e-06 -3.73141e-06 -1.04417e-30 9.36822e-06 3.16384e-30 1.11243e-54)
(0.000110963 -3.60399e-05 1.58365e-33 1.36119e-05 -5.30491e-34 4.73292e-62)
(0.000227615 -0.000101714 1.31377e-29 5.0036e-05 -6.84386e-30 9.75782e-55)
(0.000607366 -0.000268084 2.25946e-29 0.000150294 -1.14791e-29 1.11314e-54)
(0.00015569 -8.89903e-05 0 5.45867e-05 0 0)
(2.30514e-06 3.77995e-06 1.05307e-36 6.19842e-06 1.72852e-36 5.79635e-67)
(1.17733e-07 8.45076e-07 -2.06456e-32 6.06833e-06 -1.48837e-31 4.59247e-57)
(4.99353e-08 1.62377e-07 -5.29196e-37 5.32658e-07 -1.8362e-36 9.20525e-66)
(7.00324e-08 2.28945e-07 -4.45898e-35 7.4945e-07 3.02218e-35 4.67598e-59)
(1.95075e-08 4.45443e-08 -5.04468e-34 1.01869e-07 -1.14983e-33 1.79856e-59)
(3.00518e-08 2.80731e-10 0 2.1607e-11 0 0)
(2.48126e-07 3.59761e-08 0 5.31409e-09 0 0)
(7.16063e-08 -4.89583e-08 -5.11782e-35 3.36894e-08 3.49704e-35 8.17051e-62)
(9.80894e-09 -3.97565e-10 -4.10074e-35 7.31519e-11 9.11643e-38 2.6296e-61)
(3.63791e-08 -2.334e-08 2.20008e-32 1.57311e-08 -1.91545e-32 5.66373e-56)
(0.00180603 0.00942886 5.69369e-29 0.0496651 3.32074e-28 1.41013e-53)
(0.00173127 0.00843611 -5.5435e-29 0.0414028 -2.83987e-28 8.02352e-54)
(0.00174509 0.00834614 -1.08168e-28 0.0401069 -5.27904e-28 2.31639e-53)
(0.00145893 0.00686485 -5.38351e-36 0.0324168 -2.48069e-35 2.52222e-68)
(0.00154591 0.00691423 1.10531e-28 0.031017 4.85378e-28 9.77983e-54)
(0.00108502 0.00551252 0 0.0280463 0 0)
(0.00105128 0.00526775 6.05675e-29 0.0264225 3.00286e-28 4.55361e-54)
(0.000761776 0.0034575 -2.39379e-33 0.0156961 -1.08914e-32 2.03452e-62)
(0.000784838 0.00333998 8.80998e-33 0.0142563 3.73233e-32 1.24964e-61)
(0.000208789 0.00044508 -5.03345e-30 0.000982308 -1.05982e-29 1.62762e-55)
(0.000299013 0.000639044 5.9972e-33 0.00138048 1.32929e-32 1.50359e-61)
(7.68823e-06 3.90346e-05 4.70247e-34 0.000205039 2.6322e-33 3.88945e-62)
(0.000172693 0.000259577 -6.94675e-34 0.000398588 -1.16042e-33 5.05614e-63)
(8.16045e-06 2.6108e-05 1.12412e-30 8.60727e-05 3.85106e-30 1.84481e-55)
(0.00019437 0.000174656 9.82422e-30 0.000162544 9.70172e-30 6.51818e-55)
(3.8643e-05 4.83458e-05 2.93643e-34 6.40351e-05 4.39932e-34 4.74694e-63)
(1.97527e-05 3.15597e-05 -1.31873e-37 5.37053e-05 -2.4207e-37 1.20455e-69)
(1.6854e-05 1.90903e-05 -3.63126e-35 2.26272e-05 -4.51472e-35 3.83875e-64)
(7.23059e-05 3.30651e-05 4.16552e-34 1.64857e-05 2.30032e-34 4.52742e-63)
(4.33619e-05 3.33943e-06 -8.24801e-39 2.5821e-07 -5.84769e-40 5.75403e-72)
(3.08971e-05 4.35953e-06 -4.17837e-36 6.2748e-07 -6.06733e-37 7.31559e-67)
(4.17202e-05 -3.05286e-06 3.38118e-31 3.07799e-07 -2.52708e-32 3.38436e-57)
(1.71054e-05 -1.44138e-06 -2.58698e-31 2.36287e-07 2.24358e-32 4.68257e-57)
(3.97456e-05 -2.49608e-06 -1.00344e-34 2.36135e-07 5.97993e-36 3.01332e-64)
(1.10648e-05 -3.9553e-06 -9.65365e-35 2.02651e-06 3.26192e-35 1.04489e-63)
(3.85071e-05 -7.29144e-06 -4.90876e-34 1.85198e-06 9.70444e-35 6.60503e-63)
(5.76084e-06 -4.71049e-06 -5.65443e-34 5.58288e-06 6.05413e-34 6.87163e-62)
(9.44336e-05 -9.48484e-06 -2.03664e-34 1.02638e-06 1.93418e-35 3.91887e-63)
(2.62973e-06 -2.45199e-06 -6.76576e-31 2.36808e-06 5.83037e-31 3.54412e-55)
(2.81316e-05 -1.16077e-05 0 4.81835e-06 0 0)
(0.000104715 2.30177e-05 1.1594e-29 5.72414e-06 3.36069e-30 2.27854e-54)
(0.000375178 -0.000556498 5.6871e-29 0.000914259 -9.94399e-29 1.13517e-53)
(2.53134e-05 -0.000104231 1.13326e-29 0.000584923 -7.17599e-29 9.36923e-54)
(2.56958e-05 2.18303e-05 0 2.42983e-05 0 0)
(3.13049e-05 -1.81641e-05 0 1.87846e-05 0 0)
(7.76088e-07 -8.40343e-07 4.45476e-32 2.12031e-06 -1.41218e-31 1.97201e-56)
(2.17771e-05 7.24416e-06 0 4.62905e-06 0 0)
(0.000150439 -1.69921e-05 0 2.67007e-06 0 0)
(0.000291167 -0.000499563 0 0.000976409 0 0)
(2.84996e-05 0.0001583 2.35564e-29 0.000886571 1.30953e-28 2.06965e-53)
(0.000204658 -1.81917e-07 1.36176e-29 2.85148e-06 9.6136e-31 1.25553e-54)
(1.17429e-06 -2.63931e-07 -1.92979e-34 4.11733e-06 3.973e-34 6.44651e-62)
(6.40924e-05 -3.07666e-05 1.55914e-30 1.47905e-05 -7.31954e-31 5.09853e-56)
(0.000188286 -2.56867e-05 6.24726e-30 3.73834e-06 -6.7063e-31 3.51175e-55)
(1.4441e-05 -5.5664e-06 0 2.16537e-06 0 0)
(3.11429e-06 -1.00397e-06 8.83636e-34 7.36034e-07 -3.65739e-34 2.66901e-61)
(5.06883e-05 -4.91282e-06 5.90307e-30 1.09047e-06 -1.14108e-30 1.21491e-54)
(8.33264e-05 -1.87981e-05 0 5.46718e-06 0 0)
(0.000172782 -3.49175e-05 -2.15585e-29 8.18479e-06 5.78264e-30 4.50198e-54)
(6.17399e-05 -5.74688e-06 0 1.498e-06 0 0)
(1.03936e-06 -2.50332e-06 -6.11301e-31 2.45666e-05 8.3169e-30 2.91479e-54)
(0.000101421 -4.56173e-05 0 2.51129e-05 0 0)
(0.000176822 -0.000117137 1.47818e-29 8.78407e-05 -1.15367e-29 1.53446e-54)
(0.000229955 -0.000187457 -1.66968e-32 0.000201231 1.81615e-32 1.69465e-60)
(1.04125e-05 -2.93223e-05 -1.36241e-33 8.51993e-05 3.87188e-33 2.48558e-61)
(1.50819e-06 -5.42174e-07 5.45946e-33 1.95254e-07 -1.96252e-33 2.4821e-59)
(2.09571e-08 -8.10211e-08 -9.96347e-34 3.21101e-07 2.44952e-33 3.06715e-58)
(1.52693e-09 1.18046e-09 0 1.29135e-09 0 0)
(1.0898e-07 -8.10547e-08 -3.88418e-37 6.04872e-08 2.8577e-37 1.53686e-66)
(9.84594e-10 -7.80444e-09 6.11908e-37 7.96814e-08 -1.2785e-35 4.24902e-63)
(1.10361e-07 -1.63876e-08 -3.36289e-38 2.4464e-09 4.21301e-39 9.14885e-68)
(3.69352e-09 -1.68358e-09 3.98571e-35 4.08408e-08 1.91914e-34 2.56209e-60)
(7.90617e-08 5.95851e-08 0 4.67889e-08 0 0)
(4.59015e-07 -3.41403e-08 0 2.54583e-09 0 0)
(8.39167e-08 2.78711e-08 0 9.31427e-09 0 0)
(0.000221473 0.00306525 2.30969e-29 0.0440395 5.94603e-28 9.90383e-53)
(0.000151116 0.00218082 0 0.0324145 0 0)
(0.000165997 0.00211021 -3.03335e-30 0.0277128 -1.26364e-28 2.80868e-53)
(8.01827e-05 0.00115934 0 0.0172705 0 0)
(0.000103984 0.00118731 0 0.0139228 0 0)
(6.13356e-05 0.000640686 -2.24073e-29 0.0066936 -2.34524e-28 9.5279e-54)
(5.33182e-05 0.00052208 -3.3701e-34 0.005128 -3.43517e-33 3.61837e-63)
(0.000587942 0.00208824 -1.5989e-33 0.00742175 -5.66455e-33 5.02473e-63)
(6.7402e-06 -0.000107868 0 0.00274666 0 0)
(3.15714e-06 -1.12669e-05 -2.71088e-30 0.000125925 1.15305e-29 2.38321e-54)
(1.1342e-06 -7.83027e-06 0 0.000190869 0 0)
(4.01483e-05 -3.26544e-05 0 3.14462e-05 0 0)
(1.48046e-05 -3.13977e-05 0 7.23636e-05 0 0)
(1.29486e-05 -1.89771e-05 1.89452e-30 2.85146e-05 -2.39867e-30 5.7372e-55)
(6.72404e-06 -1.52451e-05 -1.77072e-34 3.52648e-05 4.05874e-34 6.31882e-63)
(5.57518e-05 -1.54918e-05 -8.07053e-34 4.46044e-06 2.27723e-34 1.78639e-62)
(7.53866e-05 -2.30565e-05 -1.59399e-33 7.30548e-06 4.94079e-34 6.7571e-62)
(2.71906e-06 -4.68633e-06 -9.42237e-35 8.39535e-06 1.83234e-34 7.69547e-63)
(3.25132e-05 -6.70524e-06 -3.33044e-36 1.59071e-06 7.25941e-37 9.55113e-67)
(5.84032e-06 3.92174e-06 0 3.02794e-06 0 0)
(4.66729e-05 1.40796e-05 -3.61918e-30 4.55863e-06 -1.41585e-30 6.46178e-55)
(1.51936e-05 1.1664e-05 -4.61311e-30 9.65355e-06 -4.48259e-30 2.81631e-54)
(4.28683e-05 1.87328e-05 2.56281e-34 8.95775e-06 1.14191e-34 1.56365e-63)
(2.21624e-05 1.33277e-05 -2.73634e-30 8.67192e-06 -2.08557e-30 6.92025e-55)
(2.60936e-05 1.62937e-05 -3.65374e-34 1.16829e-05 -2.55391e-34 5.89323e-63)
(2.13338e-05 1.73106e-05 -2.6084e-34 1.54867e-05 -2.22967e-34 3.40955e-63)
(7.24869e-06 1.02668e-05 0 1.62552e-05 0 0)
(4.01002e-08 -4.81067e-07 1.11146e-31 1.24056e-05 -1.95946e-30 4.43193e-55)
(3.79056e-05 -3.42255e-06 1.43074e-35 4.47436e-07 -1.30383e-36 5.91584e-66)
(0.00022221 -1.86876e-05 0 1.59285e-06 0 0)
(1.7584e-06 1.97464e-06 3.55093e-31 2.5009e-06 4.23538e-31 7.81662e-56)
(4.4498e-06 -5.02393e-05 -2.74136e-35 0.000588456 -2.931e-34 2.86804e-62)
(0.000109009 0.000180742 1.61763e-33 0.000325178 4.26219e-33 1.40885e-61)
(0.00010426 6.28208e-05 1.66314e-29 4.92079e-05 1.37939e-29 3.96676e-54)
(6.14753e-07 5.37488e-06 0 4.99398e-05 0 0)
(1.4316e-05 -5.16909e-06 -9.69028e-34 2.40428e-06 2.99513e-34 7.04706e-62)
(9.32648e-05 3.02493e-05 1.26123e-29 1.40443e-05 5.86362e-30 2.48376e-54)
(5.67609e-05 -2.1991e-05 -4.06136e-30 9.98776e-06 1.95969e-30 3.97082e-55)
(9.83647e-05 -0.000230345 0 0.000590586 0 0)
(0.000116785 0.000225948 6.46956e-29 0.00045819 1.38175e-28 4.47802e-53)
(0.000220287 2.78221e-05 7.22398e-33 7.86569e-06 8.13688e-34 2.63913e-61)
(4.23327e-07 2.40759e-06 1.2484e-30 1.44319e-05 7.43863e-30 3.92846e-54)
(7.59009e-05 -3.56881e-05 -2.52478e-34 1.67915e-05 1.19036e-34 9.57824e-64)
(0.000227021 -2.04345e-05 1.19887e-29 2.26876e-06 -6.21374e-31 1.13074e-54)
(2.28537e-05 -6.32004e-06 2.37297e-34 1.78139e-06 -4.40766e-35 2.52935e-62)
(1.21435e-06 -1.28614e-06 -1.4935e-30 1.71965e-06 1.91892e-30 2.15638e-54)
(4.13818e-05 -6.21859e-06 2.66427e-33 1.94953e-06 -4.95523e-34 1.86111e-61)
(7.82783e-05 -2.20947e-05 0 8.51246e-06 0 0)
(0.000169062 -4.19299e-05 -2.92862e-29 1.24654e-05 9.92045e-30 8.51131e-54)
(6.14795e-05 -5.0042e-06 -4.81976e-33 2.1496e-06 8.75048e-34 5.20519e-61)
(2.05765e-06 -5.21721e-06 3.59582e-34 4.23835e-05 -2.30326e-33 1.33482e-61)
(0.000106363 -5.55667e-05 1.27219e-29 3.71375e-05 -9.0286e-30 2.22597e-54)
(0.000200824 -0.00014853 0 0.000128888 0 0)
(0.000336754 -0.000273655 -2.59899e-29 0.000277192 2.64636e-29 2.55424e-54)
(1.81897e-05 -5.61007e-05 1.08427e-37 0.000173317 -3.40103e-37 8.02323e-70)
(1.42833e-08 -1.2359e-08 2.47378e-34 1.27546e-08 -2.97202e-34 9.11982e-60)
(2.03591e-07 -6.59334e-08 7.96729e-34 2.13532e-08 -2.58289e-34 4.11419e-60)
(1.59617e-07 -1.57408e-07 -4.94421e-33 1.60676e-07 5.08094e-33 1.64218e-58)
(1.44889e-07 -1.56025e-07 1.62581e-33 1.69154e-07 -1.82358e-33 2.59525e-59)
(1.06183e-07 -8.03442e-08 0 6.24881e-08 0 0)
(9.93602e-08 -8.63271e-08 -2.43187e-36 7.6427e-08 2.41978e-36 1.69446e-64)
(3.60277e-07 -2.53146e-08 -1.44933e-33 1.9707e-09 9.9345e-35 6.07627e-60)
(1.30609e-07 -7.28124e-08 9.49038e-32 4.08546e-08 -5.01726e-32 1.7186e-55)
(1.961e-08 2.61096e-08 0 4.4087e-08 0 0)
(1.15265e-07 9.91312e-09 5.27252e-35 1.35902e-09 9.28082e-36 8.35539e-62)
(0.00179766 0.0113905 6.87453e-29 0.0808541 2.25044e-27 9.41185e-52)
(0.00208149 0.0103786 -9.9917e-30 0.0555665 1.67047e-28 1.06815e-52)
(0.00191572 0.00951706 -1.07032e-32 0.0513366 -3.71566e-32 6.36481e-60)
(0.0013053 0.00653424 0 0.0378937 0 0)
(0.00131768 0.00576249 8.49322e-29 0.0290834 -2.5644e-28 2.63675e-52)
(0.000857851 0.00264395 -3.9553e-29 0.0083993 -1.53613e-28 1.65458e-53)
(0.000984776 0.0017738 6.98e-34 0.00327824 1.34729e-33 6.04101e-64)
(2.39677e-05 0.000180502 -2.85869e-34 0.00136232 -2.2866e-33 1.20592e-62)
(0.000282266 0.00070721 0 0.00178973 0 0)
(9.01834e-05 0.000166458 5.26642e-30 0.000307586 9.65628e-30 3.40291e-55)
(0.00017905 0.000327077 -1.73357e-33 0.000598377 -3.16958e-33 1.86278e-62)
(2.82049e-05 5.33778e-05 -2.45164e-34 0.000101339 -4.6481e-34 2.71809e-63)
(0.00010873 0.000172046 0 0.000272425 0 0)
(1.59408e-05 3.5672e-05 0 8.00833e-05 0 0)
(9.61878e-05 0.000115586 5.27454e-31 0.000140071 5.15326e-31 2.13031e-56)
(1.72081e-05 1.83459e-05 8.32588e-32 1.97305e-05 1.20187e-31 1.19872e-56)
(1.11705e-05 2.03975e-05 9.83371e-36 3.8499e-05 1.65875e-35 1.46488e-64)
(3.23152e-05 3.08819e-05 -7.77474e-31 3.01959e-05 -7.50414e-31 1.95338e-56)
(1.56357e-05 1.51148e-05 6.54261e-31 1.54689e-05 6.2875e-31 3.02586e-56)
(1.61865e-05 2.65413e-06 6.61554e-35 4.7001e-07 9.83902e-36 5.27231e-64)
(4.78467e-06 1.98822e-07 4.99751e-39 8.86559e-08 3.59592e-40 8.60736e-72)
(1.00316e-05 -2.76355e-06 7.14447e-32 7.86289e-07 -1.26569e-32 2.99931e-57)
(1.45273e-06 -1.42252e-06 -1.71626e-35 1.50967e-06 1.31204e-35 4.50917e-64)
(5.47783e-06 -1.97803e-06 3.52228e-33 7.79913e-07 9.16095e-33 3.50574e-57)
(3.04409e-07 -1.00733e-06 -9.36895e-32 4.33696e-06 3.60497e-31 3.14673e-56)
(3.39504e-06 -3.55496e-06 -2.00669e-31 4.47998e-06 1.86136e-31 1.37632e-56)
(2.14874e-07 -1.05538e-06 -2.79319e-35 1.0861e-05 1.52803e-34 4.28416e-63)
(2.71851e-05 -1.08988e-05 1.6502e-31 4.67124e-06 -2.62239e-32 1.11454e-56)
(3.20542e-06 -2.56662e-06 -1.04237e-31 2.39703e-06 1.05882e-31 6.55689e-57)
(6.20962e-05 -1.50496e-05 0 3.68201e-06 0 0)
(1.85552e-05 9.77955e-06 0 5.86702e-06 0 0)
(4.03789e-05 -0.000139706 -9.07969e-30 0.000528812 3.51222e-29 2.35888e-54)
(1.23245e-05 5.8228e-05 5.39585e-34 0.000283688 3.00595e-33 5.26428e-62)
(3.9728e-05 3.97354e-05 6.86972e-30 5.00374e-05 8.43312e-30 1.42699e-54)
(4.27962e-06 -1.0654e-05 0 4.02942e-05 0 0)
(2.69758e-06 -3.68018e-06 -3.09759e-36 6.31157e-06 6.23949e-36 7.71732e-66)
(4.85341e-05 2.14534e-05 6.20395e-35 1.36423e-05 2.99367e-35 8.31788e-65)
(3.9494e-05 -1.71322e-05 -4.46974e-30 9.55288e-06 2.20528e-30 5.50848e-55)
(6.46319e-05 -0.000192099 4.30204e-34 0.0006317 -2.86412e-33 5.53103e-62)
(6.26233e-05 0.00017449 3.41784e-29 0.000500544 1.0042e-28 2.06469e-53)
(0.000153211 3.08226e-05 -1.06304e-29 1.13676e-05 -2.97155e-30 8.74497e-55)
(3.46419e-07 2.13327e-06 9.41862e-31 1.36168e-05 6.03255e-30 2.67715e-54)
(5.84443e-05 -4.34858e-05 -2.15861e-30 3.23687e-05 1.59846e-30 1.00019e-55)
(0.000231904 -3.23393e-05 1.57254e-32 5.21964e-06 -1.83221e-33 1.26745e-60)
(2.3142e-05 -1.0426e-05 0 4.72783e-06 0 0)
(7.0961e-07 -8.79298e-07 1.66237e-35 1.66999e-06 -2.16101e-35 4.04011e-64)
(3.84846e-05 -2.61002e-06 -7.6048e-30 1.66367e-06 1.79731e-30 2.6084e-54)
(7.44136e-05 -2.24838e-05 -2.36949e-33 1.02607e-05 7.24821e-34 8.46668e-62)
(0.000168729 -4.35678e-05 -1.71774e-29 1.44267e-05 6.32828e-30 2.88189e-54)
(5.61641e-05 -9.47725e-07 -4.16799e-33 2.67051e-06 6.53971e-34 4.44024e-61)
(7.25069e-07 2.42924e-06 -1.05825e-30 6.50192e-05 -2.11271e-29 7.0484e-54)
(9.70316e-05 -6.20517e-05 1.45328e-29 5.24554e-05 -1.2929e-29 3.21415e-54)
(0.000221756 -0.000192911 -2.57797e-29 0.00020411 2.74636e-29 3.71036e-54)
(0.000594985 -0.000472612 -5.22981e-29 0.000466083 5.40318e-29 6.33648e-54)
(0.00019754 -0.000489374 -1.2776e-29 0.00121704 3.2888e-29 1.5469e-54)
(4.75314e-07 -1.49919e-06 3.92715e-32 4.73367e-06 -1.24634e-31 3.41701e-57)
(1.85508e-08 1.5176e-08 -6.76933e-39 1.24666e-08 -5.8247e-39 1.06197e-68)
(3.95062e-09 -3.04651e-09 -1.00628e-34 2.37229e-09 8.79507e-35 7.65862e-60)
(1.65005e-09 -6.386e-09 -7.12781e-35 2.47459e-08 2.71915e-34 4.23559e-60)
(4.00813e-08 -1.96635e-08 -1.03351e-36 9.66405e-09 5.24085e-37 4.4953e-65)
(1.88764e-09 7.1081e-09 2.63084e-37 2.77175e-08 1.21365e-36 1.10399e-64)
(7.8335e-08 7.37122e-09 0 1.06125e-09 0 0)
(7.74231e-09 -2.75543e-08 4.02745e-32 1.07015e-07 -1.12883e-31 3.17799e-55)
(3.31616e-08 -2.69544e-08 -6.66096e-35 2.19303e-08 5.49736e-35 2.68086e-61)
(9.48781e-09 -6.87796e-09 -1.15638e-32 5.22795e-09 1.34289e-32 1.20599e-55)
(0.0017253 0.012845 3.97849e-29 0.105656 2.32992e-28 2.1365e-52)
(0.00207664 0.0132638 1.5237e-28 0.0905513 5.43692e-28 3.23718e-52)
(0.00141836 0.0106087 0 0.0864686 0 0)
(0.000952353 0.00769808 -5.07593e-29 0.0733185 5.99474e-28 2.66741e-52)
(0.000768436 0.00593511 -1.30768e-33 0.0607086 6.18772e-33 4.42907e-62)
(0.00043337 0.00281231 -8.22419e-29 0.0238701 6.65892e-29 1.377e-52)
(0.000490743 0.00207652 2.80576e-33 0.00919835 1.58085e-32 9.65124e-62)
(0.000194976 0.00039309 1.09889e-29 0.000813691 2.27262e-29 6.5217e-55)
(0.000204726 0.000548917 -4.08025e-35 0.00147232 -1.1644e-34 3.25161e-64)
(4.33356e-05 0.000139407 8.21424e-35 0.000451594 2.12569e-34 1.02843e-63)
(0.000137519 0.000389083 4.06052e-30 0.0011054 1.2226e-29 2.7018e-55)
(6.73956e-06 3.6505e-05 8.91063e-31 0.000203275 5.55184e-30 2.37495e-55)
(0.000122662 0.000254944 0 0.000535565 0 0)
(6.56314e-06 2.90033e-05 1.08953e-34 0.000131474 4.8606e-34 2.06256e-63)
(0.000145662 0.000197117 -4.05151e-35 0.000272321 -5.73544e-35 1.27035e-65)
(9.61833e-07 5.66628e-06 -5.90621e-31 3.42482e-05 -3.90836e-30 6.85147e-55)
(2.51911e-05 4.36467e-05 -2.35151e-35 7.94601e-05 -1.59317e-35 2.47799e-64)
(2.66228e-05 3.7241e-05 -1.91025e-30 5.34834e-05 -2.97376e-30 2.113e-55)
(4.97362e-05 4.39418e-05 0 4.11027e-05 0 0)
(3.73713e-05 1.63276e-05 -1.26054e-34 7.77761e-06 -5.30074e-35 7.47573e-64)
(2.54847e-05 1.27908e-05 2.96556e-35 7.24514e-06 3.45189e-35 6.9413e-64)
(4.16235e-05 7.16768e-06 -2.70328e-30 1.54195e-06 -7.26819e-31 4.10358e-55)
(1.46115e-05 2.83223e-06 0 6.88913e-07 0 0)
(4.37384e-05 5.33698e-06 2.56446e-30 7.95163e-07 4.77546e-31 4.13216e-55)
(7.83694e-06 -1.17253e-06 1.08807e-30 4.26452e-07 -3.86223e-31 8.31673e-55)
(4.71946e-05 -4.06313e-06 1.76365e-30 6.20293e-07 -2.75403e-31 3.13064e-55)
(6.48773e-06 -5.0084e-06 -1.52479e-31 5.54568e-06 -9.06527e-32 5.79407e-56)
(0.000114099 -1.02219e-05 -3.02559e-30 1.19155e-06 4.08446e-31 3.39757e-55)
(7.36034e-08 7.74344e-08 -6.36595e-40 2.75476e-06 -7.86643e-39 4.9089e-71)
(8.63914e-06 -7.75116e-06 3.55225e-34 7.25574e-06 -3.3734e-34 2.22804e-62)
(3.99168e-05 1.90533e-05 2.51598e-30 9.76278e-06 1.5493e-30 3.4263e-55)
(6.82842e-05 -0.000151444 -7.11136e-36 0.000371383 3.95795e-35 2.17509e-65)
(2.35677e-06 -1.88312e-05 0 0.000211569 0 0)
(2.11356e-06 9.37329e-06 0 4.50686e-05 0 0)
(5.88673e-05 -3.5701e-05 5.77358e-34 3.20217e-05 -6.53082e-34 1.7221e-62)
(2.00313e-06 4.0823e-06 -1.00695e-34 8.42249e-06 -2.16709e-34 6.56134e-63)
(2.67505e-06 5.74562e-06 -1.1071e-30 1.27186e-05 -2.29092e-30 4.89307e-55)
(6.21183e-05 -2.04352e-05 -2.47318e-30 9.40756e-06 8.81495e-31 1.08888e-55)
(0.000111554 -0.000223334 0 0.000508603 0 0)
(3.6537e-06 3.78098e-05 3.16071e-30 0.000414654 3.45506e-29 2.89866e-54)
(4.69355e-05 2.18284e-05 1.3396e-33 1.50999e-05 4.07627e-34 5.63649e-62)
(1.36353e-05 -8.75618e-06 0 1.25565e-05 0 0)
(1.49591e-05 -2.44105e-05 1.2079e-30 4.02855e-05 -1.89802e-30 1.13916e-55)
(0.00012535 -2.88245e-05 0 7.69165e-06 0 0)
(5.34218e-06 -6.44082e-06 -4.75292e-31 7.81338e-06 5.19666e-31 1.03482e-55)
(1.16108e-05 -1.15902e-06 4.33005e-30 1.70433e-06 -1.8072e-30 2.81033e-54)
(8.11618e-05 3.23529e-07 1.79512e-34 1.79314e-06 -1.23346e-35 4.99231e-64)
(0.000104691 -2.82066e-05 1.61144e-29 1.24393e-05 -7.34786e-30 4.34914e-54)
(0.000243269 -5.48977e-05 -2.3794e-29 1.69824e-05 8.0653e-30 3.91793e-54)
(6.93563e-05 2.62835e-06 -4.49204e-33 3.52152e-06 5.85053e-34 4.62738e-61)
(1.61453e-06 -4.61724e-07 -3.93924e-31 8.93566e-05 -2.92263e-29 9.82412e-54)
(0.000115828 -8.00707e-05 3.3565e-34 7.47894e-05 2.37308e-35 1.86497e-62)
(0.000214604 -0.000223727 -3.13398e-29 0.000282251 4.12942e-29 6.09984e-54)
(0.000620748 -0.000515762 -2.98514e-36 0.000521281 3.23925e-36 2.06251e-68)
(0.000190955 -0.000389722 -4.56452e-30 0.000799548 1.01042e-29 2.74988e-55)
(5.59023e-07 -2.76049e-06 -6.92014e-32 1.36498e-05 3.43237e-31 9.06636e-57)
(3.17771e-09 -3.88542e-09 -6.26559e-34 1.06204e-08 1.69588e-33 2.7226e-58)
(4.10722e-08 -7.58592e-08 -1.01713e-33 1.42015e-07 1.94532e-33 3.06518e-59)
(4.87887e-08 -6.52442e-08 0 8.96159e-08 0 0)
(3.29481e-10 -4.24342e-09 -5.0535e-35 7.99047e-08 1.17284e-33 2.03741e-59)
(8.36558e-08 1.45563e-08 -1.06256e-32 3.60075e-09 -3.23575e-33 3.22393e-57)
(3.70946e-09 2.82097e-09 4.59148e-35 2.50688e-08 1.22227e-34 1.32722e-60)
(1.00027e-07 1.47466e-07 1.17236e-31 2.22692e-07 2.10311e-31 5.14583e-55)
(5.42402e-07 -3.01829e-08 -2.29746e-31 1.76451e-09 1.60396e-32 2.58849e-55)
(2.05941e-07 9.78822e-08 2.5726e-31 4.69153e-08 1.34725e-31 7.8826e-55)
(0.00154304 0.0120944 -5.7709e-28 0.129322 -1.17433e-27 5.57688e-52)
(0.00101356 0.00994256 0 0.116948 0 0)
(0.000447915 0.00692927 0 0.113611 0 0)
(0.000193341 0.00436708 1.11602e-28 0.100656 2.00943e-27 1.49636e-51)
(6.84487e-05 0.00221289 -3.12981e-29 0.0825729 1.35938e-27 1.11991e-51)
(9.16744e-06 0.000339146 4.65688e-33 0.0497662 -4.5534e-32 7.0608e-60)
(2.15783e-06 0.000171452 -3.57598e-34 0.0228705 -4.06142e-32 5.04909e-61)
(1.30762e-05 -3.63122e-05 -2.62338e-30 0.000186948 1.05917e-29 6.71615e-55)
(3.80201e-07 -4.02769e-06 -3.68298e-37 0.000132568 -9.95719e-35 4.37572e-64)
(8.60428e-06 -1.47541e-05 -2.61308e-35 2.65121e-05 4.98225e-35 6.7048e-64)
(1.3493e-06 -1.60927e-05 2.35589e-31 0.000194467 -2.75998e-30 4.78103e-56)
(1.83706e-05 -2.14751e-05 1.38679e-31 2.51439e-05 -1.59858e-31 3.87993e-57)
(7.66718e-06 -2.49985e-05 5.2641e-32 8.16135e-05 -1.74863e-31 3.63887e-57)
(1.35481e-05 -1.88534e-05 -4.79503e-36 2.63851e-05 -3.81987e-36 8.76442e-64)
(5.02423e-06 -1.26227e-05 -7.34099e-35 3.20466e-05 1.81882e-34 1.586e-63)
(3.77408e-05 2.90807e-06 -1.06376e-30 4.22167e-07 -1.24052e-31 4.12033e-56)
(6.19303e-05 -1.82804e-05 6.01326e-35 5.54509e-06 -1.97757e-35 2.81714e-64)
(1.74058e-06 -5.56338e-06 -1.40899e-35 1.79742e-05 2.55228e-35 2.99787e-63)
(4.42309e-05 -1.09658e-05 1.04128e-30 2.84394e-06 -3.13115e-31 5.26595e-56)
(3.61027e-06 -2.73361e-07 1.6003e-31 6.22805e-08 -1.90768e-32 2.02343e-56)
(5.37445e-05 5.17114e-06 0 5.68924e-07 0 0)
(1.08488e-05 4.51977e-06 0 1.99223e-06 0 0)
(4.63832e-05 9.82522e-06 -2.22693e-31 2.32793e-06 -9.93671e-32 2.73614e-56)
(2.0467e-05 6.68456e-06 -2.95026e-32 2.47309e-06 -1.14272e-31 8.02607e-56)
(3.15775e-05 9.59255e-06 3.04328e-31 3.53574e-06 1.57738e-32 2.10332e-56)
(2.66745e-05 1.31825e-05 0 7.5005e-06 0 0)
(1.42517e-05 1.02327e-05 3.41401e-36 8.70106e-06 1.94668e-36 1.47328e-66)
(2.79548e-06 4.65485e-06 2.98319e-36 1.00424e-05 6.53264e-36 7.65476e-66)
(5.79445e-05 -3.0631e-06 0 1.6957e-06 0 0)
(0.000190947 -2.97658e-05 -9.28044e-32 4.87285e-06 -3.66122e-32 2.14897e-56)
(6.26757e-06 -7.46048e-06 -1.88056e-31 8.8926e-06 2.18024e-31 8.94307e-57)
(1.07641e-05 6.00978e-05 -3.96743e-30 0.000339019 -2.17791e-29 1.79563e-54)
(6.18121e-05 0.000110286 2.16556e-37 0.000207944 3.67168e-37 8.66317e-70)
(7.85621e-05 5.87851e-05 7.0971e-35 5.53242e-05 8.86189e-36 1.88108e-63)
(5.22593e-06 1.14821e-05 2.39382e-34 3.95389e-05 8.6211e-34 2.07395e-62)
(1.87799e-05 -1.32782e-05 -1.66614e-30 1.09954e-05 9.49602e-31 1.82305e-55)