/*--------------------------------*- C++ -*----------------------------------*\
| =========                 |                                                 |
| \\      /  F ield         | OpenFOAM: The Open Source CFD Toolbox           |
|  \\    /   O peration     | Version:  v2012                                 |
|   \\  /    A nd           | Website:  www.openfoam.com                      |
|    \\/     M anipulation  |                                                 |
\*---------------------------------------------------------------------------*/
FoamFile
{
    version     2.0;
    format      ascii;
    class       volScalarField;
    location    "1e-06";
    object      yPlus;
}
// * * * * * * * * * * * * * * * * * * * * * * * * * * * * * * * * * * * * * //

dimensions      [0 0 0 0 0 0 0];


internalField   uniform 0;

boundaryField
{
    inlet
    {
        type            calculated;
        value           nonuniform List<scalar> 0();
    }
    outlet
    {
        type            calculated;
        value           nonuniform List<scalar> 0();
    }
    front
    {
        type            empty;
    }
    back
    {
        type            empty;
    }
    hub
    {
        type            calculated;
        value           nonuniform List<scalar> 
65
(
6.61448
6.59849
6.6375
6.62332
6.6566
6.70558
6.71449
6.71841
6.66764
6.39344
6.3103
5.80182
5.72564
5.3464
5.29044
4.7946
4.76522
4.49898
4.45024
4.42554
4.10172
4.05619
4.04948
3.97677
3.62603
3.54359
2.94017
2.86453
2.49017
1.92491
1.58751
0.744827
0.762399
1.16651
1.15078
1.10944
0.588633
0.610822
0.497682
0.429441
0.634636
0.31244
0.866249
1.1264
1.30107
1.39282
1.42482
1.43439
1.42717
1.3332
1.17899
1.21687
0.255231
0.563497
1.38348
1.08739
1.04497
1.00707
0.872293
0.4193
1.1305
1.19764
1.19877
1.08039
0.928047
)
;
    }
    tip
    {
        type            calculated;
        value           nonuniform List<scalar> 
75
(
68.7967
68.911
68.919
69.0122
69.0522
69.1048
69.1961
69.1885
69.349
69.2655
69.5111
69.3365
69.6785
69.4071
69.8464
69.4776
70.0116
69.5867
70.0955
69.7639
70.1465
69.9865
70.1688
70.2275
70.1691
70.4607
70.1771
70.6627
70.2532
70.7657
70.464
70.7664
70.7521
70.7158
71.0248
70.6801
71.2286
70.8161
71.2361
71.1306
71.1523
71.4397
71.0865
71.6338
71.2657
71.5954
71.6218
71.4641
71.9103
71.4923
71.9551
71.8295
71.8106
72.1673
71.7583
72.2549
72.0876
72.0956
72.4434
72.0308
72.5089
72.3952
72.3128
72.7319
72.3255
72.708
72.7411
72.4681
72.9887
72.6878
72.8303
73.0929
72.6802
73.1387
73.1028
)
;
    }
    procBoundary0to1
    {
        type            processor;
        value           uniform 0;
    }
    procBoundary0to2
    {
        type            processor;
        value           uniform 0;
    }
}


// ************************************************************************* //
