/*--------------------------------*- C++ -*----------------------------------*\
| =========                 |                                                 |
| \\      /  F ield         | OpenFOAM: The Open Source CFD Toolbox           |
|  \\    /   O peration     | Version:  v2012                                 |
|   \\  /    A nd           | Website:  www.openfoam.com                      |
|    \\/     M anipulation  |                                                 |
\*---------------------------------------------------------------------------*/
FoamFile
{
    version     2.0;
    format      ascii;
    class       volScalarField;
    location    "1e-06";
    object      k;
}
// * * * * * * * * * * * * * * * * * * * * * * * * * * * * * * * * * * * * * //

dimensions      [0 2 -2 0 0 0 0];


internalField   nonuniform List<scalar> 
10178
(
0.0640749
0.0636817
0.0700091
0.0692485
0.0791694
0.0817543
0.084323
0.0927641
0.0990893
0.101585
0.101124
0.107173
0.112469
0.113568
0.111985
0.112144
0.114561
0.115195
0.110924
0.106453
0.108287
0.109264
0.106071
0.100547
0.0987211
0.09946
0.0957415
0.0929786
0.0872484
0.088194
0.0894422
0.0873304
0.0795585
0.0758753
0.076735
0.0791279
0.0764488
0.0736257
0.0738335
0.0775856
0.0812623
0.0805195
0.07972
0.0818515
0.0857157
0.0871661
0.0864917
0.0851558
0.084942
0.0875088
0.0898334
0.0900577
0.0876611
0.0859821
0.0887886
0.0917309
0.0949825
0.0954227
0.0967007
0.102108
0.106314
0.104879
0.105635
0.114238
0.118721
0.126529
0.130238
0.141109
0.154241
0.160447
0.164707
0.168993
0.174678
0.177767
0.187729
0.201022
0.205081
0.212324
0.210988
0.204946
0.199733
0.178168
0.157983
0.150494
0.129575
0.119043
0.11544
0.104008
0.0959476
0.0932075
0.0846527
0.080258
0.0791807
0.0773629
0.078179
0.0796567
0.087079
0.0964388
0.125985
0.167604
0.172384
0.181381
0.210629
0.214079
0.21771
0.199075
0.189888
0.147957
0.126776
0.120707
0.105969
0.0949023
0.0920707
0.0786006
0.0657636
0.0595355
0.057993
0.054846
0.060091
0.0643398
0.0832556
0.101593
0.125573
0.131336
0.154119
0.163298
0.163629
0.15843
0.142928
0.139104
0.118884
0.104724
0.0929203
0.0892955
0.0772511
0.0668086
0.0668347
0.0662297
0.0849084
0.085429
0.0887552
0.0889461
0.0794107
0.102931
0.103824
0.109527
0.115482
0.120141
0.120836
0.124679
0.127207
0.130728
0.131686
0.131799
0.1324
0.1325
0.131559
0.130565
0.130218
0.128463
0.127179
0.125356
0.124936
0.122548
0.116977
0.116838
0.114471
0.113716
0.110883
0.108112
0.103894
0.103343
0.100108
0.0977976
0.0971159
0.0968816
0.0967467
0.0966649
0.0976843
0.0990664
0.100265
0.100358
0.10143
0.102522
0.10368
0.104205
0.104307
0.105115
0.10523
0.106715
0.106954
0.107079
0.107621
0.107376
0.113673
0.117282
0.117789
0.120207
0.124529
0.126284
0.12691
0.132331
0.136301
0.146664
0.148259
0.155668
0.168086
0.174826
0.176832
0.179924
0.184587
0.185393
0.191905
0.199952
0.200459
0.207328
0.203514
0.193033
0.192424
0.17265
0.149476
0.146226
0.126875
0.114268
0.112799
0.102721
0.0940414
0.0930782
0.0863202
0.0831172
0.0829118
0.0826993
0.0854944
0.0863747
0.092003
0.0952452
0.122143
0.155808
0.158215
0.174966
0.198676
0.201406
0.207451
0.184206
0.181819
0.14226
0.118869
0.115673
0.103053
0.0906038
0.0885575
0.0775843
0.0665318
0.0618914
0.0613877
0.0593448
0.0629897
0.0644786
0.0819294
0.0979258
0.119742
0.125145
0.147552
0.153298
0.153789
0.152154
0.135429
0.131315
0.113673
0.100539
0.0868536
0.0850222
0.0754462
0.0647863
0.0645036
0.0657394
0.115074
0.115539
0.118668
0.115046
0.0980806
0.132562
0.133416
0.138681
0.144461
0.148916
0.149642
0.153306
0.155275
0.159647
0.161332
0.161549
0.16275
0.163644
0.163948
0.163866
0.163673
0.162648
0.162318
0.16107
0.160717
0.158831
0.151061
0.153681
0.150892
0.150114
0.146817
0.143402
0.139491
0.138777
0.135251
0.131681
0.130302
0.128996
0.12867
0.127518
0.127073
0.127732
0.128289
0.128276
0.128711
0.12973
0.13084
0.131644
0.131779
0.132716
0.13314
0.134928
0.13571
0.135872
0.136695
0.108257
0.144001
0.147736
0.148301
0.151184
0.155424
0.157607
0.158245
0.163295
0.166852
0.175776
0.176665
0.183388
0.192092
0.198009
0.199455
0.20208
0.202746
0.202706
0.202447
0.202682
0.202373
0.202595
0.195941
0.185765
0.184367
0.16715
0.146769
0.14346
0.124973
0.113306
0.111617
0.10245
0.0960262
0.0951438
0.0911011
0.0907656
0.0908393
0.0934156
0.0981975
0.0993082
0.105136
0.107145
0.12159
0.140721
0.143398
0.164842
0.184736
0.186932
0.191816
0.173979
0.171707
0.13746
0.11545
0.112008
0.0987801
0.0878539
0.0862074
0.0773491
0.070211
0.0685626
0.0684341
0.0685156
0.0714919
0.0723844
0.0811788
0.0961259
0.114612
0.118865
0.137661
0.143454
0.143903
0.142438
0.128351
0.124835
0.108348
0.095437
0.083236
0.0814365
0.0727841
0.0655074
0.0653181
0.0658462
0.115684
0.116127
0.119293
0.125902
0.128434
0.133187
0.134031
0.139402
0.145321
0.149568
0.150281
0.153985
0.157263
0.160408
0.162072
0.162291
0.163565
0.165078
0.164776
0.164714
0.164522
0.163814
0.163296
0.161991
0.16163
0.159779
0.16093
0.15463
0.151802
0.151011
0.147774
0.14444
0.140326
0.139591
0.136035
0.133085
0.131024
0.12964
0.129297
0.128129
0.128796
0.128268
0.128811
0.128777
0.129297
0.130501
0.131362
0.13215
0.132283
0.133242
0.133967
0.135536
0.13626
0.136429
0.137271
0.138023
0.14467
0.148392
0.148955
0.151917
0.156187
0.158315
0.15895
0.164064
0.167602
0.204864
0.177348
0.184289
0.192698
0.198586
0.200027
0.202708
0.20315
0.203086
0.202838
0.202764
0.202439
0.202657
0.195915
0.185662
0.184368
0.1671
0.146748
0.143437
0.124958
0.113297
0.111607
0.102457
0.0960443
0.095169
0.0911481
0.0908384
0.0909266
0.0935266
0.0983558
0.0994565
0.1053
0.107295
0.121648
0.140665
0.143324
0.164581
0.184665
0.186829
0.191747
0.17385
0.171683
0.137424
0.115413
0.11199
0.0987719
0.0878634
0.0862142
0.0773491
0.0702417
0.068616
0.068501
0.0686287
0.0715698
0.0724544
0.0812035
0.0961188
0.11457
0.118815
0.137626
0.143382
0.143853
0.142404
0.128279
0.124831
0.108289
0.0954312
0.0832272
0.0814375
0.0727901
0.0655054
0.0653419
0.0658524
0.143879
0.144309
0.147554
0.151304
0.156813
0.162041
0.162905
0.168344
0.174441
0.178824
0.179564
0.183387
0.186132
0.190287
0.192415
0.192699
0.194361
0.196205
0.19669
0.197057
0.196959
0.196508
0.196505
0.195384
0.19502
0.193317
0.190556
0.188139
0.18497
0.184143
0.180515
0.176614
0.172201
0.171303
0.167341
0.163409
0.160943
0.15881
0.158329
0.156483
0.156012
0.155296
0.15542
0.155338
0.155497
0.156619
0.157496
0.158434
0.158583
0.159655
0.160501
0.162378
0.163439
0.163618
0.164692
0.165751
0.173185
0.177133
0.177763
0.181186
0.185581
0.188138
0.188803
0.193867
0.197479
0.205855
0.206794
0.213477
0.220497
0.225559
0.226691
0.228466
0.226178
0.225551
0.220505
0.214462
0.213372
0.20822
0.19862
0.187817
0.185991
0.170044
0.150898
0.147568
0.128981
0.117402
0.115589
0.106955
0.102054
0.101328
0.099386
0.101231
0.101602
0.106433
0.112958
0.11434
0.120926
0.122553
0.13317
0.144448
0.146495
0.163242
0.180111
0.181945
0.186578
0.172697
0.170856
0.13969
0.117615
0.113992
0.0999008
0.0897439
0.0883449
0.0811191
0.076856
0.0774235
0.077648
0.0794912
0.0821573
0.082762
0.0879871
0.0993447
0.114743
0.118189
0.134783
0.140887
0.14141
0.140526
0.128056
0.124842
0.108764
0.0956202
0.0840744
0.082321
0.0743218
0.0693556
0.0692133
0.0693218
0.170409
0.170852
0.174253
0.173643
0.1577
0.189636
0.190569
0.196219
0.202571
0.207278
0.208055
0.212075
0.214079
0.219453
0.22192
0.222256
0.224177
0.22599
0.227213
0.227807
0.227763
0.227293
0.227649
0.22658
0.226199
0.224476
0.217702
0.219057
0.215568
0.214688
0.210621
0.206161
0.20144
0.200413
0.196035
0.1911
0.188496
0.185807
0.185217
0.182843
0.181169
0.180728
0.180562
0.180447
0.180322
0.181333
0.182342
0.183401
0.18356
0.184737
0.185564
0.187798
0.189138
0.189331
0.190599
0.191561
0.200045
0.204279
0.204977
0.208798
0.213395
0.216413
0.217116
0.222207
0.226068
0.234271
0.235613
0.242192
0.248876
0.253339
0.254294
0.255257
0.251164
0.250137
0.241497
0.230555
0.22866
0.218533
0.205693
0.193573
0.191288
0.175925
0.15728
0.153981
0.134994
0.123261
0.121394
0.113263
0.109664
0.109131
0.109036
0.11265
0.113295
0.119963
0.127937
0.129609
0.137092
0.138666
0.148393
0.154229
0.155431
0.165614
0.178858
0.180357
0.185038
0.174425
0.173007
0.14416
0.12153
0.117728
0.10271
0.0933013
0.0921402
0.0865159
0.0846568
0.0869664
0.0874871
0.0906875
0.0932652
0.0937172
0.0971262
0.104586
0.116956
0.119722
0.134379
0.140802
0.141398
0.141254
0.13001
0.126877
0.111072
0.0975089
0.0864706
0.0847885
0.077302
0.0743079
0.0741718
0.0740817
0.17155
0.171968
0.175417
0.182123
0.185478
0.190836
0.191764
0.197583
0.204153
0.208576
0.209335
0.213409
0.217162
0.220907
0.223346
0.223678
0.2257
0.228349
0.228757
0.22936
0.229318
0.229253
0.229348
0.228183
0.227784
0.226097
0.22658
0.22065
0.217097
0.216199
0.212202
0.207832
0.202823
0.20176
0.197333
0.193144
0.189701
0.186903
0.186288
0.183894
0.18357
0.181676
0.181475
0.181345
0.181325
0.18259
0.183254
0.184286
0.184446
0.185646
0.186882
0.188831
0.190087
0.190276
0.191572
0.193293
0.20114
0.205364
0.206063
0.209995
0.214631
0.217576
0.218277
0.223456
0.227308
0.235474
0.236806
0.243709
0.250041
0.254461
0.255415
0.256464
0.252064
0.251006
0.242531
0.231015
0.229084
0.218858
0.205904
0.193659
0.19143
0.176024
0.157376
0.154076
0.135089
0.123343
0.121474
0.113364
0.10978
0.109249
0.109207
0.112855
0.11351
0.120235
0.128259
0.129939
0.137453
0.139016
0.14874
0.154439
0.155614
0.165915
0.178858
0.180313
0.18507
0.17441
0.173081
0.144217
0.121573
0.117759
0.10291
0.0933472
0.0921856
0.0865882
0.0847688
0.0871124
0.0876453
0.0909316
0.0934486
0.0938951
0.0972837
0.104663
0.116984
0.119741
0.134405
0.140803
0.14141
0.141308
0.130013
0.126913
0.111075
0.0975531
0.0864942
0.0848174
0.0775108
0.0743577
0.0742376
0.0741329
0.1971
0.197544
0.201187
0.204997
0.212352
0.217623
0.218617
0.224694
0.23154
0.236372
0.23717
0.241456
0.24419
0.249402
0.252104
0.252474
0.254659
0.25707
0.258189
0.258907
0.258896
0.258633
0.259031
0.257852
0.257429
0.255638
0.25166
0.249864
0.246004
0.245049
0.240594
0.235708
0.230438
0.22927
0.224446
0.21918
0.215842
0.212601
0.2119
0.209063
0.207479
0.206148
0.205733
0.205579
0.205314
0.206462
0.207324
0.208467
0.208632
0.209926
0.21103
0.213396
0.214904
0.215105
0.216564
0.218
0.226968
0.231495
0.232258
0.236543
0.241402
0.244821
0.245563
0.250785
0.254965
0.2644
0.264983
0.271855
0.278355
0.282387
0.283238
0.283692
0.27812
0.276779
0.265553
0.250054
0.247349
0.232454
0.215905
0.201778
0.199023
0.183536
0.16504
0.161758
0.142273
0.130347
0.128443
0.120859
0.11848
0.118141
0.119733
0.124881
0.125779
0.134074
0.143397
0.145345
0.153853
0.1555
0.165441
0.167085
0.16743
0.170855
0.179156
0.1802
0.185294
0.17749
0.17655
0.149656
0.126387
0.122437
0.106746
0.0980095
0.0970756
0.0930402
0.0932838
0.0970641
0.0978482
0.102266
0.104896
0.105261
0.107559
0.111256
0.120493
0.122579
0.135225
0.1419
0.14258
0.143184
0.132932
0.129871
0.114271
0.10037
0.0898478
0.088261
0.0814117
0.0799425
0.0798419
0.0797256
0.198492
0.198907
0.202609
0.212651
0.21382
0.219059
0.220072
0.226376
0.233477
0.237971
0.238746
0.243101
0.247952
0.251183
0.253844
0.254208
0.256521
0.259885
0.260053
0.260769
0.260764
0.260994
0.261055
0.259753
0.259306
0.257555
0.260685
0.251738
0.2478
0.246824
0.242457
0.237671
0.232056
0.230846
0.225968
0.22162
0.217261
0.213893
0.213165
0.21031
0.21024
0.207279
0.20682
0.206652
0.206517
0.207962
0.208409
0.209519
0.209684
0.211007
0.212619
0.214621
0.216023
0.216216
0.217711
0.22009
0.22825
0.232758
0.233524
0.237941
0.242845
0.246174
0.246912
0.252241
0.256415
0.292918
0.266383
0.273666
0.279753
0.283738
0.284592
0.28517
0.279248
0.277877
0.266927
0.250687
0.247928
0.232888
0.216188
0.201922
0.19921
0.183674
0.165166
0.161883
0.1424
0.130456
0.12855
0.120996
0.118631
0.118297
0.119954
0.125144
0.126056
0.134417
0.143789
0.145755
0.154303
0.155942
0.165906
0.1674
0.167717
0.171439
0.179182
0.180189
0.185341
0.177495
0.176638
0.149728
0.126446
0.122489
0.107017
0.0980693
0.0971397
0.0931388
0.0934293
0.097252
0.0980494
0.102573
0.105131
0.105491
0.107776
0.111366
0.120544
0.122618
0.135262
0.141913
0.142603
0.143254
0.13295
0.129907
0.114289
0.100422
0.0898855
0.0883004
0.0817293
0.0800068
0.0799192
0.0797972
0.224821
0.225256
0.229148
0.234308
0.240116
0.246866
0.247852
0.254345
0.261735
0.266785
0.267596
0.272174
0.275461
0.28074
0.283667
0.284054
0.28647
0.289354
0.29044
0.291244
0.291233
0.291058
0.291517
0.290203
0.289717
0.287802
0.284697
0.281613
0.277354
0.276294
0.271388
0.266076
0.260251
0.258927
0.253601
0.247865
0.243898
0.240108
0.239281
0.235968
0.234329
0.232303
0.231661
0.231452
0.231043
0.232321
0.233088
0.234311
0.234481
0.23589
0.237219
0.239781
0.241459
0.241666
0.243315
0.245141
0.254686
0.259537
0.260362
0.265102
0.270264
0.274106
0.274883
0.280245
0.284814
0.294635
0.29543
0.30263
0.309174
0.312911
0.313684
0.313756
0.306997
0.30539
0.291992
0.272418
0.26891
0.249376
0.228736
0.212037
0.208752
0.1925
0.173918
0.170624
0.150603
0.138496
0.13656
0.129543
0.128314
0.12816
0.131304
0.137841
0.138975
0.148772
0.159415
0.16163
0.171361
0.173129
0.183687
0.182047
0.18158
0.178468
0.181001
0.181473
0.18659
0.181285
0.180836
0.155769
0.13195
0.127875
0.111674
0.103671
0.102965
0.100469
0.102586
0.107668
0.108688
0.114226
0.117145
0.117462
0.118954
0.119181
0.125156
0.12653
0.136907
0.143687
0.144439
0.145744
0.136397
0.133399
0.11807
0.103978
0.0940378
0.0925585
0.0863781
0.0860303
0.0859975
0.0860778
0.251007
0.251467
0.255501
0.254373
0.241837
0.27424
0.275344
0.282031
0.289583
0.29536
0.296232
0.301004
0.302334
0.310005
0.313209
0.313615
0.316064
0.318046
0.320439
0.321315
0.321282
0.320512
0.321449
0.320175
0.319656
0.317544
0.308469
0.310995
0.306446
0.305301
0.299818
0.29395
0.288079
0.286659
0.280887
0.273524
0.270232
0.266084
0.265165
0.261399
0.257662
0.257189
0.2564
0.25615
0.255417
0.25638
0.257691
0.25905
0.259225
0.260713
0.261577
0.264828
0.266837
0.267065
0.268852
0.269856
0.280974
0.286185
0.287064
0.292055
0.297455
0.301852
0.302668
0.308013
0.313025
0.322739
0.324294
0.331252
0.338475
0.342066
0.342769
0.342354
0.335096
0.333303
0.317627
0.295522
0.291335
0.26764
0.242978
0.223587
0.21966
0.202219
0.183395
0.180061
0.159507
0.147267
0.145306
0.138791
0.138612
0.138621
0.143086
0.150839
0.152167
0.16327
0.175139
0.177573
0.188666
0.190561
0.201773
0.197802
0.19664
0.186919
0.184456
0.184354
0.188504
0.185373
0.185264
0.162076
0.13791
0.133752
0.116836
0.109976
0.109481
0.108378
0.112102
0.118297
0.119517
0.125937
0.12949
0.129789
0.130612
0.127933
0.130685
0.131352
0.139163
0.145826
0.146606
0.14846
0.140097
0.137171
0.122231
0.108097
0.0988192
0.0974509
0.0915125
0.092334
0.0923732
0.0927989
0.253013
0.253427
0.257537
0.263089
0.26831
0.276321
0.277444
0.284438
0.292376
0.297669
0.298503
0.30337
0.307059
0.312557
0.315692
0.316085
0.3187
0.321961
0.323055
0.323911
0.323883
0.323723
0.324251
0.322788
0.322232
0.320168
0.317088
0.313553
0.308894
0.307722
0.302356
0.296649
0.290288
0.288806
0.282968
0.276698
0.272192
0.26787
0.266914
0.263132
0.261334
0.258775
0.257921
0.257656
0.257099
0.258508
0.259213
0.260521
0.260689
0.26222
0.263734
0.266541
0.268382
0.268594
0.270429
0.272576
0.282722
0.287899
0.28878
0.293949
0.299413
0.303673
0.304482
0.309974
0.314997
0.32463
0.326196
0.333709
0.340411
0.343949
0.344664
0.344468
0.336759
0.334932
0.319725
0.296611
0.292349
0.268411
0.243496
0.223906
0.220003
0.20248
0.183619
0.180283
0.159739
0.147469
0.145506
0.139042
0.138873
0.138891
0.143445
0.151243
0.152589
0.163778
0.175709
0.17817
0.189339
0.191226
0.202505
0.19836
0.19716
0.188073
0.184573
0.184431
0.188589
0.185413
0.185385
0.162192
0.138014
0.133857
0.117325
0.110099
0.109608
0.108559
0.11234
0.118586
0.119821
0.1264
0.129856
0.130151
0.130976
0.128146
0.130804
0.131451
0.139234
0.145866
0.146654
0.148563
0.140142
0.137235
0.122292
0.108173
0.0988998
0.0975348
0.0920318
0.0924496
0.0924983
0.0929367
0.279022
0.279467
0.283673
0.283648
0.270285
0.303494
0.304675
0.311737
0.319735
0.325894
0.326789
0.331815
0.333075
0.341379
0.344791
0.345202
0.347777
0.349826
0.352506
0.353419
0.353358
0.352411
0.353522
0.352144
0.351563
0.349282
0.340449
0.342343
0.337439
0.336188
0.330229
0.323975
0.317721
0.316163
0.309904
0.301753
0.298258
0.293644
0.29261
0.28839
0.284121
0.283584
0.282618
0.282315
0.281387
0.28238
0.283808
0.285268
0.285439
0.287035
0.287888
0.291526
0.293743
0.293976
0.29593
0.296933
0.308868
0.3144
0.31533
0.320674
0.326349
0.331183
0.332027
0.337441
0.342956
0.353127
0.354753
0.361859
0.369425
0.372909
0.373568
0.37293
0.365049
0.363084
0.345776
0.320908
0.316042
0.288366
0.25949
0.237033
0.232442
0.213256
0.193945
0.190533
0.169429
0.157012
0.15502
0.148986
0.149762
0.149923
0.155642
0.164539
0.166058
0.178427
0.19152
0.194176
0.206846
0.20885
0.220743
0.214992
0.21321
0.197976
0.190341
0.189615
0.19144
0.189976
0.190177
0.168837
0.14451
0.140301
0.123055
0.117087
0.116789
0.117
0.122198
0.129436
0.130847
0.138196
0.142443
0.142744
0.143055
0.137808
0.137331
0.137282
0.142294
0.148536
0.149314
0.1516
0.144179
0.141352
0.126918
0.112905
0.10431
0.103056
0.0976307
0.0991194
0.0992381
0.100071
0.281267
0.281659
0.285956
0.291821
0.297206
0.305855
0.307038
0.314458
0.322914
0.328473
0.329321
0.334459
0.338402
0.344234
0.347548
0.347944
0.350717
0.354254
0.355399
0.356278
0.356229
0.356017
0.35663
0.355013
0.35439
0.352169
0.348871
0.345156
0.340122
0.338845
0.333042
0.326996
0.320149
0.31852
0.312196
0.305362
0.300436
0.295617
0.294542
0.290321
0.288259
0.285348
0.284304
0.283988
0.283284
0.28482
0.285504
0.286898
0.28706
0.288706
0.290354
0.293446
0.295447
0.295659
0.297668
0.300046
0.310793
0.316274
0.317206
0.322764
0.32851
0.333166
0.334002
0.339592
0.345124
0.355198
0.356827
0.364609
0.371548
0.374977
0.375656
0.375313
0.366918
0.364918
0.348255
0.322218
0.317274
0.289336
0.260159
0.237465
0.23289
0.213601
0.194235
0.190821
0.169731
0.157271
0.155278
0.149306
0.150082
0.150254
0.156067
0.164998
0.166536
0.179001
0.192156
0.194841
0.207604
0.209598
0.221583
0.215658
0.213837
0.199523
0.190527
0.189758
0.191554
0.190039
0.190316
0.168979
0.144644
0.140437
0.123692
0.117247
0.116953
0.117226
0.122481
0.129766
0.131192
0.138733
0.142862
0.14316
0.143489
0.138082
0.137493
0.137424
0.142392
0.148598
0.149377
0.151725
0.144242
0.141434
0.127005
0.113007
0.104419
0.103168
0.0982967
0.0992669
0.0993932
0.100248
0.30805
0.308468
0.312792
0.31258
0.299438
0.333721
0.334947
0.342304
0.350696
0.357363
0.358283
0.363548
0.364421
0.373677
0.377317
0.377722
0.380377
0.382266
0.385474
0.386419
0.386313
0.385038
0.38642
0.384979
0.384332
0.381859
0.372278
0.374554
0.369316
0.367953
0.361479
0.354827
0.348282
0.346583
0.33982
0.330666
0.327172
0.322109
0.320951
0.316255
0.311158
0.31088
0.309747
0.309382
0.308206
0.309155
0.310837
0.31241
0.312574
0.314272
0.314981
0.319119
0.321587
0.321824
0.323935
0.324736
0.33764
0.343499
0.344473
0.350111
0.356047
0.361332
0.362197
0.367625
0.373689
0.384275
0.385945
0.393055
0.401085
0.404525
0.405142
0.40429
0.395988
0.393875
0.37502
0.347918
0.34243
0.311051
0.277968
0.252246
0.246949
0.225551
0.205519
0.201983
0.180283
0.167646
0.165612
0.159983
0.161628
0.161925
0.168781
0.17874
0.180432
0.194002
0.208283
0.211139
0.225473
0.227582
0.240156
0.233199
0.230891
0.210716
0.198255
0.196884
0.195401
0.194998
0.19539
0.175987
0.15171
0.147487
0.129947
0.124917
0.124801
0.126216
0.13276
0.140959
0.142544
0.150749
0.155757
0.156078
0.156053
0.148671
0.145061
0.144316
0.146326
0.151804
0.152537
0.155065
0.148608
0.145905
0.132105
0.118355
0.11045
0.109308
0.104306
0.106451
0.106633
0.107803
0.310553
0.310907
0.315342
0.321141
0.32704
0.336338
0.337571
0.345359
0.354295
0.360227
0.361088
0.366485
0.370313
0.376856
0.380361
0.380749
0.38364
0.387236
0.388664
0.389559
0.38947
0.389065
0.389863
0.388124
0.387428
0.385032
0.380942
0.377648
0.372256
0.370865
0.364596
0.358212
0.35095
0.34917
0.342345
0.334725
0.32959
0.324283
0.323081
0.318397
0.315761
0.312837
0.311609
0.31123
0.310337
0.311945
0.312719
0.314207
0.314359
0.316118
0.317778
0.321271
0.323459
0.323668
0.325846
0.328251
0.339758
0.345541
0.346516
0.352412
0.358431
0.363483
0.364339
0.369982
0.376065
0.386519
0.388192
0.396117
0.403399
0.406777
0.407423
0.40696
0.39806
0.395913
0.377894
0.349438
0.343863
0.312213
0.278775
0.252778
0.247493
0.225972
0.205858
0.202322
0.180646
0.167951
0.165918
0.160364
0.161995
0.162305
0.169268
0.179252
0.180966
0.194637
0.208979
0.211872
0.22631
0.228409
0.241105
0.233974
0.231627
0.212654
0.198502
0.19709
0.195547
0.195074
0.195538
0.176144
0.151864
0.147644
0.130737
0.125107
0.124996
0.126481
0.133081
0.141328
0.142929
0.151367
0.156225
0.156544
0.156557
0.149002
0.145265
0.144498
0.146452
0.151876
0.152606
0.155212
0.148684
0.145998
0.132209
0.118481
0.110581
0.109442
0.105113
0.106627
0.106815
0.108012
0.338301
0.338682
0.343053
0.341417
0.329539
0.365074
0.366333
0.373883
0.382583
0.389948
0.390899
0.39638
0.39645
0.407066
0.410974
0.411364
0.414034
0.415467
0.419538
0.420524
0.420346
0.418546
0.420331
0.418903
0.418187
0.415495
0.404103
0.407865
0.402328
0.400841
0.393792
0.386697
0.380012
0.378175
0.370885
0.360432
0.357206
0.35172
0.350432
0.345217
0.338908
0.339301
0.338011
0.337569
0.336061
0.336846
0.338981
0.340692
0.340844
0.342629
0.34301
0.347793
0.350582
0.350824
0.353079
0.353402
0.367488
0.373687
0.374693
0.38054
0.386716
0.392482
0.393359
0.398725
0.405356
0.41634
0.418004
0.424915
0.433562
0.437009
0.437574
0.43647
0.427967
0.425725
0.405307
0.376505
0.370443
0.33561
0.298384
0.269256
0.263217
0.239184
0.218177
0.214469
0.192096
0.179184
0.177095
0.171774
0.174209
0.174625
0.182515
0.193473
0.195321
0.210025
0.22545
0.228489
0.244489
0.246712
0.259998
0.252347
0.249602
0.224957
0.207996
0.205959
0.200508
0.20034
0.200755
0.183551
0.159532
0.15533
0.13747
0.133445
0.133496
0.136015
0.143801
0.152898
0.154641
0.16362
0.169425
0.169782
0.169595
0.160484
0.153896
0.152487
0.15134
0.15569
0.156327
0.158876
0.153403
0.150846
0.137808
0.124446
0.117219
0.116182
0.111479
0.114341
0.114568
0.115974
0.339676
0.33999
0.344513
0.350734
0.358024
0.366473
0.367758
0.375862
0.385226
0.391523
0.392397
0.398022
0.401747
0.408939
0.412609
0.412992
0.415971
0.419589
0.421295
0.42219
0.422066
0.421459
0.422442
0.420592
0.419835
0.417282
0.412923
0.409592
0.40389
0.402405
0.395723
0.389063
0.381456
0.379544
0.372267
0.363877
0.358625
0.352879
0.351564
0.346451
0.343167
0.340382
0.338993
0.338562
0.337473
0.339132
0.340061
0.341652
0.341793
0.343658
0.345264
0.349205
0.351592
0.351793
0.354123
0.356455
0.368709
0.37476
0.375772
0.381949
0.388201
0.393615
0.394482
0.400125
0.406753
0.418751
0.419183
0.427158
0.434804
0.438173
0.438798
0.438268
0.42905
0.426795
0.407639
0.377321
0.371201
0.336302
0.298845
0.269536
0.263521
0.239426
0.218339
0.214636
0.192322
0.179336
0.177251
0.172016
0.174396
0.174825
0.182803
0.193735
0.195604
0.210374
0.225804
0.228884
0.244928
0.247134
0.260551
0.252756
0.249991
0.227054
0.208129
0.206062
0.200598
0.200364
0.20082
0.183615
0.159602
0.155399
0.13833
0.133541
0.133594
0.136168
0.143975
0.153087
0.154843
0.164087
0.169666
0.170024
0.169915
0.160665
0.154005
0.152585
0.151428
0.155712
0.156346
0.158991
0.15343
0.150882
0.137854
0.12452
0.117285
0.116251
0.112349
0.114435
0.114662
0.116095
0.341129
0.341379
0.34608
0.357612
0.360797
0.36796
0.369271
0.378001
0.387955
0.393179
0.393977
0.39976
0.407506
0.410899
0.414332
0.414711
0.418035
0.423874
0.423142
0.423945
0.423882
0.42467
0.424643
0.422369
0.421573
0.419171
0.421252
0.411409
0.40554
0.404059
0.397798
0.391516
0.382985
0.380997
0.373737
0.367767
0.360124
0.354113
0.352771
0.347773
0.347718
0.341531
0.340037
0.33962
0.339008
0.341489
0.341195
0.342669
0.342796
0.344753
0.347808
0.350671
0.352653
0.352815
0.355228
0.359943
0.369983
0.375885
0.376904
0.383438
0.389738
0.394793
0.395653
0.401602
0.408201
0.44943
0.420412
0.429594
0.436107
0.439401
0.44009
0.440153
0.430216
0.427949
0.41025
0.378243
0.372063
0.337107
0.299378
0.26989
0.263891
0.239749
0.218568
0.21487
0.192608
0.179531
0.17745
0.172297
0.174612
0.175053
0.183116
0.194016
0.195909
0.210742
0.226177
0.229299
0.245394
0.247582
0.261144
0.253214
0.25043
0.229425
0.208306
0.206224
0.200723
0.200424
0.200912
0.183735
0.159709
0.15551
0.139276
0.133663
0.133713
0.136345
0.144164
0.153288
0.155058
0.164569
0.169925
0.170284
0.17027
0.160878
0.154144
0.152718
0.15154
0.15577
0.1564
0.159134
0.15349
0.150954
0.137933
0.124621
0.117371
0.11634
0.113349
0.114542
0.11477
0.116232
0.370354
0.370613
0.375144
0.380928
0.390362
0.39807
0.399381
0.407668
0.417362
0.424266
0.42516
0.430988
0.434095
0.442452
0.446346
0.446711
0.449705
0.452957
0.4554
0.456313
0.456125
0.455053
0.456418
0.454552
0.45373
0.450986
0.445879
0.443045
0.437074
0.435479
0.428295
0.421298
0.413527
0.411481
0.403721
0.394149
0.389145
0.382981
0.381539
0.375936
0.371524
0.369376
0.367829
0.367328
0.365924
0.367479
0.368818
0.37054
0.370659
0.372619
0.373917
0.378509
0.381181
0.381377
0.383842
0.38572
0.39904
0.405376
0.406412
0.412758
0.419222
0.425036
0.425906
0.431454
0.438625
0.450691
0.451305
0.459063
0.467273
0.470674
0.471263
0.470587
0.46128
0.458929
0.438506
0.406882
0.40026
0.362321
0.320899
0.288194
0.281412
0.254392
0.232058
0.228133
0.205064
0.1917
0.189544
0.184512
0.187564
0.188091
0.196983
0.208806
0.210812
0.226617
0.24309
0.246334
0.263941
0.266271
0.280467
0.272463
0.269362
0.242803
0.219488
0.216767
0.206939
0.206027
0.20628
0.191602
0.168043
0.163887
0.146548
0.142695
0.142895
0.146464
0.155392
0.16531
0.167209
0.177167
0.183505
0.183915
0.183841
0.173272
0.163881
0.161853
0.157467
0.160259
0.160742
0.163176
0.158603
0.156218
0.144068
0.131224
0.124628
0.123691
0.120041
0.122783
0.123038
0.124623
0.373188
0.373353
0.378079
0.38726
0.393431
0.400989
0.402324
0.411336
0.421756
0.427475
0.428272
0.434299
0.441253
0.446079
0.449713
0.450061
0.453451
0.459064
0.458942
0.459751
0.459615
0.460025
0.460362
0.458003
0.457118
0.454532
0.453666
0.44649
0.440298
0.438686
0.431939
0.425364
0.416486
0.414327
0.406541
0.399433
0.391918
0.385396
0.383903
0.378394
0.377229
0.37158
0.369889
0.369388
0.368521
0.371031
0.370955
0.372527
0.372629
0.374696
0.3776
0.381057
0.383244
0.383389
0.38596
0.390386
0.40141
0.40758
0.40862
0.415396
0.421946
0.427338
0.428194
0.434102
0.441267
0.451993
0.453693
0.462796
0.46976
0.47307
0.473726
0.473734
0.463554
0.461175
0.442313
0.408686
0.401961
0.363823
0.321943
0.288891
0.28213
0.254962
0.232474
0.228551
0.205545
0.192071
0.189919
0.185003
0.187989
0.188534
0.197557
0.209365
0.211403
0.227318
0.243831
0.247128
0.264841
0.267155
0.281553
0.273373
0.270237
0.245687
0.219846
0.217084
0.207168
0.206121
0.20643
0.191776
0.168224
0.164076
0.147736
0.142928
0.14313
0.146789
0.155758
0.165715
0.167633
0.177941
0.184019
0.18443
0.184469
0.173694
0.164164
0.162114
0.15767
0.160354
0.160828
0.163387
0.158695
0.156327
0.144194
0.131394
0.124791
0.123859
0.121235
0.122998
0.123255
0.12488
0.403916
0.404096
0.408497
0.411781
0.424248
0.432496
0.433797
0.442048
0.451906
0.459911
0.46084
0.466836
0.468329
0.478861
0.483124
0.483446
0.486318
0.488549
0.49255
0.493533
0.493212
0.49118
0.493278
0.491598
0.490695
0.487676
0.479937
0.479524
0.473339
0.471589
0.463681
0.456155
0.448556
0.446361
0.438019
0.426494
0.422328
0.415778
0.414175
0.407939
0.40159
0.400861
0.399161
0.398544
0.3966
0.39776
0.399957
0.401859
0.401949
0.403966
0.404524
0.410089
0.413234
0.413429
0.416002
0.416803
0.431769
0.43846
0.439501
0.445846
0.452505
0.458838
0.459692
0.464988
0.472711
0.483941
0.485634
0.492723
0.501863
0.505342
0.505851
0.504808
0.495726
0.493273
0.471162
0.438841
0.431729
0.390762
0.345296
0.309037
0.301478
0.2711
0.247228
0.243011
0.219025
0.205212
0.202958
0.198003
0.201689
0.202295
0.212017
0.224714
0.226839
0.243644
0.26115
0.264532
0.283672
0.286157
0.301217
0.293412
0.290034
0.259889
0.232692
0.229292
0.214732
0.212199
0.212083
0.200171
0.177259
0.173177
0.155403
0.152656
0.152996
0.157483
0.167496
0.178195
0.180224
0.190791
0.197971
0.198446
0.198524
0.186955
0.175003
0.172397
0.164652
0.165538
0.165811
0.167816
0.16423
0.162035
0.150875
0.138624
0.132658
0.131813
0.128199
0.131734
0.132008
0.133686
0.407027
0.407089
0.41172
0.418721
0.427633
0.435671
0.437001
0.446096
0.456831
0.463408
0.464213
0.47044
0.475947
0.482843
0.48677
0.48707
0.49041
0.495231
0.496395
0.497241
0.496988
0.496627
0.497623
0.495327
0.494347
0.491527
0.487742
0.483277
0.476826
0.475061
0.467688
0.46072
0.451775
0.449445
0.441093
0.432267
0.425397
0.418408
0.416746
0.410642
0.407665
0.403279
0.4014
0.400789
0.399494
0.401801
0.402312
0.404018
0.404085
0.406233
0.408613
0.412952
0.415473
0.415602
0.4183
0.421902
0.434361
0.440826
0.441872
0.448731
0.455505
0.461296
0.462132
0.46786
0.475578
0.486464
0.488168
0.496808
0.504514
0.507882
0.508479
0.508289
0.498168
0.495689
0.475406
0.440843
0.433617
0.392492
0.346507
0.309864
0.302321
0.271778
0.247698
0.243488
0.219587
0.205629
0.203383
0.19857
0.202155
0.202784
0.212655
0.225313
0.227476
0.2444
0.261932
0.265378
0.284625
0.287089
0.302399
0.294414
0.291001
0.263108
0.233126
0.229683
0.215024
0.21231
0.212245
0.200354
0.177459
0.173383
0.156758
0.152918
0.153258
0.157849
0.167897
0.17863
0.180681
0.191675
0.198523
0.198999
0.199231
0.187437
0.175336
0.172711
0.164916
0.165653
0.165914
0.168071
0.164333
0.162153
0.151015
0.138822
0.132842
0.132003
0.129524
0.131974
0.132248
0.133976
0.439417
0.439516
0.443628
0.442605
0.45983
0.468725
0.469981
0.477933
0.487737
0.497311
0.49831
0.504398
0.50346
0.51691
0.521707
0.52197
0.524554
0.525255
0.531461
0.532577
0.532067
0.528647
0.531717
0.530476
0.529497
0.526122
0.513912
0.517835
0.511551
0.509618
0.500784
0.492555
0.485549
0.483228
0.474244
0.460153
0.457334
0.450508
0.448728
0.441734
0.432776
0.434171
0.432353
0.431584
0.428859
0.429343
0.43284
0.434995
0.43505
0.437068
0.436478
0.443241
0.447096
0.447303
0.449932
0.449083
0.466133
0.473254
0.474278
0.480394
0.487186
0.494181
0.495006
0.499844
0.508072
0.519606
0.521248
0.527214
0.537616
0.541226
0.54161
0.53996
0.531522
0.528979
0.50487
0.472585
0.465037