/*--------------------------------*- C++ -*----------------------------------*\
| =========                 |                                                 |
| \\      /  F ield         | OpenFOAM: The Open Source CFD Toolbox           |
|  \\    /   O peration     | Version:  v2012                                 |
|   \\  /    A nd           | Website:  www.openfoam.com                      |
|    \\/     M anipulation  |                                                 |
\*---------------------------------------------------------------------------*/
FoamFile
{
    version     2.0;
    format      ascii;
    class       volScalarField;
    location    "1e-06";
    object      kMean;
}
// * * * * * * * * * * * * * * * * * * * * * * * * * * * * * * * * * * * * * //

dimensions      [0 2 -2 0 0 0 0];


internalField   nonuniform List<scalar> 
10178
(
0.0641321
0.0637338
0.0700796
0.0693167
0.0793087
0.0818116
0.0843972
0.092861
0.099193
0.101673
0.1012
0.107271
0.112592
0.113671
0.112066
0.112227
0.114662
0.1153
0.111007
0.106513
0.108361
0.109352
0.106148
0.100599
0.0987711
0.0995195
0.0958066
0.0930301
0.0872682
0.088235
0.0894827
0.087377
0.0795936
0.0759073
0.076773
0.0791684
0.0764784
0.0736585
0.0738565
0.077632
0.0813163
0.0805648
0.0797559
0.0818963
0.0857714
0.0872228
0.0865409
0.0851975
0.0849824
0.0875568
0.0898904
0.0901089
0.087702
0.0860161
0.0888305
0.0917834
0.0950267
0.0954556
0.0967364
0.102156
0.106362
0.104918
0.105673
0.11429
0.118749
0.12658
0.13025
0.141169
0.154209
0.160468
0.164635
0.168925
0.174706
0.177683
0.187816
0.201136
0.205177
0.212479
0.21113
0.205019
0.199862
0.178294
0.158016
0.150586
0.129667
0.119097
0.115508
0.104081
0.0959897
0.0932611
0.0847065
0.0802902
0.0792235
0.0774046
0.0782064
0.0796974
0.0871278
0.0965028
0.125894
0.167767
0.172366
0.181524
0.210701
0.214182
0.217853
0.198853
0.189984
0.148017
0.126829
0.120764
0.106038
0.0949439
0.0920992
0.0786431
0.0657951
0.059554
0.0580158
0.0548709
0.0601157
0.0643717
0.0833082
0.101646
0.125591
0.131401
0.154206
0.163346
0.163684
0.158521
0.142947
0.139124
0.118938
0.104774
0.092949
0.089325
0.0772935
0.0668341
0.0668531
0.0662607
0.0848848
0.0854059
0.0887344
0.0889511
0.079442
0.102912
0.103805
0.109512
0.115467
0.120126
0.120818
0.124665
0.127198
0.130711
0.131664
0.131778
0.132377
0.132472
0.131525
0.130526
0.130179
0.128419
0.12713
0.125306
0.124888
0.122494
0.116936
0.116779
0.114418
0.113662
0.110827
0.108057
0.10384
0.103295
0.100057
0.0977504
0.0970728
0.0968462
0.0967126
0.0966333
0.097657
0.0990429
0.100244
0.100337
0.101411
0.102503
0.103661
0.104185
0.104287
0.105094
0.105206
0.106689
0.106927
0.107053
0.107593
0.107447
0.113636
0.117247
0.117753
0.120166
0.124487
0.126245
0.126871
0.132288
0.136261
0.146637
0.148232
0.155639
0.168078
0.174815
0.176826
0.179918
0.184592
0.185399
0.191949
0.200004
0.200497
0.207407
0.20359
0.193074
0.192496
0.172713
0.149505
0.146272
0.12692
0.114292
0.112833
0.102755
0.0940586
0.093103
0.0863418
0.083126
0.0829263
0.0827092
0.0854965
0.0863811
0.0920075
0.0952432
0.122195
0.155896
0.158297
0.175044
0.198735
0.201472
0.207537
0.184242
0.181879
0.142301
0.118889
0.115701
0.103088
0.090624
0.088575
0.0776049
0.0665437
0.061895
0.0613944
0.05935
0.062993
0.0644807
0.081958
0.0979491
0.119762
0.125178
0.147602
0.15333
0.153823
0.152205
0.135459
0.131334
0.1137
0.100565
0.0868661
0.0850385
0.0754677
0.0647955
0.0645106
0.0657541
0.11521
0.115673
0.1188
0.115114
0.0980646
0.132706
0.133554
0.13882
0.144603
0.149063
0.149789
0.153461
0.155417
0.159814
0.161505
0.161722
0.162924
0.163815
0.164126
0.164051
0.163856
0.162831
0.162509
0.161266
0.160913
0.159027
0.151185
0.153877
0.151084
0.150303
0.146999
0.143577
0.139665
0.13895
0.135415
0.131828
0.130447
0.129135
0.128806
0.127645
0.127188
0.127849
0.128409
0.12839
0.128825
0.129838
0.130956
0.131761
0.131897
0.132834
0.133253
0.135046
0.135832
0.135998
0.136821
0.108201
0.144142
0.147881
0.148444
0.151331
0.155577
0.157763
0.1584
0.163453
0.167008
0.175734
0.176817
0.183539
0.192229
0.198145
0.199588
0.202207
0.202853
0.202808
0.202523
0.202734
0.202423
0.20267
0.195986
0.185789
0.184425
0.167174
0.146792
0.143485
0.124993
0.113324
0.111636
0.102471
0.096046
0.0951644
0.0911227
0.0907921
0.0908697
0.0934496
0.0982457
0.0993494
0.10518
0.107188
0.121617
0.140731
0.143405
0.164858
0.184774
0.186973
0.191863
0.173991
0.171748
0.137475
0.115462
0.112034
0.0988071
0.0878775
0.0862248
0.0773587
0.0702253
0.0685799
0.0684554
0.0685372
0.0715142
0.0724054
0.0811919
0.0961385
0.114622
0.118873
0.137691
0.143477
0.143934
0.142468
0.128358
0.12486
0.108355
0.0954582
0.0832501
0.0814509
0.0727892
0.0655151
0.0653343
0.0658586
0.115568
0.116012
0.119182
0.12584
0.128397
0.133069
0.133914
0.139288
0.145204
0.149447
0.150159
0.153863
0.15715
0.160276
0.161935
0.162153
0.163421
0.164929
0.164614
0.164542
0.164353
0.163644
0.163115
0.161803
0.161442
0.159591
0.16081
0.154439
0.151612
0.150826
0.147596
0.144266
0.140154
0.139421
0.135876
0.132945
0.130885
0.129509
0.12917
0.128013
0.128694
0.128166
0.128711
0.128682
0.129205
0.130412
0.131268
0.132055
0.132189
0.133145
0.13387
0.135433
0.136153
0.13632
0.137159
0.137994
0.144543
0.148261
0.148823
0.151783
0.156048
0.158172
0.158807
0.163922
0.167461
0.205078
0.177213
0.184158
0.192584
0.198477
0.199922
0.202615
0.203086
0.203028
0.202821
0.202782
0.202461
0.202706
0.195973
0.185731
0.184426
0.167146
0.146782
0.143473
0.124986
0.11332
0.111631
0.102476
0.0960563
0.0951812
0.0911524
0.090834
0.0909217
0.0935156
0.0983361
0.0994368
0.105276
0.107273
0.121655
0.1407
0.14336
0.164634
0.184734
0.186911
0.191819
0.173918
0.171735
0.137455
0.115441
0.112025
0.098802
0.087882
0.0862308
0.0773595
0.0702432
0.0686104
0.0684947
0.0686189
0.0715595
0.0724453
0.0812087
0.0961341
0.114597
0.118844
0.137668
0.143436
0.143906
0.142443
0.128317
0.12486
0.108321
0.0954547
0.0832448
0.0814528
0.0728018
0.0655143
0.0653478
0.0658627
0.143831
0.144261
0.147506
0.151292
0.156992
0.161988
0.162854
0.168291
0.174387
0.178766
0.179506
0.183329
0.18608
0.190224
0.192351
0.192636
0.194298
0.196145
0.196626
0.196993
0.196895
0.196447
0.196442
0.195321
0.194959
0.193257
0.190524
0.188081
0.184913
0.184087
0.180461
0.176561
0.172149
0.171253
0.167293
0.163367
0.160898
0.158766
0.158287
0.156443
0.155977
0.155257
0.155382
0.155301
0.15546
0.156583
0.157459
0.158397
0.158547
0.159619
0.160466
0.162341
0.163402
0.163581
0.164655
0.165717
0.173146
0.177093
0.177723
0.181145
0.18554
0.188096
0.188761
0.193824
0.197435
0.205652
0.206747
0.213431
0.220446
0.225507
0.226638
0.228412
0.226123
0.225496
0.220451
0.214406
0.213316
0.208172
0.198576
0.187777
0.185954
0.170008
0.150866
0.147538
0.128955
0.117378
0.115567
0.106933
0.102032
0.101307
0.0993673
0.101213
0.101584
0.106415
0.112939
0.114321
0.120905
0.122532
0.133149
0.144428
0.146466
0.16322
0.180085
0.181917
0.186547
0.172665
0.170826
0.139662
0.117594
0.113973
0.099884
0.0897276
0.0883294
0.0811028
0.0768423
0.0774107
0.0776355
0.0794785
0.0821442
0.0827487
0.087973
0.0993295
0.114727
0.118172
0.134765
0.140867
0.141389
0.140504
0.128034
0.124821
0.108746
0.0956044
0.08406
0.0823077
0.0743097
0.0693428
0.069201
0.0693098
0.170641
0.171083
0.174482
0.173768
0.157526
0.189883
0.190815
0.196467
0.202826
0.207544
0.208321
0.212344
0.214323
0.219738
0.222215
0.222549
0.224471
0.22628
0.227525
0.228126
0.228078
0.227604
0.227971
0.226907
0.226524
0.224799
0.217893
0.219375
0.21588
0.214996
0.210917
0.206447
0.201721
0.20069
0.196297
0.191334
0.188732
0.186033
0.185439
0.183052
0.181352
0.180921
0.180753
0.180633
0.180506
0.181511
0.182528
0.183587
0.183747
0.184924
0.185747
0.18799
0.189336
0.18953
0.190799
0.191755
0.200265
0.204506
0.205204
0.20903
0.213634
0.216656
0.21736
0.222453
0.226315
0.23452
0.235863
0.242438
0.249118
0.253576
0.254527
0.255475
0.251355
0.250321
0.241638
0.230657
0.228757
0.21862
0.205759
0.193607
0.19134
0.175954
0.157307
0.15401
0.135018
0.123284
0.121417
0.113286
0.109692
0.10916
0.109073
0.112697
0.113343
0.120023
0.128011
0.12968
0.13717
0.138743
0.148467
0.15428
0.155477
0.165635
0.178878
0.180366
0.185075
0.17444
0.173045
0.144177
0.121543
0.117743
0.102729
0.0933161
0.0921528
0.0865323
0.0846814
0.086999
0.0875219
0.0907274
0.0933048
0.0937559
0.0971575
0.104607
0.116969
0.119733
0.134403
0.140824
0.141423
0.14128
0.130019
0.126892
0.11108
0.0975258
0.0864773
0.0847968
0.0773094
0.074321
0.0741897
0.0740946
0.171313
0.171733
0.175185
0.181984
0.185424
0.190586
0.191515
0.197333
0.203895
0.208307
0.209066
0.213135
0.216917
0.220618
0.223048
0.223381
0.225399
0.228051
0.228436
0.229032
0.228994
0.228935
0.229016
0.227846
0.22745
0.225765
0.226382
0.220321
0.216774
0.215882
0.211896
0.207536
0.202533
0.201475
0.197063
0.192905
0.189459
0.186672
0.186063
0.183683
0.183386
0.181482
0.181285
0.181159
0.181146
0.182415
0.183073
0.184104
0.184264
0.185462
0.186701
0.18864
0.189892
0.190079
0.191372
0.193101
0.200921
0.205137
0.205837
0.209765
0.214395
0.217334
0.218035
0.223212
0.227064
0.235217
0.236558
0.243467
0.249802
0.254226
0.255185
0.256251
0.251878
0.250828
0.242399
0.230927
0.229003
0.218816
0.205885
0.193658
0.191425
0.176016
0.157365
0.154066
0.135079
0.123332
0.121464
0.11335
0.10976
0.109229
0.109177
0.112814
0.113468
0.120184
0.128195
0.129875
0.13738
0.138944
0.148678
0.154402
0.155582
0.165918
0.17888
0.180338
0.185093
0.174432
0.173089
0.144212
0.121569
0.117765
0.102908
0.0933419
0.0921802
0.0865763
0.0847473
0.0870827
0.0876139
0.0908949
0.0934107
0.0938583
0.0972565
0.104651
0.116985
0.119744
0.134417
0.140825
0.14143
0.141316
0.130021
0.126916
0.111083
0.0975527
0.0864916
0.0848152
0.0775068
0.0743502
0.0742278
0.0741257
0.197375
0.197817
0.201458
0.205167
0.21264
0.217915
0.218909
0.224989
0.231842
0.236688
0.237487
0.241778
0.244475
0.24974
0.25245
0.252819
0.255007
0.257409
0.258553
0.259278
0.259263
0.258991
0.259403
0.258227
0.257802
0.256008
0.251873
0.250227
0.24636
0.2454
0.240931
0.236033
0.230756
0.229583
0.224745
0.219443
0.216111
0.212859
0.212153
0.209303
0.207688
0.206372
0.205955
0.205795
0.205525
0.206668
0.207538
0.208681
0.208847
0.210141
0.211239
0.213617
0.21513
0.215333
0.216793
0.21822
0.227218
0.231752
0.232515
0.236805
0.241672
0.245096
0.245838
0.251063
0.255245
0.264337
0.265268
0.272136
0.278637
0.282663
0.283511
0.283949
0.27835
0.277003
0.265729
0.250187
0.247475
0.232557
0.215984
0.201822
0.199081
0.183572
0.165074
0.161793
0.142301
0.130375
0.128472
0.120889
0.118516
0.118178
0.119779
0.124938
0.125838
0.134146
0.143482
0.145431
0.153947
0.155593
0.165533
0.167154
0.167493
0.170882
0.179176
0.180208
0.185327
0.177507
0.176587
0.149676
0.126403
0.122454
0.106762
0.0980246
0.0970922
0.0930619
0.0933152
0.0971045
0.0978907
0.102315
0.104945
0.105309
0.107599
0.111283
0.120509
0.122593
0.135246
0.14192
0.142602
0.143209
0.132943
0.129882
0.11428
0.100386
0.089857
0.0882713
0.0814216
0.0799591
0.0798619
0.0797425
0.198194
0.198611
0.202316
0.212482
0.213524
0.21875
0.21976
0.22606
0.233151
0.237629
0.238405
0.242753
0.247648
0.250817
0.253468
0.253834
0.256142
0.259515
0.259654
0.260364
0.260363
0.260604
0.260649
0.259342
0.258899
0.257151
0.260463
0.251341
0.24741
0.246441
0.242089
0.237315
0.231707
0.230503
0.225644
0.221336
0.216969
0.213614
0.212892
0.210053
0.210019
0.20704
0.206587
0.206424
0.206298
0.207747
0.208187
0.209296
0.20946
0.210783
0.2124
0.21439
0.215786
0.215978
0.21747
0.219861
0.227987
0.232487
0.233254
0.237667
0.242563
0.245885
0.246623
0.25195
0.256122
0.293272
0.266084
0.273373
0.279457
0.283447
0.284306
0.284901
0.279006
0.277642
0.266744
0.250558
0.247811
0.23282
0.216151
0.201906
0.199192
0.183657
0.165148
0.161866
0.142383
0.130439
0.128534
0.120976
0.118604
0.118269
0.119914
0.125089
0.125999
0.134349
0.143707
0.145672
0.154208
0.155847
0.165816
0.167336
0.167659
0.171427
0.179192
0.180201
0.185354
0.17751
0.176639
0.149719
0.126439
0.122487
0.107011
0.0980597
0.0971299
0.0931219
0.0934007
0.0972123
0.0980076
0.102525
0.105081
0.105442
0.107736
0.111346
0.120539
0.122615
0.135268
0.141928
0.142615
0.143257
0.132954
0.129906
0.114292
0.100418
0.0898797
0.0882951
0.0817222
0.0799966
0.0799067
0.0797858
0.224749
0.225184
0.229077
0.234298
0.240445
0.246774
0.247771
0.254269
0.261659
0.266701
0.267512
0.272089
0.275398
0.280651
0.283576
0.283964
0.286381
0.289278
0.290347
0.29115
0.291141
0.290974
0.291427
0.29011
0.289626
0.287713
0.284651
0.281524
0.277266
0.276208
0.271307
0.265998
0.260171
0.258849
0.253526
0.247805
0.243829
0.24004
0.239214
0.235904
0.234285
0.232242
0.231602
0.231394
0.230988
0.23227
0.233032
0.234255
0.234425
0.235835
0.23717
0.239727
0.241403
0.24161
0.243259
0.245094
0.254628
0.259476
0.260302
0.265043
0.270203
0.274042
0.27482
0.280182
0.28475
0.294274
0.295362
0.302565
0.309102
0.312836
0.31361
0.313682
0.306918
0.305312
0.291921
0.272347
0.268843
0.24932
0.22869
0.211998
0.208717
0.192468
0.173889
0.170597
0.150579
0.138475
0.136541
0.129524
0.128295
0.128141
0.131284
0.13782
0.138953
0.148749
0.159389
0.161604
0.171329
0.173097
0.183657
0.182016
0.18155
0.178446
0.180979
0.181451
0.186569
0.181262
0.180814
0.155747
0.131932
0.127859
0.111661
0.103658
0.102953
0.100456
0.102571
0.107652
0.108673
0.11421
0.117125
0.117442
0.118935
0.119165
0.125143
0.126518
0.136896
0.143674
0.144425
0.145729
0.136381
0.133384
0.118056
0.103966
0.0940268
0.0925485
0.0863694
0.086021
0.0859881
0.0860674
0.251404
0.25186
0.255891
0.254551
0.241488
0.274653
0.27576
0.282452
0.290011
0.295817
0.296688
0.301467
0.302717
0.310487
0.313705
0.314107
0.316558
0.318505
0.320953
0.321835
0.321796
0.321002
0.321962
0.320695
0.32017
0.318052
0.308741
0.311492
0.306934
0.305782
0.300277
0.294389
0.288516
0.287089
0.281296
0.273872
0.270602
0.26644
0.265515
0.26173
0.257929
0.257501
0.256708
0.256452
0.255709
0.256658
0.257987
0.259347
0.259522
0.26101
0.261859
0.26513
0.267148
0.267377
0.269166
0.270144
0.281313
0.286534
0.287412
0.292407
0.297816
0.302223
0.303038
0.308384
0.313403
0.323121
0.324681
0.331626
0.338863
0.34245
0.343148
0.342711
0.335431
0.33363
0.317889
0.29573
0.291531
0.267779
0.243078
0.223646
0.219729
0.202261
0.183433
0.1801
0.159542
0.147303
0.145343
0.138832
0.138663
0.138674
0.143153
0.150924
0.152254
0.163373
0.175259
0.177695
0.188803
0.190698
0.201913
0.197915
0.196745
0.18696
0.18448
0.184368
0.188531
0.185387
0.185296
0.162094
0.137927
0.133771
0.11685
0.109998
0.109504
0.10841
0.112148
0.118358
0.119579
0.126008
0.129564
0.129863
0.130676
0.127973
0.130709
0.131371
0.139182
0.14584
0.146625
0.148482
0.140106
0.137181
0.122241
0.108108
0.0988325
0.0974656
0.0915267
0.0923567
0.0923975
0.0928241
0.252594
0.253013
0.257126
0.262892
0.268683
0.275876
0.277002
0.283997
0.291929
0.297189
0.298024
0.302884
0.306665
0.312049
0.31517
0.315567
0.318181
0.321485
0.322514
0.323363
0.323343
0.323212
0.323712
0.32224
0.32169
0.319634
0.316796
0.313028
0.308377
0.307214
0.301872
0.296185
0.289825
0.288352
0.282535
0.276335
0.2718
0.267492
0.266543
0.262782
0.261058
0.258446
0.257598
0.25734
0.256797
0.258221
0.258906
0.260213
0.260381
0.261911
0.263444
0.266227
0.26806
0.268271
0.270103
0.272282
0.282372
0.287538
0.288419
0.293587
0.299043
0.303291
0.304101
0.309592
0.314609
0.324229
0.325797
0.333326
0.34001
0.343549
0.34427
0.344095
0.336404
0.334585
0.319443
0.296371
0.292124
0.26825
0.243387
0.223833
0.219934
0.202423
0.183566
0.180233
0.159691
0.147422
0.145461
0.138993
0.138815
0.138832
0.143373
0.151157
0.152501
0.163675
0.175587
0.178047
0.189197
0.191082
0.20236
0.198239
0.197048
0.188026
0.18455
0.184412
0.188583
0.18541
0.185369
0.162164
0.137989
0.133832
0.117304
0.11007
0.109579
0.108521
0.112289
0.118524
0.119756
0.126328
0.129776
0.130072
0.130906
0.128098
0.130778
0.131429
0.139227
0.145866
0.146651
0.148555
0.140132
0.137221
0.122279
0.108156
0.09888
0.0975153
0.092013
0.092424
0.0924703
0.0929074
0.279457
0.279899
0.284101
0.283867
0.269887
0.303956
0.305135
0.312197
0.320198
0.326393
0.327288
0.33232
0.333477
0.341904
0.345331
0.345738
0.348312
0.35031
0.353061
0.35398
0.353913
0.352931
0.354072
0.352702
0.352116
0.349826
0.340749
0.342876
0.337963
0.336704
0.33072
0.324443
0.318191
0.316625
0.310344
0.302118
0.298658
0.294031
0.292989
0.28875
0.2844
0.283924
0.282953
0.282644
0.281704
0.282679
0.284131
0.285591
0.285763
0.287358
0.288189
0.291852
0.29408
0.294313
0.29627
0.297237
0.309231
0.314775
0.315705
0.32105
0.326734
0.33158
0.332423
0.337836
0.343359
0.353544
0.355168
0.362255
0.369843
0.373325
0.373978
0.373317
0.365419
0.363447
0.346069
0.32116
0.316283
0.288541
0.259619
0.237116
0.232533
0.213315
0.193999
0.190587
0.169477
0.157062
0.15507
0.149041
0.149827
0.149989
0.155722
0.164634
0.166155
0.178542
0.191653
0.19431
0.206999
0.209002
0.220901
0.215124
0.213335
0.19803
0.190378
0.189642
0.191469
0.189994
0.190213
0.168861
0.144534
0.140327
0.123075
0.117118
0.116822
0.117042
0.122254
0.129505
0.130918
0.138274
0.142528
0.142828
0.14313
0.137861
0.137363
0.13731
0.142315
0.148551
0.149332
0.151623
0.144192
0.141366
0.126933
0.11292
0.10433
0.103077
0.0976501
0.0991491
0.0992689
0.100105
0.280797
0.281194
0.285497
0.291591
0.297623
0.305356
0.306543
0.313967
0.32242
0.327936
0.328784
0.333916
0.33798
0.343669
0.346966
0.347366
0.350142
0.35374
0.354799
0.355671
0.355631
0.355461
0.356037
0.354409
0.353792
0.351581
0.348549
0.344578
0.339552
0.338285
0.332511
0.32649
0.319638
0.318018
0.311718
0.304971
0.300002
0.295197
0.294131
0.289932
0.287965
0.284982
0.283945
0.283635
0.28295
0.284506
0.285162
0.286554
0.286718
0.288364
0.290038
0.2931
0.29509
0.295301
0.297308
0.299731
0.310409
0.315877
0.31681
0.322369
0.328106
0.332748
0.333585
0.339177
0.3447
0.354759
0.356389
0.364196
0.371107
0.374536
0.375221
0.374902
0.366517
0.364525
0.347935
0.321933
0.317005
0.289139
0.260021
0.23737
0.232801
0.213529
0.19417
0.190759
0.169672
0.157213
0.155222
0.149246
0.150013
0.150184
0.155984
0.1649
0.166436
0.178884
0.19202
0.194704
0.207444
0.209436
0.221417
0.215513
0.213701
0.19946
0.190488
0.189724
0.19154
0.19003
0.190296
0.168947
0.144614
0.140407
0.123666
0.117211
0.116917
0.11718
0.122421
0.129695
0.131118
0.138651
0.142771
0.14307
0.143406
0.138022
0.137457
0.137393
0.142378
0.148587
0.149368
0.151713
0.144229
0.141417
0.126985
0.112985
0.104394
0.103144
0.0982741
0.0992353
0.0993592
0.100212
0.308532
0.308945
0.313264
0.312814
0.298992
0.334231
0.335455
0.342807
0.351199
0.357913
0.358833
0.364105
0.364845
0.374252
0.377909
0.37831
0.38096
0.382779
0.38608
0.387032
0.386917
0.385596
0.387017
0.385587
0.384934
0.38245
0.372596
0.375134
0.369887
0.368514
0.36201
0.355331
0.348794
0.347087
0.3403
0.331053
0.327608
0.322532
0.321366
0.316648
0.311451
0.311253
0.310115
0.309743
0.30855
0.309476
0.311189
0.312764
0.312928
0.314624
0.315304
0.319474
0.321954
0.322191
0.324304
0.325057
0.338034
0.343905
0.344878
0.350516
0.356461
0.361761
0.362624
0.36805
0.374124
0.384723
0.386392
0.393476
0.401537
0.404976
0.405587
0.40471
0.396396
0.394276
0.375343
0.348208
0.342708
0.311255
0.27812
0.252346
0.247055
0.22562
0.205581
0.202046
0.180338
0.167704
0.165671
0.160046
0.161702
0.162
0.168871
0.178846
0.180539
0.194128
0.208427
0.211285
0.225641
0.22775
0.240332
0.233351
0.231036
0.210781
0.198303
0.196922
0.195433
0.195019
0.195425
0.176013
0.151737
0.147516
0.12997
0.124953
0.124839
0.126265
0.132823
0.141036
0.142622
0.150836
0.155851
0.156172
0.156138
0.148733
0.1451
0.14435
0.146349
0.151818
0.152553
0.155088
0.148622
0.145921
0.132122
0.118374
0.110474
0.109333
0.104328
0.106486
0.106669
0.107842
0.310033
0.310391
0.314834
0.320913
0.327499
0.335788
0.337025
0.344822
0.35376
0.359635
0.360495
0.365887
0.369869
0.376237
0.379722
0.380114
0.383012
0.386693
0.388008
0.388895
0.388816
0.388469
0.389219
0.387464
0.386776
0.384392
0.380612
0.377018
0.371633
0.370254
0.36402
0.357667
0.350391
0.34862
0.341821
0.334311
0.329114
0.323821
0.322629
0.31797
0.315452
0.312433
0.311212
0.310841
0.309971
0.311607
0.312344
0.31383
0.313983
0.315742
0.31744
0.320895
0.323069
0.323277
0.325452
0.327918
0.339341
0.345109
0.346086
0.351986
0.357996
0.363031
0.363888
0.369535
0.375608
0.386044
0.387719
0.395678
0.402921
0.406298
0.406949
0.406514
0.397616
0.395478
0.377542
0.349108
0.34355
0.311977
0.278607
0.25266
0.247383
0.225886
0.205781
0.202248
0.180576
0.167883
0.165852
0.160294
0.161915
0.162224
0.169175
0.179142
0.180854
0.194509
0.20883
0.211722
0.226134
0.22823
0.24092
0.233805
0.231466
0.212577
0.198449
0.197042
0.195525
0.195062
0.195515
0.176108
0.151828
0.147609
0.130707
0.125065
0.124953
0.126428
0.133014
0.141249
0.142847
0.151278
0.156123
0.156443
0.156463
0.148929
0.145219
0.144458
0.146433
0.151861
0.152593
0.155198
0.148668
0.145978
0.132185
0.118455
0.110551
0.109413
0.105087
0.106589
0.106775
0.10797
0.338852
0.339227
0.343589
0.341637
0.329045
0.365656
0.366911
0.37445
0.383144
0.390575
0.391526
0.397013
0.396911
0.407718
0.411648
0.412033
0.414694
0.416029
0.420227
0.42122
0.421032
0.419166
0.421002
0.419591
0.418869
0.416164
0.404425
0.40852
0.402975
0.401476
0.394388
0.387258
0.380591
0.378745
0.371427
0.360855
0.357697
0.352198
0.350901
0.34566
0.339224
0.339721
0.338425
0.337974
0.336444
0.337197
0.339375
0.341089
0.341241
0.343023
0.343363
0.348186
0.350992
0.351234
0.353491
0.353748
0.367925
0.374139
0.375144
0.380988
0.387173
0.392958
0.393832
0.399193
0.405836
0.416821
0.418499
0.425372
0.434063
0.43751
0.438069
0.436933
0.428428
0.426177
0.405668
0.376843
0.370768
0.335851
0.298563
0.269378
0.263342
0.239267
0.21825
0.214542
0.192161
0.179252
0.177163
0.171846
0.174294
0.174711
0.182616
0.193591
0.19544
0.210164
0.22561
0.228649
0.244675
0.246899
0.260194
0.252523
0.249771
0.225034
0.208057
0.206011
0.200543
0.200362
0.20079
0.183579
0.159563
0.155363
0.137496
0.133488
0.133542
0.13607
0.143873
0.152983
0.154728
0.163715
0.16953
0.169887
0.169693
0.160559
0.153944
0.152531
0.151365
0.155706
0.156342
0.158899
0.153419
0.150864
0.137827
0.124469
0.117248
0.116213
0.111504
0.114382
0.11461
0.116019
0.339695
0.340008
0.344531
0.350801
0.358525
0.366493
0.367777
0.375881
0.385247
0.391544
0.392418
0.398043
0.40176
0.408961
0.412631
0.413013
0.415991
0.419609
0.421316
0.422211
0.422087
0.421475
0.422463
0.420612
0.419855
0.417302
0.412952
0.409611
0.403908
0.402423
0.395739
0.38908
0.381472
0.37956
0.372283
0.363886
0.358641
0.352894
0.351579
0.346466
0.343178
0.340397
0.339008
0.338577
0.337487
0.339148
0.340077
0.341668
0.341808
0.343674
0.345277
0.349221
0.351608
0.351809
0.354139
0.356466
0.368726
0.374777
0.375789
0.381966
0.388219
0.393632
0.3945
0.400142
0.406771
0.418243
0.419202
0.427176
0.434824
0.438193
0.438818
0.438288
0.429069
0.426814
0.407654
0.377336
0.371218
0.336315
0.298856
0.269547
0.263536
0.239437
0.218348
0.214647
0.192329
0.179343
0.177259
0.172023
0.174403
0.174832
0.18281
0.193742
0.195611
0.210383
0.225813
0.228893
0.244938
0.247143
0.260561
0.252765
0.250001
0.227059
0.208137
0.206072
0.200608
0.200376
0.200832
0.183623
0.159607
0.155406
0.138334
0.133545
0.133599
0.136173
0.143979
0.153092
0.154848
0.164092
0.169671
0.170029
0.169919
0.160669
0.15401
0.152591
0.151435
0.15572
0.156353
0.158999
0.153436
0.150888
0.137858
0.124523
0.117288
0.116254
0.112351
0.114438
0.114665
0.116098
0.340583
0.340839
0.34555
0.357289
0.360259
0.367384
0.3687
0.377444
0.3874
0.392559
0.393357
0.399135
0.40706
0.410252
0.413663
0.414048
0.417382
0.423317
0.422458
0.423253
0.423201
0.424063
0.423974
0.421683
0.420894
0.418507
0.420884
0.410755
0.404893
0.403424
0.397203
0.390952
0.382404
0.380426
0.373193
0.367353
0.359631
0.353634
0.352302
0.347331
0.347407
0.341113
0.339627
0.339219
0.338634
0.341144
0.340809
0.34228
0.342409
0.344368
0.347469
0.350286
0.352252
0.352414
0.354825
0.359616
0.369557
0.375444
0.376465
0.383007
0.389295
0.394333
0.395194
0.40115
0.407737
0.449961
0.419934
0.429155
0.435621
0.438912
0.439609
0.4397
0.429759
0.4275
0.409888
0.377892
0.37173
0.336849
0.299192
0.269759
0.263768
0.239654
0.218485
0.214792
0.192533
0.179459
0.17738
0.172223
0.174529
0.174969
0.18302
0.193905
0.195796
0.210612
0.226027
0.229148
0.245217
0.247402
0.260955
0.253034
0.250259
0.22934
0.208242
0.206166
0.200695
0.200411
0.200889
0.183699
0.159672
0.155473
0.139244
0.133618
0.133668
0.136291
0.144095
0.153207
0.154975
0.164479
0.169822
0.170181
0.170171
0.160798
0.154091
0.152671
0.151517
0.155753
0.156384
0.159119
0.153472
0.150933
0.137909
0.124593
0.117339
0.116308
0.113322
0.114502
0.114728
0.116187
0.37089
0.371143
0.375664
0.381275
0.390904
0.398634
0.39994
0.408211
0.417899
0.424871
0.425765
0.431597
0.434524
0.443078
0.446994
0.447354
0.450335
0.453484
0.45606
0.456979
0.456781
0.455631
0.457058
0.45521
0.454382
0.451623
0.446262
0.443671
0.437695
0.436088
0.428864
0.421833
0.414085
0.41203
0.404244
0.394541
0.38962
0.383445
0.381994
0.376365
0.371822
0.369784
0.368232
0.367723
0.366293
0.367817
0.369201
0.370926
0.371044
0.373001
0.37425
0.378889
0.381578
0.381775
0.384241
0.38604
0.39946
0.405811
0.406845
0.413185
0.419659
0.425491
0.426359
0.431899
0.439082
0.45071
0.451776
0.459491
0.46775
0.471153
0.471735
0.471028
0.461726
0.459369
0.438853
0.407223
0.400588
0.36257
0.321085
0.288323
0.281544
0.25448
0.232134
0.228208
0.205131
0.19177
0.189614
0.184587
0.18765
0.188178
0.197084
0.208922
0.210929
0.226753
0.243245
0.246489
0.264121
0.266452
0.280658
0.272641
0.269533
0.242882
0.219555
0.216827
0.206976
0.206049
0.206313
0.19163
0.168074
0.163922
0.146575
0.14274
0.142942
0.146521
0.155463
0.165394
0.167294
0.17726
0.183609
0.184018
0.183939
0.17335
0.163934
0.161901
0.157494
0.160277
0.160758
0.163198
0.158619
0.156237
0.144088
0.131248
0.124658
0.123723
0.120067
0.122826
0.123081
0.124669
0.372608
0.372779
0.377519
0.38689
0.392848
0.40038
0.401721
0.410758
0.42119
0.426823
0.427619
0.433644
0.440806
0.445406
0.449012
0.449366
0.452773
0.458512
0.458227
0.459027
0.458905
0.45941
0.459673
0.457286
0.456408
0.453841
0.453237
0.445806
0.439619
0.43802
0.431322
0.424786
0.415875
0.413724
0.405968
0.399015
0.391399
0.384887
0.383405
0.377927
0.376915
0.371136
0.369452
0.368961
0.368129
0.370678
0.370546
0.372114
0.372218
0.374288
0.377253
0.380655
0.382821
0.382964
0.385535
0.390056
0.400964
0.407117
0.408159
0.414949
0.421489
0.426858
0.427715
0.433634
0.440788
0.45148
0.453196
0.462355
0.469255
0.472561
0.473226
0.473268
0.463071
0.4607
0.441939
0.4083
0.401593
0.363532
0.321729
0.288737
0.281986
0.254852
0.23238
0.228463
0.205462
0.191989
0.18984
0.184921
0.187897
0.188442
0.197453
0.209246
0.211282
0.227181
0.243673
0.24697
0.264655
0.266965
0.281352
0.273176
0.270047
0.245592
0.219766
0.217012
0.207131
0.206104
0.206404
0.191739
0.168183
0.164035
0.147702
0.142877
0.143079
0.146729
0.155683
0.165628
0.167544
0.177847
0.183908
0.184319
0.184361
0.173603
0.1641
0.162058
0.15764
0.160333
0.160808
0.16337
0.158675
0.156303
0.144167
0.131363
0.124754
0.123823
0.121207
0.122953
0.123208
0.12483
0.404496
0.404672
0.409057
0.412146
0.424831
0.433105
0.434401
0.442624
0.452465
0.460562
0.461493
0.46749
0.46877
0.479529
0.483821
0.484137
0.486988
0.489087
0.493256
0.494248
0.493914
0.491781
0.493955
0.492304
0.491394
0.488356
0.480362
0.480194
0.474006
0.472243
0.464284
0.456716
0.449156
0.446953
0.438581
0.426898
0.422838
0.416279
0.414667
0.408399
0.401896
0.401301
0.399597
0.398969
0.396992
0.398109
0.400368
0.402274
0.402364
0.404375
0.404869
0.41049
0.413661
0.413856
0.416428
0.417131
0.432215
0.438923
0.439962
0.446296
0.452964
0.459321
0.460173
0.465454
0.473191
0.484441
0.486131
0.493161
0.502366
0.505848
0.506349
0.505267
0.496204
0.493744
0.471525
0.439217
0.432092
0.391041
0.345507
0.309193
0.30163
0.271199
0.247313
0.243095
0.2191
0.205291
0.203037
0.198084
0.201783
0.20239
0.212125
0.224838
0.226964
0.243788
0.261314
0.264695
0.283861
0.286347
0.30142
0.293607
0.290223
0.259976
0.232772
0.229365
0.214775
0.212223
0.212117
0.2002
0.177293
0.173214
0.155432
0.152707
0.153049
0.157545
0.167573
0.178285
0.180315
0.190888
0.198083
0.198557
0.19863
0.187043
0.175065
0.172454
0.164684
0.16556
0.16583
0.167839
0.164248
0.162056
0.150897
0.138651
0.132693
0.131849
0.128226
0.131781
0.132056
0.133737
0.406398
0.406465
0.411117
0.418373
0.427008
0.435013
0.43635
0.445483
0.456244
0.462707
0.463509
0.469738
0.475492
0.482127
0.486017
0.486324
0.48969
0.494668
0.49563
0.496464
0.496227
0.495988
0.496896
0.494559
0.493586
0.49079
0.487314
0.482547
0.476095
0.474345
0.467034
0.460117
0.451116
0.448794
0.440475
0.431835
0.42484
0.417857
0.416206
0.41014
0.40734
0.4028
0.400927
0.400328
0.399077
0.401437
0.401874
0.403573
0.403642
0.405795
0.408252
0.412528
0.415018
0.415145
0.417845
0.421563
0.433889
0.440332
0.44138
0.448261
0.455026
0.460786
0.461624
0.46737
0.475076
0.485935
0.487642
0.496357
0.503984
0.507344
0.507951
0.507807
0.497651
0.495181
0.475016
0.440419
0.43321
0.392166
0.346261
0.309685
0.302153
0.27165
0.247592
0.243389
0.219495
0.205536
0.203293
0.19848
0.202054
0.202683
0.212544
0.225185
0.227347
0.244255
0.261765
0.265211
0.28443
0.286889
0.302187
0.294198
0.290792
0.263004
0.233029
0.229596
0.214977
0.212287
0.212216
0.200317
0.177413
0.173338
0.156722
0.152861
0.153201
0.157783
0.167816
0.178537
0.180586
0.191576
0.198405
0.19888
0.199114
0.187333
0.175261
0.172644
0.164877
0.165628
0.165891
0.168051
0.16431
0.162128
0.150986
0.138787
0.132801
0.131962
0.129494
0.131923
0.132196
0.133921
0.440069
0.440163
0.444254
0.442897
0.460477
0.469408
0.470656
0.478566
0.48834
0.498039
0.499041
0.505127
0.50392
0.517649
0.522487
0.522742
0.525296
0.525828
0.532248
0.533378
0.532849
0.529299
0.53246
0.531264
0.530278
0.526877
0.514289
0.518581
0.512298
0.51035
0.501449
0.493161
0.48622
0.48389
0.474872
0.460585
0.457897
0.451068
0.449276
0.442244
0.4331
0.43466
0.432838
0.432056
0.429285
0.429713
0.433292
0.435453
0.435508
0.437518
0.436846
0.443674
0.447565
0.447773
0.450399
0.449429
0.466618
0.473762
0.474784
0.480879
0.48768
0.494707
0.495529
0.500347
0.508588
0.520149
0.521787
0.527674
0.53816
0.541776
0.542149
0.540447
0.532045