/*--------------------------------*- C++ -*----------------------------------*\
| =========                 |                                                 |
| \\      /  F ield         | OpenFOAM: The Open Source CFD Toolbox           |
|  \\    /   O peration     | Version:  v2012                                 |
|   \\  /    A nd           | Website:  www.openfoam.com                      |
|    \\/     M anipulation  |                                                 |
\*---------------------------------------------------------------------------*/
FoamFile
{
    version     2.0;
    format      ascii;
    class       volScalarField;
    location    "1e-06";
    object      kPrime2Mean;
}
// * * * * * * * * * * * * * * * * * * * * * * * * * * * * * * * * * * * * * //

dimensions      [0 4 -4 0 0 0 0];


internalField   nonuniform List<scalar> 
10178
(
1.56462e-09
1.29757e-09
2.37452e-09
2.21727e-09
8.90556e-09
1.36675e-09
2.5475e-09
4.49517e-09
5.14082e-09
3.65468e-09
2.81198e-09
4.60402e-09
7.21746e-09
5.17011e-09
3.19727e-09
3.33824e-09
4.8715e-09
5.28959e-09
3.25054e-09
1.73611e-09
2.62342e-09
3.75923e-09
2.83663e-09
1.26171e-09
1.19801e-09
1.67612e-09
2.00417e-09
1.25013e-09
1.80513e-10
8.09668e-10
7.67877e-10
1.00781e-09
6.07016e-10
4.92723e-10
6.75381e-10
7.63867e-10
4.10782e-10
5.20177e-10
2.46619e-10
1.02675e-09
1.39304e-09
9.7803e-10
6.16482e-10
9.62921e-10
1.4827e-09
1.53601e-09
1.15646e-09
8.31243e-10
7.78292e-10
1.10305e-09
1.55183e-09
1.24949e-09
7.99076e-10
5.51423e-10
8.35278e-10
1.31205e-09
9.33254e-10
5.16698e-10
6.09719e-10
1.09739e-09
1.10417e-09
7.11731e-10
6.96837e-10
1.26735e-09
3.69641e-10
1.26976e-09
6.59225e-11
1.63349e-09
5.07193e-10
2.68573e-10
2.80529e-09
2.3293e-09
5.57372e-10
3.69539e-09
3.40905e-09
6.23973e-09
4.49718e-09
1.1511e-08
9.75147e-09
2.54243e-09
7.96438e-09
7.61289e-09
5.33117e-10
4.01968e-09
4.13123e-09
1.39099e-09
2.24674e-09
2.52317e-09
8.50471e-10
1.37554e-09
1.38656e-09
4.95604e-10
8.75885e-10
8.29514e-10
3.5876e-10
7.90001e-10
1.14019e-09
1.95602e-09
4.01085e-09
1.26961e-08
2.72884e-10
9.85451e-09
2.49231e-09
5.05827e-09
9.80119e-09
2.23781e-08
4.36974e-09
1.60597e-09
1.32777e-09
1.55166e-09
2.24205e-09
8.27518e-10
3.89262e-10
8.63103e-10
4.73825e-10
1.63805e-10
2.47737e-10
2.96551e-10
2.92344e-10
4.86451e-10
1.25357e-09
1.3394e-09
1.50496e-10
2.05077e-09
3.59157e-09
1.11795e-09
1.42714e-09
4.00253e-09
2.15097e-10
1.87251e-10
1.36776e-09
1.23173e-09
3.93633e-10
4.1761e-10
8.60727e-10
3.10922e-10
1.62473e-10
4.58508e-10
2.70754e-10
2.60303e-10
2.10575e-10
1.14914e-11
4.6438e-10
2.02133e-10
1.90209e-10
1.09761e-10
1.01294e-10
1.17177e-10
1.47967e-10
9.68569e-11
3.70767e-11
1.35256e-10
2.49183e-10
2.24953e-10
2.56696e-10
3.74901e-10
5.65916e-10
7.26661e-10
7.02208e-10
9.30187e-10
1.17236e-09
1.2166e-09
1.111e-09
1.43429e-09
8.07414e-10
1.68957e-09
1.33671e-09
1.37973e-09
1.52334e-09
1.47514e-09
1.40507e-09
1.11228e-09
1.25014e-09
1.07623e-09
8.96032e-10
6.04015e-10
5.6037e-10
4.81919e-10
3.6079e-10
2.6555e-10
2.15181e-10
2.06193e-10
1.72751e-10
1.84043e-10
1.80552e-10
1.99117e-10
1.90336e-10
2.17225e-10
2.76711e-10
3.23186e-10
3.47404e-10
3.16876e-10
4.01552e-10
2.41752e-09
6.51003e-10
5.72235e-10
6.01397e-10
8.24502e-10
8.42435e-10
7.50267e-10
7.50064e-10
8.78977e-10
7.95057e-10
3.60212e-10
3.67425e-10
4.13133e-10
3.25309e-11
6.74292e-11
2.01255e-11
2.01896e-11
1.12269e-11
1.70429e-11
9.15593e-10
1.27425e-09
6.723e-10
2.94013e-09
2.7097e-09
8.04347e-10
2.48658e-09
1.9358e-09
4.17416e-10
1.02084e-09
9.32511e-10
2.70551e-10
5.49538e-10
5.61031e-10
1.41206e-10
2.94537e-10
2.22618e-10
3.6475e-11
9.91385e-11
4.60093e-11
1.97953e-12
1.91717e-11
9.41664e-12
2.01841e-12
1.25888e-09
3.72931e-09
3.20074e-09
2.8914e-09
1.68538e-09
2.0213e-09
3.53302e-09
6.08574e-10
1.70026e-09
7.99592e-10
1.94324e-10
3.94548e-10
6.04505e-10
1.93231e-10
1.45843e-10
2.01484e-10
6.64032e-11
5.94e-12
2.18094e-11
1.29575e-11
5.15415e-12
2.0097e-12
3.91139e-10
2.5884e-10
1.81724e-10
5.11804e-10
1.16654e-09
4.91346e-10
5.4981e-10
1.22988e-09
4.41875e-10
1.71448e-10
3.47071e-10
3.24593e-10
7.46983e-11
1.26029e-10
2.20726e-10
4.0456e-11
2.30397e-11
1.03284e-10
8.85724e-09
8.61213e-09
8.30294e-09
2.25391e-09
1.2289e-10
9.84627e-09
9.21486e-09
9.34673e-09
9.67392e-09
1.03503e-08
1.04355e-08
1.14117e-08
9.60525e-09
1.35056e-08
1.44037e-08
1.43109e-08
1.44409e-08
1.39104e-08
1.52316e-08
1.63832e-08
1.60598e-08
1.61103e-08
1.7568e-08
1.85052e-08
1.84106e-08
1.8431e-08
7.37369e-09
1.83785e-08
1.77826e-08
1.71879e-08
1.57795e-08
1.46537e-08
1.45946e-08
1.43041e-08
1.29356e-08
1.03815e-08
1.01759e-08
9.26326e-09
8.92726e-09
7.78405e-09
6.30343e-09
6.52244e-09
6.87879e-09
6.2069e-09
6.27017e-09
5.57196e-09
6.43714e-09
6.58726e-09
6.61909e-09
6.63506e-09
6.10408e-09
6.63738e-09
7.12705e-09
7.62267e-09
7.6213e-09
1.52137e-09
9.57691e-09
1.00395e-08
9.81016e-09
1.03224e-08
1.11866e-08
1.15389e-08
1.15242e-08
1.20594e-08
1.1681e-08
8.56496e-10
1.11272e-08
1.08638e-08
9.09425e-09
8.87311e-09
8.44737e-09
7.77523e-09
5.43744e-09
5.02154e-09
2.70885e-09
1.31183e-09
1.19408e-09
2.66595e-09
1.02582e-09
2.85855e-10
1.617e-09
2.81694e-10
2.63581e-10
2.87706e-10
1.95121e-10
1.63791e-10
1.71683e-10
2.0388e-10
1.77712e-10
2.22798e-10
2.23346e-10
3.36833e-10
4.59466e-10
5.50439e-10
1.10812e-09
8.12414e-10
9.37684e-10
8.59404e-10
3.57172e-10
6.2929e-11
1.87656e-11
1.10167e-10
7.36908e-10
7.65703e-10
1.07818e-09
7.46591e-11
8.20071e-10
1.00738e-10
7.53806e-11
3.40774e-10
3.4536e-10
2.64922e-10
1.61867e-10
4.41349e-11
9.11166e-11
1.41919e-10
2.21853e-10
2.22943e-10
2.42781e-10
2.11094e-10
8.15419e-11
7.562e-11
5.28648e-11
3.54376e-11
4.29893e-10
2.68371e-10
4.58886e-10
4.42872e-10
2.33434e-11
2.933e-10
2.16136e-11
2.13569e-10
9.27424e-11
1.06804e-10
1.23075e-11
2.66212e-11
1.25187e-10
7.2862e-11
6.44119e-09
6.28478e-09
5.90526e-09
1.84312e-09
6.97513e-10
6.72117e-09
6.5009e-09
6.22152e-09
6.53792e-09
7.07007e-09
7.1713e-09
7.16857e-09
6.09811e-09
8.28486e-09
9.01377e-09
9.09701e-09
9.83967e-09
1.05933e-08
1.26222e-08
1.42037e-08
1.37032e-08
1.39092e-08
1.57812e-08
1.70546e-08
1.68577e-08
1.70325e-08
6.97404e-09
1.76019e-08
1.72651e-08
1.65098e-08
1.51921e-08
1.44489e-08
1.42453e-08
1.38225e-08
1.22462e-08
9.50219e-09
9.25388e-09
8.18407e-09
7.74783e-09
6.43907e-09
5.0435e-09
5.02602e-09
4.78012e-09
4.32483e-09
3.99242e-09
3.79746e-09
4.17046e-09
4.25123e-09
4.24314e-09
4.45968e-09
4.49211e-09
5.07415e-09
5.47898e-09
5.68782e-09
5.91791e-09
3.90065e-10
7.67154e-09
8.3363e-09
8.29337e-09
8.62826e-09
9.18011e-09
9.7406e-09
9.73818e-09
9.7841e-09
9.44287e-09
2.19544e-08
8.71507e-09
8.22523e-09
6.25979e-09
5.72739e-09
5.22425e-09
4.13445e-09
1.93841e-09
1.57739e-09
1.30474e-10
1.62357e-10
2.31011e-10
1.19368e-09
1.60547e-09
2.28498e-09
1.61227e-09
1.01438e-09
5.52231e-10
5.8934e-10
3.72668e-10
2.56801e-10
2.78478e-10
1.76093e-10
6.88097e-11
7.11839e-11
8.9331e-12
9.55525e-12
1.12192e-11
5.77292e-11
1.82992e-10
1.84632e-10
2.7837e-10
2.23271e-10
2.01099e-11
5.77271e-10
6.45062e-10
1.32411e-09
2.26787e-09
3.29098e-09
2.5085e-09
2.22306e-09
1.31669e-09
4.45894e-10
3.90275e-10
5.96342e-10
4.36529e-10
1.7838e-10
1.31637e-10
5.18449e-11
1.10127e-12
1.43541e-11
1.86933e-11
4.57686e-11
5.03972e-11
3.93044e-11
1.30558e-11
1.116e-10
3.42301e-10
4.12467e-10
8.08536e-10
1.40301e-09
1.32609e-09
7.25462e-10
6.86649e-10
3.89027e-10
4.93325e-10
2.62868e-10
1.57955e-10
1.12226e-10
6.54682e-11
3.86241e-11
1.70146e-11
5.13292e-11
1.14349e-09
1.1114e-09
1.11002e-09
6.69263e-11
1.54164e-08
1.52611e-09
1.31363e-09
1.36238e-09
1.4696e-09
1.63318e-09
1.61987e-09
1.7007e-09
1.30678e-09
1.90827e-09
1.98436e-09
1.94224e-09
1.96084e-09
1.79316e-09
2.05128e-09
2.04836e-09
1.98021e-09
1.8093e-09
1.93065e-09
1.92352e-09
1.85595e-09
1.78541e-09
5.06483e-10
1.6923e-09
1.62933e-09
1.55571e-09
1.43039e-09
1.36858e-09
1.30504e-09
1.24113e-09
1.12799e-09
8.72028e-10
9.73627e-10
9.18249e-10
8.73925e-10
8.08948e-10
5.92122e-10
7.52367e-10
7.30745e-10
6.99553e-10
6.56084e-10
6.30526e-10
6.67295e-10
6.67118e-10
6.49828e-10
6.4723e-10
5.86899e-10
6.55604e-10
6.69141e-10
6.59252e-10
6.64437e-10
5.5195e-10
7.47831e-10
7.90443e-10
7.84751e-10
7.99843e-10
8.40346e-10
8.94488e-10
8.88557e-10
8.98913e-10
9.37177e-10
1.99848e-08
1.06165e-09
1.05739e-09
1.27028e-09
1.35867e-09
1.35255e-09
1.38839e-09
1.52225e-09
1.49053e-09
1.40174e-09
1.53606e-09
1.49075e-09
1.14281e-09
9.3046e-10
7.7135e-10
6.88371e-10
6.21031e-10
4.96061e-10
4.25156e-10
3.36287e-10
2.68322e-10
2.3725e-10
2.2498e-10
2.23551e-10
2.03552e-10
1.69202e-10
1.5292e-10
1.48703e-10
1.49594e-10
1.70988e-10
1.76032e-10
2.11893e-10
2.26673e-10
2.17003e-10
2.01314e-10
3.98412e-10
2.4499e-10
3.24903e-10
3.62218e-10
4.43286e-10
4.86437e-10
4.47471e-10
3.64555e-10
2.29159e-10
1.83061e-10
1.363e-10
1.27701e-10
1.16108e-10
1.2674e-10
9.0205e-11
7.80419e-11
7.56438e-11
7.76293e-11
8.35084e-11
8.51873e-11
9.64831e-11
1.11532e-10
1.1735e-10
1.28271e-10
1.50176e-10
2.01825e-10
2.12385e-10
2.29362e-10
2.27106e-10
1.97112e-10
1.63531e-10
1.20257e-10
9.9756e-11
8.54478e-11
7.01414e-11
7.90429e-11
7.32777e-11
6.99441e-11
2.6151e-08
2.57096e-08
2.53558e-08
7.48149e-09
1.45784e-08
2.94127e-08
2.91583e-08
2.97783e-08
3.13088e-08
3.41248e-08
3.41523e-08
3.51729e-08
2.88331e-08
3.96241e-08
4.19927e-08
4.16917e-08
4.20972e-08
4.09301e-08
4.71765e-08
4.93553e-08
4.84306e-08
4.69297e-08
5.06263e-08
5.19673e-08
5.12723e-08
5.0729e-08
1.77527e-08
4.93322e-08
4.75171e-08
4.60531e-08
4.25757e-08
3.96655e-08
3.81828e-08
3.70274e-08
3.34939e-08
2.6485e-08
2.69581e-08
2.45848e-08
2.36627e-08
2.10521e-08
1.61223e-08
1.80789e-08
1.77913e-08
1.68508e-08
1.62849e-08
1.52652e-08
1.66533e-08
1.66622e-08
1.69032e-08
1.68596e-08
1.61666e-08
1.77954e-08
1.88399e-08
1.91337e-08
1.94424e-08
1.83073e-08
2.34202e-08
2.48768e-08
2.4856e-08
2.59775e-08
2.75487e-08
2.87644e-08
2.8682e-08
2.93877e-08
2.95418e-08
3.01207e-08
3.02375e-08
2.93143e-08
2.83667e-08
2.72034e-08
2.62922e-08
2.29884e-08
1.75812e-08
1.64609e-08
9.59569e-09
5.05225e-09
4.52592e-09
3.62362e-09
2.10355e-09
5.50665e-10
1.31852e-09
4.28153e-10
3.69805e-10
3.98571e-10
2.67613e-10
2.42605e-10
2.52798e-10
2.61941e-10
3.9055e-10
4.12303e-10
6.50234e-10
1.04296e-09
1.09537e-09
1.71401e-09
2.61256e-09
2.48061e-09
2.91525e-09
2.84267e-09
2.59559e-09
1.29772e-09
1.03198e-09
2.11399e-10
2.37477e-10
4.15212e-11
6.5615e-10
1.11278e-10
6.79271e-10
1.39473e-10
9.01766e-11
1.28298e-10
1.77725e-10
9.40572e-11
7.72457e-11
1.29665e-10
2.88733e-10
5.06997e-10
5.86194e-10
7.66543e-10
7.52806e-10
7.15558e-10
4.67131e-10
2.04935e-10
9.03435e-11
5.82823e-11
2.58206e-10
2.36224e-10
3.00381e-10
3.35445e-10
4.24577e-11
1.13095e-10
3.17853e-11
1.37462e-10
2.19364e-11
3.73313e-11
2.62047e-11
8.28508e-11
1.55287e-10
8.07355e-11
2.75668e-08
2.69745e-08
2.63011e-08
9.45176e-09
1.43272e-09
3.10037e-08
3.01092e-08
3.05357e-08
3.23276e-08
3.52593e-08
3.53162e-08
3.64541e-08
2.93971e-08
4.07943e-08
4.34569e-08
4.31837e-08
4.44864e-08
4.34344e-08
5.02498e-08
5.26182e-08
5.13999e-08
4.95684e-08
5.39536e-08
5.55008e-08
5.45184e-08
5.38847e-08
1.91778e-08
5.28113e-08
5.10503e-08
4.92433e-08
4.54971e-08
4.27321e-08
4.1016e-08
3.95716e-08
3.562e-08
2.77655e-08
2.84706e-08
2.57996e-08
2.46634e-08
2.17294e-08
1.64348e-08
1.84123e-08
1.76063e-08
1.67455e-08
1.55892e-08
1.48593e-08
1.59612e-08
1.61621e-08
1.61491e-08
1.6423e-08
1.58366e-08
1.76778e-08
1.85765e-08
1.87992e-08
1.93762e-08
1.80328e-08
2.33956e-08
2.49741e-08
2.49044e-08
2.5728e-08
2.71499e-08
2.85528e-08
2.85023e-08
2.89218e-08
2.90034e-08
3.1732e-08
2.99622e-08
2.86472e-08
2.78576e-08
2.66369e-08
2.56271e-08
2.21341e-08
1.67478e-08
1.54467e-08
8.40121e-09
3.80168e-09
3.12226e-09
8.40502e-10
1.8049e-10
5.25857e-13
1.52505e-11
3.24117e-11
6.27612e-11
4.58284e-11
5.51723e-11
5.82492e-11
4.68393e-11
8.73726e-11
1.87348e-10
1.94542e-10
4.19339e-10
7.73001e-10
8.24925e-10
1.28443e-09
1.9455e-09
2.0026e-09
2.54114e-09
2.50284e-09
1.89484e-09
6.35346e-10
4.93788e-10
3.96524e-12
2.45773e-10
3.27641e-10
2.53008e-10
2.47017e-10
3.17253e-11
1.15234e-11
5.86821e-12
1.43418e-11
1.82789e-12
1.33782e-11
1.44403e-11
6.71444e-11
2.22549e-10
4.20005e-10
4.73293e-10
6.49296e-10
6.88571e-10
6.47341e-10
3.54914e-10
6.13269e-11
4.49953e-13
4.605e-12
7.03094e-11
2.2938e-10
1.85732e-10
3.07792e-11
3.49504e-11
2.68119e-12
2.73162e-11
8.39346e-14
3.20767e-12
2.31793e-12
7.6708e-12
2.62676e-11
4.61993e-11
2.47088e-11
3.70347e-08
3.63665e-08
3.58623e-08
1.41324e-08
4.02053e-08
4.11574e-08
4.14277e-08
4.23704e-08
4.46111e-08
4.8873e-08
4.8807e-08
5.0367e-08
3.94829e-08
5.57779e-08
5.85905e-08
5.82275e-08
5.91077e-08
5.62905e-08
6.50631e-08
6.72804e-08
6.5999e-08
6.28398e-08
6.77884e-08
6.90716e-08
6.80093e-08
6.68916e-08
2.21281e-08
6.45288e-08
6.2046e-08
6.01574e-08
5.54997e-08
5.16421e-08
4.96515e-08
4.80802e-08
4.35921e-08
3.38639e-08
3.54388e-08
3.24772e-08
3.12799e-08
2.80377e-08
2.10533e-08
2.4376e-08
2.38027e-08
2.27595e-08
2.17722e-08
2.05035e-08
2.22663e-08
2.22701e-08
2.24808e-08
2.24468e-08
2.13103e-08
2.36599e-08
2.49305e-08
2.51102e-08
2.56112e-08
2.34187e-08
3.04262e-08
3.22376e-08
3.21932e-08
3.34754e-08
3.53602e-08
3.6999e-08
3.68673e-08
3.75778e-08
3.81117e-08
1.96898e-09
3.96615e-08
3.8332e-08
3.85931e-08
3.72605e-08
3.61854e-08
3.19648e-08
2.56977e-08
2.42621e-08
1.49703e-08
8.537e-09
7.67423e-09
5.12564e-09
2.95399e-09
9.11417e-10
1.59563e-09
6.2323e-10
5.3517e-10
5.65496e-10
3.9329e-10
3.7366e-10
3.86959e-10
4.2031e-10
6.19453e-10
6.51256e-10
1.02189e-09
1.5818e-09
1.65456e-09
2.50419e-09
3.49577e-09
3.53896e-09
4.20938e-09
4.16308e-09
4.11825e-09
2.27521e-09
1.94947e-09
3.51043e-10
2.05701e-10
3.59528e-11
5.1032e-10
1.306e-10
6.46426e-10
1.79698e-10
1.22177e-10
1.40135e-10
1.05108e-10
1.08649e-10
1.33026e-10
2.24085e-10
4.73917e-10
7.84872e-10
8.7142e-10
1.1404e-09
1.1434e-09
1.09702e-09
7.80967e-10
3.27346e-10
1.35848e-10
8.99415e-11
2.11212e-10
2.04829e-10
2.48018e-10
2.97229e-10
5.39541e-11
6.5828e-11
4.37583e-11
1.30458e-10
4.05649e-11
5.23946e-11
4.65821e-11
1.32655e-10
1.94911e-10
1.36307e-10
4.31314e-08
4.21671e-08
4.14792e-08
1.38505e-08
4.28395e-08
4.4375e-08
4.61956e-08
4.85152e-08
5.14217e-08
5.64896e-08
5.64216e-08
5.84128e-08
4.49207e-08
6.49443e-08
6.88262e-08
6.80582e-08
6.95607e-08
6.62763e-08
7.70645e-08
7.97589e-08
7.78875e-08
7.36663e-08
8.02598e-08
8.19636e-08
8.03562e-08
7.9006e-08
2.41105e-08
7.65969e-08
7.38522e-08
7.12427e-08
6.55763e-08
6.13764e-08
5.88744e-08
5.67186e-08
5.1147e-08
3.90762e-08
4.12645e-08
3.75866e-08
3.59579e-08
3.19526e-08
2.36534e-08
2.74614e-08
2.62775e-08
2.51394e-08
2.33313e-08
2.2161e-08
2.38671e-08
2.41058e-08
2.40613e-08
2.43234e-08
2.30034e-08
2.58835e-08
2.70826e-08
2.72985e-08
2.80426e-08
2.52555e-08
3.33423e-08
3.55148e-08
3.54026e-08
3.63858e-08
3.83902e-08
4.03443e-08
4.02521e-08
4.08292e-08
4.13666e-08
6.09287e-08
4.32145e-08
4.14443e-08
4.21161e-08
4.0807e-08
3.9516e-08
3.48941e-08
2.83418e-08
2.65087e-08
1.61962e-08
7.98054e-09
6.57185e-09
2.18059e-09
6.50631e-10
1.1408e-10
1.56301e-10
1.33753e-10
1.52978e-10
1.22921e-10
1.34001e-10
1.36942e-10
1.20476e-10
1.92586e-10
3.54657e-10
3.7711e-10
7.71994e-10
1.4167e-09
1.52354e-09
2.24021e-09
3.24077e-09
3.32274e-09
4.27945e-09
4.28788e-09
3.87697e-09
1.92825e-09
1.58078e-09
6.75432e-11
5.05492e-11
6.99767e-11
7.60398e-11
1.0748e-10
9.14838e-13
3.8511e-11
2.44789e-11
2.58987e-12
1.95293e-11
4.37011e-11
4.57158e-11
1.36052e-10
3.89949e-10
7.49609e-10
8.38685e-10
1.10824e-09
1.22898e-09
1.17199e-09
7.68293e-10
1.79898e-10
1.39208e-11
3.70243e-12
1.71329e-11
1.09028e-10
7.40024e-11
4.05641e-12
7.11557e-12
9.41011e-13
5.32829e-12
7.18606e-12
1.613e-11
1.34745e-11
2.36108e-11
4.89654e-11
7.39714e-11
6.13342e-11
2.62e-09
2.55723e-09
2.49834e-09
4.58787e-11
5.31691e-08
7.76135e-09
4.15518e-09
2.83756e-09
2.84472e-09
3.63055e-09
3.4797e-09
3.57513e-09
1.97359e-09
3.91165e-09
4.14338e-09
4.07349e-09
4.00933e-09
2.92426e-09
4.33638e-09
4.40642e-09
4.25438e-09
3.54649e-09
4.11529e-09
4.29334e-09
4.1789e-09
4.00541e-09
1.03672e-09
3.9144e-09
3.84923e-09
3.69088e-09
3.31313e-09
3.03012e-09
3.17586e-09
3.06102e-09
2.80423e-09
1.80421e-09
2.39408e-09
2.28236e-09
2.18341e-09
1.97422e-09
9.67788e-10
1.80063e-09
1.73959e-09
1.66538e-09
1.47497e-09
1.28849e-09
1.53911e-09
1.55341e-09
1.51985e-09
1.49309e-09
1.20138e-09
1.46077e-09
1.5576e-09
1.54655e-09
1.54173e-09
1.09069e-09
1.68952e-09
1.80061e-09
1.78354e-09
1.76261e-09
1.82394e-09
1.99982e-09
1.99269e-09
1.94446e-09
2.04224e-09
6.38545e-08
2.30793e-09
2.05593e-09
2.60378e-09
2.79093e-09
2.74858e-09
2.71694e-09
3.06291e-09
2.98562e-09
2.45464e-09
2.4456e-09
2.18476e-09
1.54807e-09
1.04112e-09
7.22468e-10
5.98495e-10
4.96947e-10
4.02309e-10
3.40935e-10
2.78742e-10
2.12535e-10
1.85356e-10
1.77729e-10
1.7557e-10
1.7274e-10
1.93973e-10
2.23024e-10
2.29026e-10
2.50452e-10
3.13471e-10
3.27614e-10
4.77497e-10
5.00763e-10
4.41678e-10
4.53036e-10
4.29107e-10
2.20808e-10
2.33869e-10
2.32507e-10
2.02869e-10
2.54598e-10
2.45469e-10
2.44166e-10
1.60377e-10
1.19867e-10
8.06382e-11
8.37345e-11
7.48305e-11
8.39476e-11
9.69839e-11
1.14435e-10
1.09438e-10
1.3124e-10
1.90534e-10
1.95801e-10
1.83244e-10
1.27691e-10
8.01335e-11
7.79018e-11
6.34619e-11
8.26782e-11
9.24132e-11
9.78837e-11
1.17768e-10
1.03668e-10
9.65488e-11
7.20218e-11
5.76796e-11
4.83885e-11
3.62578e-11
4.15931e-11
4.22363e-11
5.19433e-11
7.72793e-08
7.58018e-08
7.46731e-08
1.55589e-08
5.97713e-08
8.0422e-08
8.36428e-08
8.71967e-08
8.98695e-08
1.02407e-07
1.02236e-07
1.05337e-07
7.23111e-08
1.14507e-07
1.20774e-07
1.19326e-07
1.19796e-07
1.03424e-07
1.30025e-07
1.33129e-07
1.30168e-07
1.17967e-07
1.29923e-07
1.32894e-07
1.30563e-07
1.27227e-07
3.66153e-08
1.2191e-07
1.17367e-07
1.13658e-07
1.03462e-07
9.47499e-08
9.34694e-08
9.04695e-08
8.20333e-08
5.91521e-08
6.71033e-08
6.21369e-08
5.984e-08
5.37814e-08
3.47045e-08
4.74626e-08
4.6216e-08
4.43082e-08
4.14785e-08
3.77593e-08
4.27854e-08
4.29904e-08
4.30309e-08
4.29258e-08
3.8719e-08
4.44466e-08
4.71339e-08
4.72285e-08
4.81028e-08
4.05024e-08
5.5907e-08
5.93184e-08
5.91541e-08
6.05027e-08
6.36395e-08
6.72318e-08
6.69118e-08
6.72227e-08
6.94493e-08
7.16319e-08
7.31573e-08
6.84234e-08
7.36046e-08
7.20854e-08
7.02074e-08
6.23826e-08
5.45975e-08
5.20879e-08
3.35216e-08
2.0881e-08
1.8584e-08
9.29265e-09
4.78794e-09
1.65362e-09
2.33571e-09
8.56001e-10
7.16946e-10
7.50054e-10
5.87655e-10
6.38401e-10
6.70103e-10
8.16561e-10
1.26859e-09
1.34047e-09
2.18417e-09
3.44106e-09
3.59679e-09
5.17901e-09
6.95545e-09
7.13927e-09
9.00929e-09
9.00276e-09
9.4905e-09
6.11123e-09
5.37517e-09
8.34309e-10
2.98508e-10
8.52887e-11
3.54902e-10
8.73892e-11
4.98689e-10
1.50529e-10
1.38362e-10
1.66182e-10
9.55895e-11
2.29225e-10
2.76489e-10
5.00647e-10
1.05236e-09
1.76204e-09
1.88914e-09
2.40435e-09
2.67192e-09
2.6156e-09
1.95872e-09
7.78827e-10
2.74445e-10
1.80082e-10
1.60619e-10
1.14225e-10
1.67531e-10
2.12263e-10
3.95791e-11
5.30075e-11
4.39842e-11
5.56832e-11
8.44951e-11
1.062e-10
9.62678e-11
2.45136e-10
2.92556e-10
3.039e-10
8.66348e-08
8.48521e-08
8.30719e-08
1.91796e-08
6.8558e-08
9.90685e-08
9.70047e-08
9.62545e-08
9.87985e-08
1.1394e-07
1.13822e-07
1.17078e-07
7.6908e-08
1.27789e-07
1.35107e-07
1.33357e-07
1.33469e-07
1.12624e-07
1.45474e-07
1.48981e-07
1.45208e-07
1.29513e-07
1.44689e-07
1.48746e-07
1.45795e-07
1.41691e-07
4.24019e-08
1.36744e-07
1.32326e-07
1.27778e-07
1.15954e-07
1.06376e-07
1.05919e-07
1.02299e-07
9.27196e-08
6.49981e-08
7.59271e-08
7.03545e-08
6.75055e-08
6.04063e-08
3.73291e-08
5.31233e-08
5.10666e-08
4.90399e-08
4.47078e-08
4.04941e-08
4.62168e-08
4.67668e-08
4.65067e-08
4.66517e-08
4.12498e-08
4.81874e-08
5.09328e-08
5.11935e-08
5.2188e-08
4.24316e-08
6.01294e-08
6.40699e-08
6.38314e-08
6.42796e-08
6.74585e-08
7.16593e-08
7.14552e-08
7.15466e-08
7.3879e-08
7.90204e-08
7.84441e-08
7.2068e-08
7.92943e-08
7.84082e-08
7.63237e-08
6.83387e-08
6.19907e-08
5.90149e-08
3.88452e-08
2.79889e-08
2.46457e-08
1.25493e-08
5.72788e-09
2.52383e-09
2.2835e-09
1.54594e-09
1.37179e-09
1.22261e-09
1.10355e-09
1.05494e-09
9.85443e-10
1.18375e-09
1.63851e-09
1.68925e-09
2.49082e-09
3.58617e-09
3.76472e-09
5.17352e-09
7.17377e-09
7.30156e-09
9.8744e-09
1.00165e-08
1.01897e-08
7.04158e-09
6.09712e-09
1.08657e-09
2.62619e-10
1.80083e-10
1.67598e-11
5.82462e-12
1.31795e-10
3.71086e-10
3.05059e-10
2.89897e-10
2.12659e-10
3.94207e-10
4.08033e-10
6.99048e-10
1.26717e-09
1.87441e-09
2.00804e-09
2.5247e-09
3.0885e-09
3.01083e-09
2.36383e-09
1.09725e-09
3.26063e-10
2.34904e-10
2.85126e-11
9.13613e-13
2.59427e-12
3.19402e-11
4.16795e-11
9.29108e-11
9.27595e-11
1.39815e-10
1.88533e-10
1.82473e-10
1.69838e-10
3.12919e-10
3.74352e-10
4.10433e-10
9.40181e-08
9.22106e-08
9.05614e-08
2.37088e-08
7.81356e-08
1.05706e-07
1.04678e-07
1.04489e-07
1.06345e-07
1.23911e-07
1.23653e-07
1.27004e-07
8.0287e-08
1.36934e-07
1.4464e-07
1.42737e-07
1.42004e-07
1.16642e-07
1.53626e-07
1.5686e-07
1.53124e-07
1.34719e-07
1.50894e-07
1.55125e-07
1.5236e-07
1.47826e-07
4.48641e-08
1.41661e-07
1.36769e-07
1.32411e-07
1.19647e-07
1.08763e-07
1.09339e-07
1.059e-07
9.61708e-08
6.60683e-08
7.90597e-08
7.37265e-08
7.10389e-08
6.38708e-08
3.83502e-08
5.68272e-08
5.53594e-08
5.31162e-08
4.91044e-08
4.3884e-08
5.10088e-08
5.13564e-08
5.12594e-08
5.10391e-08
4.45503e-08
5.22908e-08
5.57549e-08
5.57957e-08
5.66908e-08
4.52398e-08
6.50687e-08
6.90861e-08
6.88431e-08
6.97116e-08
7.31414e-08
7.77015e-08
7.72762e-08
7.69886e-08
8.02418e-08
8.5289e-08
8.46662e-08
7.74781e-08
8.61045e-08
8.49834e-08
8.28406e-08
7.38021e-08
6.73414e-08
6.45959e-08
4.20924e-08
3.09033e-08
2.81511e-08
1.4971e-08
8.12019e-09
3.3369e-09
3.98937e-09
1.67315e-09
1.38854e-09
1.40956e-09
1.12044e-09
1.1922e-09
1.22596e-09
1.42814e-09
2.04629e-09
2.1181e-09
3.08847e-09
4.40079e-09
4.53879e-09
6.38228e-09
8.49428e-09
8.68826e-09
1.13041e-08
1.13159e-08
1.20989e-08
8.46562e-09
7.54732e-09
1.44067e-09
6.87099e-10
3.48904e-10
4.09342e-10
1.63019e-10
6.05992e-10
2.78866e-10
2.77036e-10
3.19132e-10
1.9125e-10
4.5418e-10
5.23544e-10
8.51503e-10
1.52565e-09
2.28741e-09
2.38524e-09
2.98301e-09
3.46264e-09
3.41672e-09
2.69182e-09
1.32149e-09
5.08008e-10
3.70472e-10
2.00508e-10
1.2122e-10
1.67307e-10
2.39331e-10
8.11889e-11
1.03404e-10
9.80662e-11
1.14138e-10
1.87817e-10
2.20772e-10
1.82109e-10
4.25784e-10
4.68554e-10
5.32323e-10
1.09534e-07
1.07283e-07
1.04587e-07
2.60951e-08
8.56324e-08
1.2424e-07
1.21963e-07
1.19661e-07
1.20917e-07
1.43292e-07
1.4327e-07
1.46786e-07
8.84572e-08
1.59066e-07
1.68602e-07
1.66264e-07
1.64719e-07
1.31405e-07
1.79451e-07
1.83499e-07
1.78457e-07
1.54006e-07
1.7551e-07
1.81795e-07
1.78153e-07
1.72279e-07
5.15869e-08
1.66347e-07
1.61515e-07
1.5586e-07
1.40075e-07
1.27209e-07
1.29515e-07
1.25196e-07
1.13523e-07
7.53466e-08
9.31728e-08
8.69642e-08
8.345e-08
7.45705e-08
4.25514e-08
6.60493e-08
6.35792e-08
6.10252e-08
5.49076e-08
4.85237e-08
5.72281e-08
5.79602e-08
5.75737e-08
5.7547e-08
4.89574e-08
5.86485e-08
6.24888e-08
6.27774e-08
6.37698e-08
4.88474e-08
7.25963e-08
7.74871e-08
7.71296e-08
7.67377e-08
8.03919e-08
8.59513e-08
8.56687e-08
8.50512e-08
8.84105e-08
9.48876e-08
9.41703e-08
8.42299e-08
9.60743e-08
9.57525e-08
9.32428e-08
8.34337e-08
7.89643e-08
7.55752e-08
5.00464e-08
3.9671e-08
3.53094e-08
1.88871e-08
9.24255e-09
4.32794e-09
3.8358e-09
2.44937e-09
2.07603e-09
1.85575e-09
1.66134e-09
1.58696e-09
1.49168e-09
1.72958e-09
2.30746e-09
2.37115e-09
3.33853e-09
4.66638e-09
4.87112e-09
6.56452e-09
8.98597e-09
9.13144e-09
1.25276e-08
1.27717e-08
1.33983e-08
1.02532e-08
9.04452e-09
1.88405e-09
7.50122e-10
5.54717e-10
9.20548e-11
3.33362e-11
2.10186e-10
4.88176e-10
4.37205e-10
4.35475e-10
3.17118e-10
6.06726e-10
6.27037e-10
9.98266e-10
1.70065e-09
2.44048e-09
2.59863e-09
3.19006e-09
4.01474e-09
3.945e-09
3.28932e-09
1.74656e-09
6.09385e-10
4.56924e-10
9.17392e-11
5.25883e-11
3.14718e-11
6.05536e-11
7.93845e-11
1.44551e-10
1.90363e-10
2.21966e-10
2.97058e-10
2.92637e-10
2.44272e-10
4.80851e-10
5.54441e-10
6.17712e-10
1.15335e-07
1.13086e-07
1.10518e-07
2.70758e-08
9.85044e-08
1.29286e-07
1.27786e-07
1.25601e-07
1.25705e-07
1.50892e-07
1.50672e-07
1.54147e-07
8.95326e-08
1.65049e-07
1.75048e-07
1.72552e-07
1.69901e-07
1.31746e-07
1.84036e-07
1.87828e-07
1.82879e-07
1.555e-07
1.77904e-07
1.84582e-07
1.81246e-07
1.74955e-07
5.05488e-08
1.67877e-07
1.62748e-07
1.57417e-07
1.4071e-07
1.26502e-07
1.30326e-07
1.26326e-07
1.14669e-07
7.4424e-08
9.43229e-08
8.8595e-08
8.53419e-08
7.65171e-08
4.24074e-08
6.84849e-08
6.67854e-08
6.40311e-08
5.82742e-08
5.07332e-08
6.11097e-08
6.1651e-08
6.14515e-08
6.09821e-08
5.12088e-08
6.16945e-08
6.64039e-08
6.64299e-08
6.72815e-08
5.06094e-08
7.63812e-08
8.13087e-08
8.09485e-08
8.09653e-08
8.4772e-08
9.07394e-08
9.01698e-08
8.89676e-08
9.32896e-08
9.94666e-08
9.86511e-08
8.76648e-08
1.00869e-07
1.00256e-07
9.76908e-08
8.66277e-08
8.22566e-08
7.91997e-08
5.13425e-08
4.11641e-08
3.77519e-08
2.02886e-08
1.11028e-08
4.85948e-09
5.4364e-09
2.30765e-09
1.87095e-09
1.87414e-09
1.51107e-09
1.6206e-09
1.66009e-09
1.91033e-09
2.67886e-09
2.75762e-09
3.895e-09
5.43911e-09
5.57562e-09
7.74133e-09
1.01736e-08
1.03648e-08
1.37628e-08
1.38051e-08
1.49754e-08
1.1314e-08
1.02093e-08
2.04448e-09
1.14463e-09
7.17626e-10
4.69149e-10
1.97446e-10
6.11949e-10
3.22922e-10
3.56132e-10
4.15361e-10
2.53982e-10
6.42073e-10
7.27861e-10
1.1376e-09
1.94589e-09
2.84211e-09
2.93815e-09
3.5993e-09
4.31837e-09
4.27543e-09
3.51302e-09
1.88939e-09
7.62956e-10
5.82268e-10
2.40521e-10
1.15902e-10
1.29007e-10
2.39038e-10
9.98012e-11
1.2966e-10
1.30925e-10
1.67597e-10
2.77059e-10
3.19027e-10
2.43687e-10
5.87667e-10
6.33156e-10
7.2767e-10
1.34913e-07
1.3221e-07
1.2801e-07
2.58616e-08
1.04319e-07
1.5204e-07
1.49267e-07
1.4385e-07
1.42319e-07
1.74915e-07
1.75164e-07
1.78495e-07
9.83621e-08
1.91779e-07
2.04567e-07
2.01492e-07
1.97209e-07
1.47405e-07
2.15558e-07
2.20545e-07
2.13852e-07
1.77584e-07
2.0719e-07
2.17294e-07
2.12944e-07
2.04733e-07
5.42783e-08
1.98119e-07
1.93369e-07
1.86434e-07
1.65377e-07
1.48056e-07
1.55462e-07
1.50492e-07
1.36406e-07
8.51107e-08
1.11968e-07
1.05452e-07
1.0119e-07
9.00846e-08
4.71458e-08
8.02966e-08
7.74648e-08
7.42641e-08
6.56543e-08
5.61566e-08
6.91707e-08
7.02223e-08
6.97154e-08
6.93531e-08
5.64223e-08
6.95121e-08
7.50291e-08
7.5403e-08
7.62743e-08
5.47342e-08
8.57498e-08
9.18537e-08
9.13492e-08
8.94879e-08
9.35039e-08
1.00957e-07
1.00578e-07
9.87119e-08
1.03059e-07
1.11325e-07
1.10276e-07
9.52444e-08
1.13043e-07
1.13519e-07
1.10456e-07
9.80137e-08
9.69598e-08
9.31628e-08
6.10647e-08
5.32215e-08
4.78364e-08
2.71595e-08
1.38235e-08
6.73736e-09
5.91924e-09
3.62629e-09
2.90352e-09
2.58939e-09
2.34162e-09
2.234e-09
2.10551e-09
2.36265e-09
3.06923e-09
3.14118e-09
4.24988e-09
5.81138e-09
6.03746e-09
7.99209e-09
1.08283e-08
1.09748e-08
1.51368e-08
1.55212e-08
1.67034e-08
1.39464e-08
1.25072e-08
2.83934e-09
1.36472e-09
1.12238e-09
2.36924e-10
7.1074e-11
2.73686e-10
6.05163e-10
5.82935e-10
5.95616e-10
4.25647e-10
8.61516e-10
8.88244e-10
1.33693e-09
2.17367e-09
3.04634e-09
3.23057e-09
3.85203e-09
4.98817e-09
4.93844e-09
4.3333e-09
2.58394e-09
1.01717e-09
7.83235e-10
1.74592e-10
1.03216e-10
8.32625e-11
9.37085e-11
1.24325e-10
2.01697e-10
2.69231e-10
3.18993e-10
4.30652e-10
4.28835e-10
3.21211e-10
6.8767e-10
7.74234e-10
8.61022e-10
1.48937e-07
1.45987e-07
1.41645e-07
2.36933e-08
1.2077e-07
1.66658e-07
1.64208e-07
1.58166e-07
1.55014e-07
1.93786e-07
1.93702e-07
1.97273e-07
1.04667e-07
2.09969e-07
2.2451e-07
2.20917e-07
2.14882e-07
1.56081e-07
2.34245e-07
2.39485e-07
2.32209e-07
1.89607e-07
2.2247e-07
2.34197e-07
2.29788e-07
2.20405e-07
5.08946e-08
2.11919e-07
2.06467e-07
1.99219e-07
1.75321e-07
1.54963e-07
1.64857e-07
1.59821e-07
1.44599e-07
8.78658e-08
1.1829e-07
1.11949e-07
1.07695e-07
9.58861e-08
4.87161e-08
8.61068e-08
8.39971e-08
8.0341e-08
7.15522e-08
6.02435e-08
7.5947e-08
7.68973e-08
7.6486e-08
7.55834e-08
6.06855e-08
7.52519e-08
8.21911e-08
8.22275e-08
8.29992e-08
5.8522e-08
9.32709e-08
9.98273e-08
9.92304e-08
9.77285e-08
1.02082e-07
1.1053e-07
1.09732e-07
1.06957e-07
1.12548e-07
1.14055e-07
1.19627e-07
1.02471e-07
1.227e-07
1.22828e-07
1.19436e-07
1.04627e-07
1.03627e-07
9.99723e-08
6.35061e-08
5.56108e-08
5.12438e-08
2.81225e-08
1.54901e-08
7.15079e-09
7.5693e-09
3.26755e-09
2.5453e-09
2.51511e-09
2.05489e-09
2.2046e-09
2.24657e-09
2.53083e-09
3.47992e-09
3.56168e-09
4.88508e-09
6.72491e-09
6.85204e-09
9.39975e-09
1.22731e-08
1.24455e-08
1.67471e-08
1.68588e-08
1.85676e-08
1.50903e-08
1.37434e-08
2.82022e-09
1.81359e-09
1.28998e-09
5.9386e-10
2.34215e-10
6.14175e-10
3.78144e-10
4.56528e-10
5.38456e-10
3.29605e-10
8.88401e-10
9.91319e-10
1.49037e-09
2.45489e-09
3.5117e-09
3.61034e-09
4.31833e-09
5.36101e-09
5.32058e-09
4.54331e-09
2.66946e-09
1.14627e-09
9.07282e-10
3.18658e-10
1.35393e-10
1.03588e-10
2.51318e-10
1.26471e-10
1.6617e-10
1.76382e-10
2.39645e-10
3.96245e-10
4.48295e-10
3.13838e-10
8.00009e-10
8.50427e-10
9.74145e-10
1.69448e-10
1.62375e-10
1.55079e-10
2.19844e-09
1.24599e-07
1.88953e-10
1.7844e-10
1.6448e-10
2.13369e-10
2.17558e-10
2.05557e-10
2.07798e-10
8.04969e-11
2.2212e-10
2.22396e-10
2.1455e-10
2.00216e-10
1.96682e-10
2.14584e-10
2.10449e-10
2.08491e-10
1.28289e-10
2.06725e-10
1.93021e-10
1.91829e-10
1.81605e-10
4.29598e-10
1.72045e-10
1.57814e-10
1.58293e-10
1.32721e-10
1.46937e-10
1.33049e-10
1.32527e-10
1.236e-10
4.20558e-11
1.18373e-10
1.13001e-10
1.14943e-10
1.07384e-10
6.48767e-11
1.10887e-10
1.1174e-10
1.12148e-10
1.01786e-10
1.19275e-10
1.16689e-10
1.16193e-10
1.14961e-10
1.15686e-10
7.69706e-11
1.23505e-10
1.19936e-10
1.17559e-10
1.1807e-10
5.4092e-11
1.32663e-10
1.31612e-10
1.29805e-10
1.32528e-10
1.44548e-10
1.4703e-10
1.45543e-10
1.46334e-10
1.60238e-10
1.2796e-07
1.69816e-10
1.49848e-10
1.92021e-10
1.92895e-10
1.91529e-10
1.91192e-10
1.74811e-10
1.83466e-10
1.08461e-10
1.11373e-10
1.42637e-10
7.506e-11
6.0165e-11
5.9524e-11
9.80987e-11
5.29288e-11
4.09348e-11
6.0564e-11
2.34857e-11
2.18942e-11
2.86751e-11
2.10833e-11
2.38952e-11
2.25838e-11
2.64599e-11
2.958e-11
2.52241e-11
3.46172e-11
3.89026e-11
3.38233e-11
4.52088e-11
3.8778e-11
5.05663e-11
3.6939e-11
4.01986e-11
1.04447e-11
2.95795e-11