/*--------------------------------*- C++ -*----------------------------------*\
| =========                 |                                                 |
| \\      /  F ield         | OpenFOAM: The Open Source CFD Toolbox           |
|  \\    /   O peration     | Version:  v2012                                 |
|   \\  /    A nd           | Website:  www.openfoam.com                      |
|    \\/     M anipulation  |                                                 |
\*---------------------------------------------------------------------------*/
FoamFile
{
    version     2.0;
    format      ascii;
    class       volScalarField;
    location    "1e-06";
    object      nut;
}
// * * * * * * * * * * * * * * * * * * * * * * * * * * * * * * * * * * * * * //

dimensions      [0 2 -1 0 0 0 0];


internalField   nonuniform List<scalar> 
10178
(
2.46067e-06
2.38791e-06
2.7729e-06
2.48574e-06
3.16792e-06
3.1156e-06
3.28194e-06
3.79855e-06
4.11983e-06
4.02799e-06
3.87708e-06
4.34387e-06
4.83603e-06
4.84363e-06
4.64354e-06
4.70347e-06
5.1697e-06
5.5317e-06
5.20634e-06
4.91383e-06
5.27312e-06
5.77511e-06
5.71849e-06
5.3263e-06
5.20737e-06
5.65729e-06
5.56068e-06
5.5656e-06
5.04307e-06
5.22218e-06
5.61263e-06
5.61714e-06
5.01059e-06
4.62827e-06
4.92281e-06
5.21643e-06
4.89053e-06
4.42368e-06
4.39389e-06
4.74285e-06
5.08565e-06
4.72734e-06
4.4558e-06
4.71462e-06
5.16254e-06
5.3997e-06
5.21884e-06
5.04545e-06
5.03457e-06
5.48876e-06
6.02828e-06
6.12239e-06
5.85452e-06
5.62118e-06
6.20655e-06
6.92214e-06
7.20934e-06
7.01525e-06
7.2091e-06
8.13196e-06
8.57057e-06
8.12349e-06
8.18229e-06
9.33242e-06
9.5805e-06
9.41935e-06
9.75034e-06
1.09896e-05
1.05883e-05
1.02124e-05
1.09968e-05
1.13778e-05
9.79317e-06
9.61933e-06
9.36483e-06
8.45307e-06
8.1273e-06
8.28052e-06
7.8112e-06
7.04802e-06
7.27863e-06
6.6807e-06
5.67257e-06
5.7064e-06
5.18282e-06
4.51168e-06
4.58712e-06
4.40803e-06
3.93998e-06
4.06298e-06
4.12191e-06
3.93814e-06
4.2379e-06
4.67927e-06
4.63476e-06
5.20903e-06
5.48278e-06
5.2355e-06
5.83743e-06
6.30068e-06
6.4334e-06
8.13546e-06
8.45294e-06
8.63101e-06
8.98804e-06
7.75764e-06
7.83379e-06
6.52114e-06
5.40519e-06
5.35044e-06
5.04231e-06
4.33706e-06
4.1658e-06
4.0243e-06
3.74877e-06
3.53822e-06
3.77212e-06
4.14194e-06
4.03288e-06
4.09243e-06
4.69369e-06
5.59916e-06
6.27692e-06
6.85866e-06
7.86748e-06
7.74843e-06
7.79364e-06
7.98111e-06
7.0316e-06
6.58768e-06
6.12365e-06
5.58264e-06
4.74798e-06
4.68306e-06
4.46968e-06
3.97562e-06
3.86796e-06
4.25156e-06
4.71389e-06
4.78522e-06
4.83829e-06
4.5751e-06
3.19521e-06
5.75924e-06
5.73544e-06
5.8897e-06
6.23814e-06
6.63984e-06
6.78264e-06
6.8856e-06
6.8788e-06
7.43586e-06
7.79802e-06
7.80807e-06
7.88036e-06
8.11637e-06
8.44385e-06
8.83946e-06
8.68491e-06
8.64823e-06
8.96248e-06
9.29562e-06
9.36407e-06
9.27188e-06
8.81575e-06
9.38307e-06
9.50097e-06
9.35011e-06
9.02391e-06
8.94483e-06
9.05269e-06
9.17155e-06
8.7232e-06
8.09203e-06
8.20005e-06
8.21839e-06
8.17543e-06
7.81007e-06
7.70956e-06
7.84942e-06
8.09631e-06
7.97237e-06
7.861e-06
8.08733e-06
8.37682e-06
8.68707e-06
8.73492e-06
8.81169e-06
8.87093e-06
9.32765e-06
9.74421e-06
9.91444e-06
9.99686e-06
9.99843e-06
1.11674e-05
1.18382e-05
1.18522e-05
1.20819e-05
1.26305e-05
1.31242e-05
1.31977e-05
1.3542e-05
1.3807e-05
1.45316e-05
1.45301e-05
1.48157e-05
1.46938e-05
1.52644e-05
1.50803e-05
1.49148e-05
1.36668e-05
1.3439e-05
1.17776e-05
1.10001e-05
1.10164e-05
1.02558e-05
9.70732e-06
9.34413e-06
9.06154e-06
8.26186e-06
7.58994e-06
7.31845e-06
6.49641e-06
6.18235e-06
6.01391e-06
5.61944e-06
5.60617e-06
5.47941e-06
5.49918e-06
6.03229e-06
5.94983e-06
6.59758e-06
7.47757e-06
7.39175e-06
7.82612e-06
7.89858e-06
7.38484e-06
7.92184e-06
8.13505e-06
9.56931e-06
1.06366e-05
1.0664e-05
1.06254e-05
9.91953e-06
9.62171e-06
8.0302e-06
7.1461e-06
6.89577e-06
6.11219e-06
5.70911e-06
5.68183e-06
5.17497e-06
5.11527e-06
5.53901e-06
5.4734e-06
5.72916e-06
6.04313e-06
6.06528e-06
5.9339e-06
7.21852e-06
8.49018e-06
8.53129e-06
9.39562e-06
9.81899e-06
9.80741e-06
9.43515e-06
8.74369e-06
8.69095e-06
7.59519e-06
6.85751e-06
6.25566e-06
6.10031e-06
5.42572e-06
5.34569e-06
5.42215e-06
5.38907e-06
1.14769e-05
1.15554e-05
1.15777e-05
9.90899e-06
5.37415e-06
1.28791e-05
1.28487e-05
1.30397e-05
1.35803e-05
1.417e-05
1.4371e-05
1.45843e-05
1.44805e-05
1.55887e-05
1.62547e-05
1.62968e-05
1.65735e-05
1.7091e-05
1.78107e-05
1.85342e-05
1.83799e-05
1.85034e-05
1.92225e-05
1.98365e-05
1.99438e-05
2.00229e-05
1.85031e-05
2.04874e-05
2.06264e-05
2.04434e-05
2.00443e-05
2.003e-05
2.01544e-05
2.02349e-05
1.95363e-05
1.83545e-05
1.84163e-05
1.81484e-05
1.8038e-05
1.73198e-05
1.68674e-05
1.69693e-05
1.71811e-05
1.70149e-05
1.67904e-05
1.71462e-05
1.75707e-05
1.80684e-05
1.81433e-05
1.83486e-05
1.8532e-05
1.93289e-05
2.00392e-05
2.02603e-05
2.05265e-05
1.02007e-05
2.25321e-05
2.3412e-05
2.34544e-05
2.39004e-05
2.46227e-05
2.52669e-05
2.53614e-05
2.57822e-05
2.5934e-05
2.6563e-05
2.63926e-05
2.65433e-05
2.59477e-05
2.64171e-05
2.6172e-05
2.55097e-05
2.32785e-05
2.28571e-05
1.99001e-05
1.80008e-05
1.78562e-05
1.62679e-05
1.51361e-05
1.44264e-05
1.40782e-05
1.30677e-05
1.21815e-05
1.18651e-05
1.07997e-05
1.03644e-05
1.01658e-05
9.77006e-06
9.97047e-06
9.86182e-06
1.03195e-05
1.14778e-05
1.1473e-05
1.28974e-05
1.43909e-05
1.43856e-05
1.48985e-05
1.48002e-05
1.32511e-05
1.33246e-05
1.35303e-05
1.45716e-05
1.56476e-05
1.56632e-05
1.55469e-05
1.47561e-05
1.44565e-05
1.262e-05
1.13911e-05
1.10703e-05
9.96599e-06
9.55512e-06
9.54645e-06
9.20888e-06
9.73324e-06
1.08532e-05
1.08898e-05
1.16732e-05
1.18291e-05
1.17439e-05
1.06859e-05
1.19445e-05
1.31407e-05
1.3175e-05
1.41077e-05
1.45648e-05
1.4556e-05
1.4169e-05
1.33351e-05
1.3223e-05
1.18871e-05
1.08814e-05
1.01421e-05
9.95853e-06
9.10942e-06
9.49352e-06
9.58101e-06
9.49641e-06
1.16179e-05
1.16904e-05
1.17227e-05
1.29474e-05
1.24467e-05
1.30275e-05
1.29953e-05
1.32173e-05
1.38039e-05
1.43345e-05
1.45315e-05
1.4755e-05
1.50572e-05
1.57868e-05
1.64492e-05
1.64895e-05
1.67911e-05
1.75173e-05
1.80391e-05
1.87695e-05
1.86146e-05
1.88445e-05
1.9504e-05
2.01001e-05
2.02032e-05
2.02971e-05
2.19474e-05
2.07697e-05
2.08986e-05
2.07104e-05
2.03377e-05
2.0363e-05
2.04128e-05
2.04846e-05
1.97766e-05
1.88198e-05
1.86402e-05
1.83461e-05
1.82291e-05
1.75071e-05
1.74669e-05
1.71365e-05
1.73421e-05
1.71719e-05
1.69768e-05
1.74132e-05
1.77381e-05
1.82326e-05
1.83048e-05
1.8519e-05
1.88264e-05
1.95405e-05
2.0228e-05
2.04468e-05
2.07229e-05
2.10352e-05
2.27694e-05
2.36445e-05
2.36858e-05
2.4166e-05
2.49008e-05
2.55207e-05
2.56134e-05
2.60621e-05
2.62073e-05
4.2565e-05
2.66413e-05
2.68909e-05
2.6179e-05
2.66408e-05
2.63953e-05
2.57618e-05
2.34447e-05
2.30156e-05
2.01186e-05
1.80898e-05
1.79395e-05
1.63397e-05
1.51904e-05
1.44694e-05
1.41245e-05
1.311e-05
1.22167e-05
1.18996e-05
1.08353e-05
1.03931e-05
1.01942e-05
9.80365e-06
1.00015e-05
9.89339e-06
1.03601e-05
1.15233e-05
1.15207e-05
1.29586e-05
1.44622e-05
1.4459e-05
1.4974e-05
1.48717e-05
1.33117e-05
1.33714e-05
1.3575e-05
1.48523e-05
1.56877e-05
1.57015e-05
1.55902e-05
1.47891e-05
1.44932e-05
1.26516e-05
1.14165e-05
1.10955e-05
1.01102e-05
9.57779e-06
9.56858e-06
9.23441e-06
9.76404e-06
1.08913e-05
1.09299e-05
1.17441e-05
1.18743e-05
1.17872e-05
1.07249e-05
1.19762e-05
1.31703e-05
1.32044e-05
1.41456e-05
1.45948e-05
1.45868e-05
1.42193e-05
1.33621e-05
1.32514e-05
1.19102e-05
1.09063e-05
1.01624e-05
9.97868e-06
9.26856e-06
9.51541e-06
9.60411e-06
9.51993e-06
2.16295e-05
2.16883e-05
2.17283e-05
2.22624e-05
2.27118e-05
2.35368e-05
2.35151e-05
2.38699e-05
2.47632e-05
2.55402e-05
2.579e-05
2.62359e-05
2.64959e-05
2.79177e-05
2.89277e-05
2.90115e-05
2.95941e-05
3.06778e-05
3.1586e-05
3.26245e-05
3.24975e-05
3.29035e-05
3.39904e-05
3.48273e-05
3.49569e-05
3.52339e-05
3.56839e-05
3.60101e-05
3.61293e-05
3.59177e-05
3.54886e-05
3.55567e-05
3.54175e-05
3.54064e-05
3.43859e-05
3.28839e-05
3.25837e-05
3.19471e-05
3.17501e-05
3.06854e-05
3.03081e-05
2.99098e-05
3.00478e-05
2.9847e-05
2.9564e-05
3.01499e-05
3.06002e-05
3.12701e-05
3.13662e-05
3.17453e-05
3.2188e-05
3.32867e-05
3.42544e-05
3.45088e-05
3.50074e-05
3.55136e-05
3.80022e-05
3.91075e-05
3.91851e-05
3.99165e-05
4.08814e-05
4.16316e-05
4.17465e-05
4.23562e-05
4.24287e-05
4.30291e-05
4.27671e-05
4.29077e-05
4.1819e-05
4.20877e-05
4.17675e-05
4.049e-05
3.69856e-05
3.63264e-05
3.17444e-05
2.80522e-05
2.76567e-05
2.27512e-05
1.94713e-05
1.78152e-05
1.74212e-05
1.60897e-05
1.5247e-05
1.50161e-05
1.42964e-05
1.42474e-05
1.41435e-05
1.46495e-05
1.63052e-05
1.62499e-05
1.74875e-05
1.95676e-05
1.96931e-05
2.21825e-05
2.44667e-05
2.45932e-05
2.52567e-05
2.5035e-05
2.2601e-05
2.16276e-05
2.16759e-05
1.99986e-05
1.82743e-05
1.81407e-05
1.74088e-05
1.64245e-05
1.62301e-05
1.48464e-05
1.39218e-05
1.36977e-05
1.30933e-05
1.31848e-05
1.3424e-05
1.51268e-05
1.67324e-05
1.88995e-05
1.9107e-05
2.06705e-05
2.05165e-05
2.03004e-05
1.81213e-05
1.8483e-05
1.73018e-05
1.692e-05
1.65068e-05
1.64268e-05
1.63974e-05
1.59888e-05
1.50216e-05
1.49183e-05
1.3896e-05
1.31522e-05
1.29828e-05
1.2923e-05
1.31159e-05
1.55149e-05
1.56299e-05
1.55005e-05
3.46807e-05
3.47253e-05
3.4813e-05
3.26677e-05
2.30086e-05
3.73661e-05
3.7373e-05
3.79383e-05
3.92273e-05
4.03965e-05
4.07089e-05
4.14663e-05
4.1407e-05
4.39521e-05
4.53553e-05
4.54888e-05
4.6374e-05
4.76745e-05
4.91562e-05
5.04954e-05
5.03985e-05
5.08824e-05
5.24788e-05
5.35602e-05
5.37119e-05
5.41497e-05
5.20233e-05
5.51855e-05
5.52861e-05
5.50459e-05
5.45038e-05
5.45165e-05
5.4133e-05
5.40252e-05
5.26348e-05
5.03673e-05
5.00862e-05
4.90957e-05
4.8812e-05
4.73878e-05
4.63338e-05
4.62163e-05
4.628e-05
4.60471e-05
4.56506e-05
4.63333e-05
4.70047e-05
4.7854e-05
4.79725e-05
4.85292e-05
4.90017e-05
5.06049e-05
5.18779e-05
5.2167e-05
5.29007e-05
5.33172e-05
5.69462e-05
5.8344e-05
5.84631e-05
5.94427e-05
6.07057e-05
6.16242e-05
6.17668e-05
6.25905e-05
6.26677e-05
6.31635e-05
6.31127e-05
6.31159e-05
6.19637e-05
6.20568e-05
6.16673e-05
5.96688e-05
5.5006e-05
5.40997e-05
4.75322e-05
4.17711e-05
4.10133e-05
3.5911e-05
3.21153e-05
2.98916e-05
2.91789e-05
2.73828e-05
2.6077e-05
2.56425e-05
2.4153e-05
2.37117e-05
2.34738e-05
2.357e-05
2.49296e-05
2.49738e-05
2.72878e-05
3.05042e-05
3.08044e-05
3.45305e-05
3.77382e-05
3.80355e-05
3.90284e-05
3.87613e-05
3.58498e-05
3.3324e-05
3.30513e-05
3.00663e-05
2.97392e-05
2.95731e-05
2.88085e-05
2.8069e-05
2.77613e-05
2.57614e-05
2.39894e-05
2.35315e-05
2.19378e-05
2.21064e-05
2.22757e-05
2.33069e-05
2.64287e-05
2.98774e-05
3.03072e-05
3.27409e-05
3.23257e-05
3.19788e-05
2.86355e-05
2.72741e-05
2.70755e-05
2.68254e-05
2.72089e-05
2.76189e-05
2.76002e-05
2.71817e-05
2.62312e-05
2.6053e-05
2.4309e-05
2.29032e-05
2.23485e-05
2.21741e-05
2.13166e-05
2.37363e-05
2.39056e-05
2.38728e-05
3.51732e-05
3.52031e-05
3.53149e-05
3.73347e-05
3.67562e-05
3.78859e-05
3.78906e-05
3.85501e-05
3.99697e-05
4.09788e-05
4.12805e-05
4.20724e-05
4.30606e-05
4.46384e-05
4.6029e-05
4.61588e-05
4.71132e-05
4.89511e-05
4.99162e-05
5.12645e-05
5.117e-05
5.19232e-05
5.33606e-05
5.43861e-05
5.45267e-05
5.49993e-05
5.78848e-05
5.60416e-05
5.61112e-05
5.58606e-05
5.53844e-05
5.54839e-05
5.48995e-05
5.47678e-05
5.33517e-05
5.16239e-05
5.07576e-05
4.96979e-05
4.93986e-05
4.79679e-05
4.78875e-05
4.67417e-05
4.67834e-05
4.65441e-05
4.62228e-05
4.71044e-05
4.75203e-05
4.83573e-05
4.84706e-05
4.90488e-05
4.98266e-05
5.12233e-05
5.24347e-05
5.27163e-05
5.34745e-05
5.44704e-05
5.76112e-05
5.89969e-05
5.91152e-05
6.01761e-05
6.14672e-05
6.23229e-05
6.24619e-05
6.33546e-05
6.342e-05
6.38736e-05
6.38171e-05
6.40658e-05
6.26485e-05
6.27172e-05
6.23289e-05
6.04047e-05
5.55284e-05
5.46034e-05
4.82136e-05
4.20684e-05
4.12903e-05
3.61284e-05
3.22699e-05
3.00079e-05
2.92973e-05
2.74917e-05
2.61691e-05
2.57339e-05
2.42512e-05
2.37949e-05
2.35574e-05
2.36737e-05
2.50331e-05
2.50801e-05
2.74301e-05
3.06642e-05
3.09716e-05
3.47404e-05
3.79742e-05
3.8282e-05
3.92848e-05
3.90104e-05
3.60945e-05
3.35028e-05
3.32194e-05
3.07895e-05
2.98251e-05
2.96527e-05
2.88972e-05
2.81405e-05
2.78392e-05
2.58361e-05
2.40543e-05
2.35938e-05
2.23102e-05
2.21712e-05
2.23409e-05
2.33947e-05
2.65419e-05
3.00172e-05
3.0454e-05
3.29809e-05
3.24891e-05
3.21376e-05
2.87854e-05
2.73714e-05
2.71523e-05
2.6899e-05
2.72911e-05
2.76828e-05
2.76643e-05
2.72913e-05
2.62921e-05
2.61143e-05
2.43653e-05
2.29657e-05
2.24028e-05
2.22288e-05
2.17596e-05
2.38098e-05
2.39812e-05
2.39531e-05
5.13929e-05
5.14142e-05
5.16364e-05
5.202e-05
5.40054e-05
5.52447e-05
5.52923e-05
5.62514e-05
5.8188e-05
5.97076e-05
6.00832e-05
6.12673e-05
6.17458e-05
6.47847e-05
6.66059e-05
6.67888e-05
6.80611e-05
7.00709e-05
7.17056e-05
7.33581e-05
7.32907e-05
7.40523e-05
7.6081e-05
7.73556e-05
7.75152e-05
7.81311e-05
7.80142e-05
7.94113e-05
7.94532e-05
7.91658e-05
7.85169e-05
7.84774e-05
7.75934e-05
7.73562e-05
7.55219e-05
7.28348e-05
7.20996e-05
7.06633e-05
7.02703e-05
6.84507e-05
6.75148e-05
6.68191e-05
6.67742e-05
6.64964e-05
6.60302e-05
6.69968e-05
6.76807e-05
6.87007e-05
6.88331e-05
6.95955e-05
7.03219e-05
7.23323e-05
7.38684e-05
7.41847e-05
7.51881e-05
7.5943e-05
8.04977e-05
8.22451e-05
8.24102e-05
8.37284e-05
8.53996e-05
8.647e-05
8.66439e-05
8.7806e-05
8.79842e-05
8.92572e-05
8.86866e-05
8.88224e-05
8.76317e-05
8.75857e-05
8.71358e-05
8.45229e-05
7.8574e-05
7.73992e-05
6.8851e-05
6.02854e-05
5.90255e-05
5.10842e-05
4.48683e-05
4.11717e-05
4.01283e-05
3.75626e-05
3.59851e-05
3.54829e-05
3.38635e-05
3.35868e-05
3.336e-05
3.40329e-05
3.63381e-05
3.6527e-05
4.02105e-05
4.47603e-05
4.5276e-05
5.04528e-05
5.47994e-05
5.53128e-05
5.69738e-05
5.67355e-05
5.37889e-05
4.92393e-05
4.84836e-05
4.20571e-05
3.94722e-05
3.90854e-05
3.7585e-05
3.68807e-05
3.65715e-05
3.46804e-05
3.28142e-05
3.23198e-05
3.08517e-05
3.15998e-05
3.19385e-05
3.4247e-05
3.92712e-05
4.42321e-05
4.4932e-05
4.84912e-05
4.79058e-05
4.74368e-05
4.29186e-05
3.90251e-05
3.71792e-05
3.66107e-05
3.61274e-05
3.63214e-05
3.62786e-05
3.5832e-05
3.49092e-05
3.47236e-05
3.29154e-05
3.1515e-05
3.13932e-05
3.12836e-05
3.08721e-05
3.46348e-05
3.49127e-05
3.52859e-05
5.21406e-05
5.21408e-05
5.2402e-05
5.70098e-05
5.4812e-05
5.60203e-05
5.60811e-05
5.72001e-05
5.93312e-05
6.06047e-05
6.09631e-05
6.22022e-05
6.43117e-05
6.58372e-05
6.76327e-05
6.78106e-05
6.91898e-05
7.19865e-05
7.28495e-05
7.45073e-05
7.44463e-05
7.56295e-05
7.73937e-05
7.85759e-05
7.87182e-05
7.93852e-05
8.55115e-05
8.06663e-05
8.06593e-05
8.03586e-05
7.98142e-05
7.98938e-05
7.87065e-05
7.84336e-05
7.65663e-05
7.47268e-05
7.30828e-05
7.1545e-05
7.11303e-05
6.93078e-05
6.97601e-05
6.75955e-05
6.75161e-05
6.72307e-05
6.68848e-05
6.8138e-05
6.84389e-05
6.94368e-05
6.95614e-05
7.0356e-05
7.15568e-05
7.3234e-05
7.46717e-05
7.4976e-05
7.6015e-05
7.76664e-05
8.14488e-05
8.31745e-05
8.33394e-05
8.47784e-05
8.64879e-05
8.74617e-05
8.76302e-05
8.88969e-05
8.90611e-05
0.000119805
8.96996e-05
9.02209e-05
8.86361e-05
8.85555e-05
8.8111e-05
8.56266e-05
7.93697e-05
7.817e-05
6.99443e-05
6.0752e-05
5.94556e-05
5.14167e-05
4.50944e-05
4.13364e-05
4.02947e-05
3.77136e-05
3.61109e-05
3.56088e-05
3.40038e-05
3.37051e-05
3.34799e-05
3.4188e-05
3.64916e-05
3.66864e-05
4.04293e-05
4.50077e-05
4.55355e-05
5.07742e-05
5.51562e-05
5.56874e-05
5.73701e-05
5.71231e-05
5.41913e-05
4.95346e-05
4.87605e-05
4.32215e-05
3.95868e-05
3.9191e-05
3.76987e-05
3.69702e-05
3.66692e-05
3.4777e-05
3.29006e-05
3.24044e-05
3.14112e-05
3.16936e-05
3.20339e-05
3.43805e-05
3.9446e-05
4.44506e-05
4.51618e-05
4.88665e-05
4.81647e-05
4.76901e-05
4.31663e-05
3.9173e-05
3.72901e-05
3.67136e-05
3.62373e-05
3.64019e-05
3.63592e-05
3.59815e-05
3.49875e-05
3.48006e-05
3.29904e-05
3.16011e-05
3.14702e-05
3.13616e-05
3.15962e-05
3.47424e-05
3.50229e-05
3.54105e-05
7.26037e-05
7.25958e-05
7.30374e-05
7.48415e-05
7.5848e-05
7.81549e-05
7.82278e-05
7.97108e-05
8.25135e-05
8.44992e-05
8.49462e-05
8.66742e-05
8.78194e-05
9.14825e-05
9.3799e-05
9.40275e-05
9.57488e-05
9.86041e-05
0.000100417
0.000102431
0.000102377
0.000103432
0.000105999
0.000107484
0.000107635
0.000108429
0.000109601
0.000109959
0.000109906
0.000109538
0.000108693
0.000108518
0.000106993
0.000106587
0.000104192
0.000100943
9.96782e-05
9.76927e-05
9.71544e-05
9.48424e-05
9.40171e-05
9.26389e-05
9.24393e-05
9.20889e-05
9.15096e-05
9.28046e-05
9.34809e-05
9.46783e-05
9.48153e-05
9.58014e-05
9.67956e-05
9.9302e-05
0.000101127
0.000101467
0.000102777
0.000103902
0.000109618
0.000111823
0.000112039
0.000113753
0.000115969
0.000117255
0.000117464
0.000119055
0.000119476
0.000121303
0.000120643
0.000121023
0.00012001
0.000119898
0.000119383
0.000116218
0.00010895
0.000107481
9.67534e-05
7.82013e-05
7.47343e-05
5.70894e-05
4.40476e-05
3.7916e-05
3.6829e-05
3.26822e-05
3.09683e-05
3.06862e-05
3.05283e-05
3.16343e-05
3.19109e-05
3.51313e-05
4.06907e-05
4.18213e-05
5.14867e-05
6.27327e-05
6.36227e-05
7.05215e-05
7.63194e-05
7.70985e-05
7.99475e-05
7.98194e-05
7.73077e-05
7.03791e-05
6.89859e-05
4.9654e-05
3.4402e-05
3.34891e-05
3.02894e-05
2.86704e-05
2.84623e-05
2.72463e-05
2.69759e-05
2.69463e-05
2.84993e-05
3.00068e-05
3.09287e-05
3.749e-05
4.97472e-05
6.2426e-05
6.3498e-05
6.84901e-05
6.8012e-05
6.74404e-05
6.11965e-05
4.59323e-05
3.6517e-05
3.50595e-05
3.0347e-05
2.88462e-05
2.87105e-05
2.81944e-05
2.66834e-05
2.66268e-05
2.58047e-05
2.58981e-05
2.73411e-05
2.76719e-05
3.11898e-05
3.56961e-05
3.62976e-05
3.85012e-05
9.70994e-05
9.70995e-05
9.77634e-05
9.2863e-05
7.70038e-05
0.000104738
0.000104878
0.000106726
0.000110184
0.000113284
0.000113852
0.000116124
0.00011529
0.000122245
0.000125201
0.000125481
0.000127502
0.00012975
0.000133355
0.000135782
0.000135713
0.000136288
0.000139989
0.000141911
0.000142073
0.000142949
0.000136758
0.000144753
0.000144668
0.000144209
0.000142865
0.000142221
0.000140557
0.000140014
0.000137004
0.000131544
0.000131289
0.000128851
0.000128172
0.000125261
0.000121895
0.000122519
0.000122182
0.000121744
0.000120756
0.000121804
0.000123262
0.000124694
0.00012484
0.000126004
0.000126392
0.000130087
0.000132444
0.00013283
0.000134417
0.000134371
0.000142829
0.000145661
0.000145935
0.00014787
0.000150694
0.000152476
0.000152736
0.000154637
0.000155477
0.00015739
0.000157463
0.000157448
0.000157605
0.000157589
0.000156993
0.000153083
0.000145142
0.000143407
0.00012964
0.000115134
0.000112491
9.64742e-05
8.26184e-05
7.38658e-05
7.16927e-05
6.6211e-05
6.38153e-05
6.31043e-05
6.13631e-05
6.18762e-05
6.17335e-05
6.41771e-05
6.90794e-05
6.96583e-05
7.67661e-05
8.46234e-05
8.56541e-05
9.44629e-05
0.000102015
0.000103078
0.000107665
0.000107753
0.000106164
9.69151e-05
9.47963e-05
7.65026e-05
6.73413e-05
6.60909e-05
6.09381e-05
6.00454e-05
5.96603e-05
5.84368e-05
5.71024e-05
5.66677e-05
5.54181e-05
5.92172e-05
6.00638e-05
6.59501e-05
7.5783e-05
8.45407e-05
8.59137e-05
9.24007e-05
9.26381e-05
9.20084e-05
8.52172e-05
7.43792e-05
6.6603e-05
6.4884e-05
6.05698e-05
5.95058e-05
5.93167e-05
5.84271e-05
5.7596e-05
5.76082e-05
5.64854e-05
5.59216e-05
5.76271e-05
5.78064e-05
5.80385e-05
6.63447e-05
6.70918e-05
6.98097e-05
9.86563e-05
9.86131e-05
9.9358e-05
0.000101937
0.000102599
0.000106399
0.000106554
0.000108723
0.000112618
0.000115191
0.00011572
0.000118106
0.000119964
0.000124464
0.000127349
0.000127617
0.000129844
0.000133653
0.000135705
0.000138125
0.00013807
0.000139421
0.000142652
0.000144363
0.000144488
0.000145457
0.000147269
0.00014725
0.000147059
0.000146576
0.00014543
0.000145043
0.000142747
0.000142132
0.000139066
0.000135074
0.000133251
0.000130608
0.000129887
0.00012698
0.00012618
0.000124083
0.00012367
0.000123219
0.000122466
0.000124122
0.000124776
0.000126153
0.00012628
0.000127505
0.000128755
0.000131868
0.000134004
0.000134363
0.000136016
0.000137506
0.000144655
0.000147434
0.000147708
0.000149874
0.000152784
0.000154361
0.000154611
0.00015672
0.000157557
0.000159346
0.000159428
0.000160179
0.000159614
0.00015954
0.000158963
0.00015538
0.000146847
0.000145071
0.000132036
0.000116245
0.000113521
9.72786e-05
8.31517e-05
7.4241e-05
7.20643e-05
6.65366e-05
6.40825e-05
6.3373e-05
6.16737e-05
6.21419e-05
6.20044e-05
6.45358e-05
6.943e-05
7.00234e-05
7.72564e-05
8.51594e-05
8.62154e-05
9.51452e-05
0.000102766
0.000103868
0.000108533
0.000108609
0.000107115
9.7645e-05
9.54828e-05
7.89012e-05
6.75918e-05
6.63196e-05
6.11516e-05
6.02054e-05
5.98337e-05
5.8618e-05
5.72761e-05
5.68428e-05
5.66202e-05
5.94351e-05
6.02862e-05
6.6264e-05
7.61803e-05
8.50209e-05
8.64164e-05
9.32325e-05
9.32287e-05
9.25908e-05
8.58214e-05
7.47459e-05
6.68553e-05
6.51158e-05
6.07929e-05
5.96546e-05
5.94636e-05
5.87087e-05
5.81705e-05
5.80696e-05
5.66988e-05
5.61045e-05
5.78028e-05
5.79866e-05
5.95009e-05
6.65996e-05
6.73513e-05
7.01277e-05
0.000127436
0.000127419
0.000128446
0.000124039
0.000104186
0.000137765
0.000137992
0.0001405
0.000145064
0.000149116
0.00014979
0.000152767
0.000151678
0.000160569
0.000164205
0.000164525
0.000167005
0.000169678
0.000174238
0.000177131
0.000177041
0.00017756
0.000182276
0.000184548
0.000184688
0.000185697
0.00017908
0.000187808
0.000187598
0.000187002
0.00018516
0.00018414
0.0001819
0.000181147
0.00017739
0.000170389
0.000170234
0.000167131
0.000166253
0.000162635
0.000158272
0.000159145
0.00015857
0.000158008
0.000156658
0.000157836
0.000159621
0.000161259
0.000161389
0.000162771
0.000163006
0.000167686
0.000170489
0.0001709
0.000172836
0.000172492
0.000183208
0.000186763
0.000187102
0.000189439
0.000193071
0.000195335
0.000195647
0.000198042
0.00019948
0.000202301
0.000202478
0.000202611
0.000203827
0.000204003
0.000203341
0.000199032
0.000190226
0.000188204
0.000171683
0.000153633
0.000150085
0.000128791
0.000109454
9.68192e-05
9.37956e-05
8.58868e-05
8.27815e-05
8.19046e-05
8.01505e-05
8.12439e-05
8.11714e-05
8.48085e-05
9.13119e-05
9.21312e-05
0.000101328
0.000111216
0.00011256
0.000123694
0.000133461
0.000134893
0.000141935
0.000142341
0.000142369
0.000130737
0.000127776
0.000102041
8.72199e-05
8.52536e-05
7.64704e-05
7.40312e-05
7.45466e-05
7.14846e-05
7.32949e-05
7.29888e-05
7.24784e-05
7.82544e-05
7.94346e-05
8.759e-05
0.000100355
0.000111529
0.000113333
0.000121948
0.000123234
0.000122592
0.000114911
9.98187e-05
8.75245e-05
8.49093e-05
7.72474e-05
7.48043e-05
7.4456e-05
7.30809e-05
6.99154e-05
7.13943e-05
6.97142e-05
7.2673e-05
7.583e-05
7.62434e-05
7.73352e-05
8.83981e-05
8.95287e-05
9.43636e-05
0.000129471
0.000129394
0.000130543
0.000133991
0.000134994
0.000139979
0.000140206
0.000143168
0.000148344
0.000151625
0.00015224
0.000155375
0.000157912
0.000163493
0.000167007
0.000167311
0.000170081
0.0001749
0.000177293
0.000180162
0.000180096
0.000181722
0.000185756
0.000187708
0.000187797
0.000188938
0.000191092
0.000191029
0.000190665
0.000190042
0.000188495
0.000187848
0.000184708
0.000183858
0.00018004
0.000175107
0.000172782
0.000169393
0.000168462
0.000164869
0.000163919
0.000161171
0.000160486
0.000159911
0.000158908
0.00016094
0.000161577
0.000163127
0.000163234
0.000164697
0.000166153
0.000170002
0.000172475
0.000172845
0.00017487
0.00017666
0.000185534
0.000189002
0.000189343
0.000192007
0.000195754
0.000197715
0.000198013
0.000200704
0.000202145
0.0002048
0.000204978
0.00020622
0.000206415
0.000206518
0.000205893
0.000202103
0.000192485
0.000190415
0.000175047
0.000155202
0.000151551
0.00012998
0.000110253
9.73788e-05
9.43474e-05
8.63667e-05
8.31709e-05
8.22962e-05
8.06068e-05
8.16294e-05
8.15661e-05
8.53294e-05
9.18059e-05
9.26457e-05
0.000102004
0.000111925
0.000113302
0.000124594
0.000134445
0.000135935
0.000143095
0.000143485
0.000143686
0.000131768
0.000128748
0.000105549
8.75992e-05
8.56006e-05
7.67742e-05
7.52733e-05
7.4783e-05
7.41162e-05
7.35403e-05
7.32392e-05
7.41927e-05
7.85736e-05
7.97595e-05
8.80411e-05
0.000100902
0.000112169
0.000114002
0.000123097
0.000124035
0.000123386
0.000115772
0.000100364
8.78956e-05
8.52565e-05
7.75748e-05
7.50144e-05
7.46614e-05
7.34803e-05
7.33531e-05
7.33598e-05
7.26047e-05
7.29424e-05
7.60916e-05
7.65129e-05
7.94472e-05
8.87744e-05
8.99097e-05
9.48408e-05
0.000163733
0.000163696
0.000165167
0.000159944
0.000137105
0.00017743
0.000177724
0.000180921
0.000186724
0.000192077
0.000192874
0.000196649
0.000194802
0.000206397
0.000210859
0.000211211
0.000214156
0.000216981
0.000223061
0.000226508
0.000226363
0.000226585
0.00023266
0.000235401
0.000235503
0.000236612
0.000228028
0.000239091
0.000238731
0.00023795
0.000235382
0.000233844
0.000231108
0.000230109
0.000225456
0.000216272
0.000216597
0.000212733
0.000211609
0.000207102
0.000201051
0.000202714
0.00020183
0.000201095
0.000199188
0.000200341
0.0002027
0.000204564
0.000204661
0.000206249
0.000206057
0.000212043
0.000215422
0.000215856
0.00021817
0.000217131
0.0002308
0.000235267
0.000235677
0.000238418
0.000243031
0.000245975
0.000246342
0.000249247
0.000251506
0.000255559
0.000255856
0.000256039
0.000258866
0.000259401
0.000258661
0.000254027
0.000244653
0.000242341
0.000222659
0.000201127
0.000196552
0.000169137
0.000143108
0.000125495
0.000121376
0.000110161
0.000106018
0.000104901
0.000103076
0.000104851
0.000104856
0.00010984
0.000118162
0.000119245
0.000130785
0.000143016
0.000144709
0.000158617
0.000171134
0.000173007
0.000183314
0.000184162
0.000186538
0.000172758
0.000168872
0.000134221
0.000112402
0.000109474
9.54259e-05
8.79202e-05
9.2184e-05
8.46464e-05
8.92835e-05
9.06788e-05
9.30759e-05
0.000101456
0.000103023
0.000113748
0.000129857
0.000143892
0.000146203
0.000157446
0.000160444
0.000159856
0.000151526
0.00013187
0.000113926
0.000110172
9.78836e-05
9.1869e-05
9.27281e-05
9.05107e-05
8.32182e-05
8.68126e-05
8.4274e-05
9.09172e-05
9.81989e-05
9.89119e-05
0.00010088
0.000115566
0.000117186
0.000124808
0.000166345
0.000166226
0.000167871
0.000172027
0.000173859
0.000180273
0.000180574
0.000184408
0.000191059
0.000195308
0.00019602
0.00020001
0.000202812
0.000210179
0.000214443
0.000214774
0.000218121
0.000223803
0.000226963
0.000230359
0.000230254
0.000231998
0.000237136
0.000239408
0.000239438
0.000240734
0.000242357
0.000243182
0.000242604
0.000241792
0.000239653
0.000238652
0.00023466
0.000233527
0.000228813
0.000222405
0.000219856
0.000215596
0.000214404
0.000209956
0.00020827
0.00020529
0.000204251
0.000203505
0.000202096
0.000204428
0.000205186
0.000206914
0.000206979
0.000208681
0.000210148
0.000215015
0.000217907
0.000218284
0.000220718
0.000222516
0.000233723
0.000238049
0.000238463
0.000241662
0.000246429
0.000248933
0.000249284
0.000252602
0.000254869
0.000258681
0.000258984
0.000260723
0.00026214
0.00026258
0.000261902
0.000258058
0.000247575
0.000245208
0.000227239
0.000203244
0.00019853
0.000170785
0.000144212
0.000126258
0.000122132
0.000110814
0.000106529
0.000105417
0.000103694
0.000105361
0.000105381
0.000110544
0.000118808
0.000119919
0.000131674
0.000143927
0.000145667
0.000159776
0.000172392
0.000174347
0.00018482
0.000185651
0.000188309
0.000174169
0.000170209
0.000139102
0.000112927
0.000109955
9.58312e-05
9.31953e-05
9.24757e-05
9.24532e-05
9.30697e-05
9.29917e-05
9.54075e-05
0.00010188
0.000103454
0.000114349
0.000130572
0.000144717
0.000147068
0.000159003
0.0001615
0.000160904
0.000152713
0.000132631
0.00011444
0.000110655
9.83363e-05
9.3589e-05
9.29846e-05
9.10491e-05
9.15044e-05
9.1672e-05
9.18506e-05
9.3546e-05
9.85479e-05
9.92729e-05
0.000103759
0.000116075
0.000117699
0.000125468
0.000206836
0.00020678
0.000208753
0.000200812
0.000176599
0.000224613
0.000224965
0.000228807
0.000235908
0.000243105
0.000244052
0.000248705
0.000245239
0.000260677
0.000266177
0.000266549
0.000269922
0.000272368
0.000280881
0.000285005
0.000284752
0.000284249
0.000292162
0.000295588
0.000295634
0.000296781
0.000283847
0.000299709
0.000299197
0.000298167
0.000294549
0.000292274
0.000289297
0.000288015
0.000282279
0.000269964
0.00027139
0.000266692
0.000265263
0.000259626
0.000250814
0.000254164
0.000252899
0.00025193
0.00024916
0.000249998
0.000253371
0.000255501
0.000255545
0.000257309
0.000256228
0.000263976
0.000268152
0.000268612
0.00027133
0.000268945
0.000286529
0.000292156
0.000292642
0.000295739
0.000301506
0.000305428
0.000305857
0.000309226
0.000312551
0.000318263
0.000318669
0.000318616
0.000323811
0.000324909
0.000324062
0.000319073
0.000309611
0.000307006
0.00028352
0.000258867
0.000253145
0.000218742
0.000184772
0.000160969
0.000155473
0.000139885
0.000133195
0.000131614
0.000130731
0.00013327
0.000133349
0.000139791
0.000150182
0.000151548
0.000165721
0.000180697
0.000182782
0.000199997
0.000215908
0.000218299
0.000232808
0.000234243
0.000239748
0.000224246
0.000219368
0.000174005
0.000144014
0.000139835
0.000118558
0.000105109
0.000112973
9.92683e-05
0.000107386
0.000110139
0.000117501
0.000129314
0.000131325
0.000144932
0.000164886
0.000182336
0.000185246
0.000199647
0.000205223
0.000204766
0.000196076
0.000171694
0.000146954
0.000141799
0.000123348
0.000112325
0.000110349
0.000111174
9.93207e-05
0.000105587
0.000101884
0.000112523
0.000125314
0.000126391
0.000129061
0.000148571
0.000150793
0.000161881
0.000208569
0.000208412
0.000210635
0.000216019
0.000220096
0.000226456
0.000226846
0.000231595
0.00023984
0.000245271
0.000246089
0.000250997
0.000253843
0.000263413
0.000268511
0.000268871
0.000272806
0.000279231
0.000283494
0.000287474
0.00028732
0.00028906
0.000295535
0.000298186
0.000298156
0.000299596
0.000300996
0.000302479
0.000301668
0.000300648
0.000297775
0.000296391
0.000291608
0.00029018
0.000284493
0.000276212
0.000273722
0.000268527
0.000267047
0.000261624
0.00025868
0.000255891
0.000254436
0.000253491
0.000251517
0.000254045
0.0002551
0.000257013
0.00025702
0.000258945
0.000260202
0.000266356
0.000269757
0.000270133
0.000273
0.000274504
0.000288565
0.000293904
0.000294402
0.000298151
0.000304089
0.000307295
0.000307704
0.000311658
0.000314966
0.000322086
0.000320654
0.000322866
0.000325966
0.000326916
0.000326198
0.000322486
0.000311503
0.00030887
0.00028816
0.000260307
0.000254465
0.000220013
0.000185587
0.000161491
0.000156026
0.000140404
0.000134593
0.000133149
0.00013125
0.000133605
0.000133706
0.000140373
0.000150601
0.000152001
0.000166387
0.000181277
0.000183416
0.000200792
0.000216706
0.000219202
0.000233802
0.000235198
0.000241072
0.000225198
0.000220267
0.000180121
0.00014438
0.000140168
0.000118908
0.000114292