/*--------------------------------*- C++ -*----------------------------------*\
| =========                 |                                                 |
| \\      /  F ield         | OpenFOAM: The Open Source CFD Toolbox           |
|  \\    /   O peration     | Version:  v2012                                 |
|   \\  /    A nd           | Website:  www.openfoam.com                      |
|    \\/     M anipulation  |                                                 |
\*---------------------------------------------------------------------------*/
FoamFile
{
    version     2.0;
    format      ascii;
    class       volScalarField;
    location    "1e-06";
    object      omega;
}
// * * * * * * * * * * * * * * * * * * * * * * * * * * * * * * * * * * * * * //

dimensions      [0 0 -1 0 0 0 0];


internalField   nonuniform List<scalar> 
10178
(
26039.6
26668.4
25247.6
27858.3
24990.9
26240.3
25693
24420.9
24051.8
25219.8
26082.4
24672.3
23256.5
23446.8
24116.3
23842.7
22160
20824.5
21305.6
21664
20535.6
18919.8
18548.8
18877.4
18957.9
17580.9
17217.6
16705.9
17300.7
16888.3
15935.9
15547.1
15878.1
16393.9
15587.6
15169
15632
16643.5
16803.7
16358.4
15978.8
17032.8
17891.3
17361.2
16603.4
16142.8
16573
16877.7
16871.8
15943.3
14902
14709.6
14973.2
15296.1
14305.6
13251.8
13174.9
13602.2
13413.7
12556.4
12404.6
12910.6
12910.2
12241
12392
13432.9
13357.3
12840.2
14567.2
15711
14977.7
14852.9
17836.7
18480.2
20046.2
23781
25233.6
25641.4
27011
29078.6
27441.1
26669.1
27850.3
26372.9
25000.8
26385.6
25166.1
23595.2
24352.3
22940.7
20537.3
20379.7
18684
16533.1
16868
15292
15882.3
18420.2
21582.2
26601
26795.1
22295.1
24917.8
24803.5
24222.2
25661.8
24239.6
22688.8
23454.5
22560.2
21016
21881.7
22101.6
19531.5
17542.7
16826.4
15374.1
13241.6
14900.3
15721.7
17737.8
18144.3
20005.5
19148.9
19589.4
21075
20995.3
19850.6
20326.5
21115.8
19413.9
18758.8
19570.5
19067.8
17283.4
16804.6
17279
15577.8
18012.4
17852.7
18344.3
19441.3
24853
17872.4
18102.3
18596.3
18512.2
18094
17815.4
18107.2
18492.6
17580.7
16887.1
16879.9
16801.2
16325.1
15580.5
14770.7
14993.5
14854.3
14190.1
13485.5
13342
13217.2
13269.1
12452
12048.3
12162
12287.7
12086.5
11476.6
11267.7
11476.1
12085.7
11843.3
11788.4
11833.8
12377
12670.6
12620.8
12384
12588.2
12902.9
12676.9
12377
11995.4
11941.4
11929.1
11862.3
11440.8
10976.1
10800.3
10765.5
10739.3
10179
9907.05
9938.16
9949.35
9859.35
9622.23
9616.08
9771.88
9871.88
10092.8
10203.6
10507
11439.2
11453.2
11726
12063.5
13506.2
13795.1
16294.1
18177.2
18196.4
20215.7
20965
20658.2
21235.2
20897.2
19693.9
19980.4
19530.1
18483
18756.4
18279.5
16774.6
16986.9
15696.9
13778.7
13935.2
12534.8
11433.4
11685.3
11755.9
12058.5
16539.8
19668.1
19448.5
18284.1
18678.5
18886.6
19524.1
18570
18896.7
17715.6
16634.1
16774.4
16860.2
15870.1
15586.1
14992.2
13006.5
11173.7
11215.6
10358.4
10423.4
10630.8
13807
13565.9
14103.6
14669
15704.4
15612.4
15680.9
16126.3
15488.7
15109.3
14966.4
14661.1
13884
13937.3
13905.3
12119.4
11896.3
12198.7
10026.6
9998.74
10249.8
11610.3
18250.4
10292.9
10383.6
10635.3
10637.5
10509.2
10412.8
10511.8
10723
10241.2
9925.27
9912.93
9819.9
9574.87
9205
8841.32
8905
8790.16
8444.15
8119.86
8058.5
7932.47
8164.1
7501.25
7315.47
7342.9
7324.64
7159.37
6921.12
6858.29
6923.06
7174.33
7075.34
7107.81
7133.27
7362.57
7533.63
7527.27
7466.89
7539.03
7665.76
7566.12
7446.49
7285.89
7263.25
7233.05
7184.33
6980.63
6772.22
6706.35
6659.44
10612.7
6390.92
6310.28
6322.95
6325.61
6312.23
6237.7
6239.6
6333.63
6433.74
6617.34
6693.73
6909.03
7403.03
7495.47
7620.94
7921.71
8709.59
8868.41
10173.2
11259.6
11333.5
12453.7
12945.3
12876.7
13095.9
12791.1
12048.5
12091
11571.8
10932.2
10979.6
10486.1
9631.07
9647.7
8828.09
7907.9
7917.67
7243
6823.58
6903.33
7056.82
7239.48
9175.85
10561
10598.3
11312.6
11806
11934.5
12337.9
11790.3
11877.5
10892.3
10135.1
10117.9
9911.73
9194.43
9030.3
8399.4
7213.53
6317.28
6284.25
5869.46
6043.71
6163.58
7596.79
8047.71
8721.87
9021.97
9757.84
9849.4
9886.16
10052.8
9624.99
9440.76
9114.74
8770.66
8206.96
8177.56
7989.98
6900.23
6817.45
6933.8
9957.42
9933.53
10176.3
9724.12
10318.7
10223.5
10313.7
10546.9
10527.5
10434.1
10341.8
10436.1
10444.4
10160.8
9852.89
9842.1
9741.15
9423.69
9134.41
8775.63
8838.36
8692.92
8372.44
8059.24
8000.2
7872
7332.54
7444.99
7263.73
7291.57
7266.03
7093.25
6874.43
6814.43
6878.61
7071.58
7029.1
7066.33
7092.92
7318.66
7373.74
7485.06
7427.63
7499.28
7616.09
7494.36
7405.62
7248
7226.71
7194.9
7115.91
6936.18
6736.19
6672.42
6624.11
6561.52
6353.69
6275.99
6288.76
6286.39
6272.36
6203.38
6205.71
6295.13
6395.22
4812.97
6656.87
6853.23
7360.8
7454.22
7578.12
7868.53
8665.04
8823.82
10082.1
11208.7
11284.6
12402.7
12897.3
12831.3
13053
12746
12012.1
12053.9
11532.5
10901.2
10948.2
10450.9
9603.01
9619.45
8797.96
7883.01
7892.45
7217.34
6800.87
6878.54
7032.18
7214.72
9138.46
10519.9
10557.9
11081.2
11771.3
11898.8
12299.2
11755.2
11845.7
10862.2
10109.3
10093.3
9769.51
9173.66
9010.13
8376.18
7193.92
6300.09
6267.3
5843.67
6027.28
6146.89
7571.47
8025.83
8699.13
8998.15
9729.3
9824.15
9861.91
10014.9
9600.21
9420.25
9092.1
8750.08
8189.75
8161.15
7853.45
6884.13
6803.53
6917.32
6651.99
6653.76
6790.86
6796.38
6904.5
6884.6
6927.7
7052.56
7044.38
7001.65
6962.53
6989.94
7024.92
6815.98
6651.57
6642.17
6567.54
6395.68
6227.14
6040.16
6060.74
5972.24
5781.19
5610.07
5578.87
5486.67
5340.13
5224.62
5119.67
5126.81
5086.56
4967.1
4862.03
4838.19
4866.56
4969.27
4939.37
4971.02
4986.73
5099.6
5147.54
5192.14
5172.43
5204.48
5259.67
5194.67
5146.9
5066.65
5055.87
5029.24
4986.36
4878.15
4771.31
4741.34
4704.5
4667.24
4557.23
4529.39
4536.5
4539.12
4539.51
4519.13
4522.61
4577.05
4654.37
4784.08
4835.34
4975.27
5272.65
5359.26
5427.44
5642.52
6115.31
6209.01
6946.27
7645.1
7715.01
8452.32
8843.02
8870.28
8991.51
8778.8
8254.4
8241.2
7763.92
7282.26
7272.25
6833.49
6258.98
6235.58
5683.27
5173.39
5159.24
4798.04
4616.79
4649.26
4787.87
4895.27
5892.22
6678.89
6758.43
7606.48
8208.94
8309.37
8652.96
8312.79
8346.54
7553.29
6937.22
6884.14
6540.43
6017.2
5901.92
5362.6
4593.23
4096.59
4063.86
3845.63
4004.46
4076.86
4855.46
5374.92
5964.8
6163.43
6743.46
6887.75
6916.49
7005.67
6696.94
6580.22
6250.51
5918.65
5455.45
5410.31
5154.33
4470.27
4428.27
4472.24
4913.65
4920.11
5005.41
5315.44
6853.95
5075.09
5099.12
5172.05
5164.04
5131.09
5110.81
5114.4
5170.11
4993
4892.93
4885.95
4834.1
4740.27
4622.27
4511.45
4519.23
4467.03
4337.92
4230.37
4211.34
4145.47
4184.7
3969.46
3899.13
3900.17
3864.33
3781.63
3721.21
3709.62
3724.43
3794.13
3763.43
3784.59
3794.51
3858.45
3910.09
3910.47
3901.5
3918.74
3950.05
3913.66
3879.24
3832.51
3826.36
3806.71
3786.88
3711.07
3645.83
3629.32
3602.95
3592.85
3512.88
3501.29
3506.1
3512.6
3515.24
3511.81
3515.1
3550.16
3607.4
3708.96
3733.21
3837.26
4016.48
4082.37
4123.64
4277.9
4566.12
4623.62
5080.71
5519.49
5575.26
6085.41
6404.85
6475.84
6555.7
6424.64
6031.34
6004.93
5589.13
5198.33
5171.45
4805.39
4398.95
4369.81
3995.78
3692.93
3677.88
3474.12
3390.12
3407.57
3512.63
3577.42
4139.3
4628.17
4702.72
5508.28
6014.21
6098.68
6423.04
6214.15
6231.96
5595.96
5065.98
5002.99
4681.85
4220.55
4136.35
3712.04
3203.21
2910.77
2886.68
2769.85
2885.17
2930.61
3391.81
3834.65
4319.62
4463.01
4938.8
5098.03
5123.08
5196.65
4956.3
4869.96
4569.16
4257.43
3869.19
3823.77
3626.38
3130.55
3102.69
3103.18
4877.31
4885.03
4967.22
4878.12
5046.16
5037.13
5060.98
5125.37
5107.69
5089.85
5071.05
5072.42
5043.17
4948.81
4852.3
4845.84
4790.6
4664.83
4582.82
4474.05
4481.49
4415.23
4298.08
4195.62
4177.48
4110.9
3914.32
3937.24
3869.05
3870.33
3831.43
3745.81
3694.44
3683.92
3698.72
3741.36
3737.38
3760.78
3771.13
3833.7
3833.36
3886.82
3879.04
3896.2
3922.85
3876.29
3856.34
3810.92
3805.32
3784.94
3750.64
3686.42
3625.22
3609.44
3582.5
3548.6
3491.34
3480.92
3485.79
3489.67
3491.79
3491.11
3494.56
3527.07
3584.17
3686.56
3710.71
3804.04
3991.17
4057.27
4097.85
4245.76
4539.36
4596.9
5030.34
5491.42
5548.12
6057.78
6380.68
6453.6
6534.07
6402.83
6013.82
5987.27
5570.42
5183.58
5156.53
4788.59
4385.38
4356.03
3981.28
3680.34
3664.97
3460.96
3377.53
3394.27
3498.88
3563.57
4120.86
4609.71
4684.43
5388.7
5996.89
6080.83
6404.42
6197.81
6217.17
5581.99
5054.12
4991.09
4612.67
4210.28
4126.32
3701.18
3193.77
2902.09
2877.96
2757.1
2876.31
2921.66
3379.62
3823.79
4308.43
4451.49
4924.85
5086.28
5111.65
5177.78
4944.94
4859.92
4558.75
4247.78
3860.87
3815.65
3562.14
3122.99
3095.66
3094.92
3835.16
3842.21
3896.22
3940.74
3932.06
3939.26
3953.84
3994.47
3979.17
3958.82
3947.36
3941.03
3954.77
3849.71
3785.01
3780.18
3741.62
3668.71
3600.67
3529.36
3532.45
3492.57
3404.67
3333.33
3321.02
3271.92
3225.83
3146.46
3096.22
3095.4
3064.23
3003.52
2969.81
2963.82
2971.93
3009.27
2993.66
3008.65
3015.49
3054.21
3073.1
3085.16
3081.03
3091.58
3109.39
3081.67
3063.26
3034.42
3030.99
3016.37
3000.91
2950.22
2909.28
2899.59
2880.29
2870.58
2819.56
2814.69
2818.32
2825.12
2826.74
2831.28
2834.16
2856.13
2897.85
2962.23
2987.85
3060.66
3176.42
3224.12
3250.54
3356.4
3539.59
3576
3856.92
4147.84
4190.54
4550.4
4811.97
4900.9
4959.68
4886.14
4586.35
4558.76
4201.36
3880.91
3850.21
3551.25
3260.5
3234.36
2977.66
2789.99
2778.05
2657.41
2616.76
2627.7
2700.42
2740.79
3075.74
3393.33
3453.33
4062.46
4538.79
4610.42
4930.01
4812.55
4827.54
4315.3
3851.61
3788.3
3459.98
3101.59
3039.45
2716.74
2375.38
2194.43
2177.69
2108.96
2189.63
2218.98
2506.11
2850.89
3240.86
3348.17
3743
3906.79
3930.12
3996
3807.93
3740.12
3471.65
3184.82
2862.01
2821.31
2637.06
2308.15
2286.9
2259.42
3806.86
3814.8
3866.43
3730.07
3900.97
3910.34
3924.17
3957.62
3935.14
3926.6
3916.24
3908.23
3855.48
3815.21
3753.28
3748.8
3707.5
3610.19
3569.72
3499.91
3502.71
3450.95
3373.08
3305.75
3294.1
3244.37
3048.54
3120.73
3072.18
3071.53
3037.77
2974.83
2948.37
2943.2
2951.28
2965.74
2972.8
2989.63
2996.82
3034.44
3013.76
3066.46
3063.28
3073.78
3087.66
3052.06
3045.19
3017.41
3014.37
2999.14
2971.33
2930.62
2892.97
2883.8
2864.05
2833.78
2802.37
2798.44
2802.09
2806.63
2807.85
2814.65
2817.66
2837.45
2879.09
2444.97
2969.72
3033.29
3156.19
3204.06
3229.92
3330.39
3518.33
3554.77
3816.28
4126.4
4169.98
4529.41
4794.11
4884.83
4943.84
4870.24
4573.86
4546.14
4187.78
3870.5
3839.62
3539.14
3250.91
3224.55
2967.02
2780.49
2768.3
2647.35
2606.95
2617.38
2689.6
2729.92
3061.48
3379.46
3439.61
3966.52
4526.3
4597.71
4916.39
4801.02
4817.06
4305.37
3843.28
3780
3406.96
3094.3
3032.4
2709.06
2368.54
2187.87
2171.07
2099.05
2182.74
2212.02
2496.77
2842.91
3232.61
3339.85
3732.67
3898.49
3922.07
3981.33
3799.92
3732.9
3464.3
3177.81
2856.21
2815.56
2586.68
2302.86
2281.92
2253.49
3096.55
3102.87
3137.4
3130.72
3165.75
3158.67
3168.34
3190.85
3172.02
3157.25
3150.18
3140.2
3136.68
3068.78
3024.2
3020.97
2991.89
2934.51
2892.33
2843.33
2844.71
2814
2750.19
2699.97
2691.66
2654.29
2597.57
2561.07
2523.55
2522.37
2496.84
2451.89
2432.41
2429.25
2433.97
2455.5
2446.86
2457.79
2462.89
2488
2492.41
2507.62
2506.09
2513.35
2524.79
2503.34
2493.42
2474.82
2473.03
2462.28
2450.72
2414.67
2387.68
2381.72
2367.39
2359.35
2323.4
2320.97
2323.85
2330.5
2330.47
2337.7
2340.15
2353.91
2383.86
2428.9
2448.79
2500.6
2576.23
2609.81
2627.54
2699.72
2817.77
2841.34
3017.9
3212.23
3244.2
3500.82
3712.69
3804.9
3851.05
3816.49
3586.03
3561.4
3258.17
2994.46
2964.99
2724.48
2514.02
2492.75
2313.94
2193.02
2184.36
2109.6
2088.78
2096.41
2143.41
2169.02
2376.05
2586.67
2632.14
3075.79
3492.81
3553.04
3868.33
3816.59
3833.1
3420.16
3012.74
2952.86
2641.41
2361.71
2315.72
2074.33
1840.71
1723.28
1711.68
1667.77
1722.42
1741.71
1926.58
2183.97
2492.93
2574.46
2902.96
3064.59
3086.83
3151.07
3000.67
2945.32
2708.74
2450.26
2184.38
2149.62
1988.61
1765.1
1747.67
1705.32
2585.05
2589.79
2613.46
2739.22
3140.58
2618.34
2625.37
2642.57
2628.17
2607.24
2601.91
2592.09
2622.37
2535.94
2501.65
2499.31
2478.9
2451.22
2402.9
2366.41
2367.36
2351.72
2296.24
2256.16
2249.94
2221.37
2255.58
2148.45
2118.27
2117.08
2098.61
2066.85
2049.56
2047.36
2050.21
2079.34
2058.31
2065.05
2068.82
2086.83
2113.8
2099.18
2098.51
2104.01
2115.15
2104.85
2090.59
2077.48
2076.46
2069.09
2069.58
2035.78
2014.71
2010.58
2000.13
2008.29
1967.21
1964.73
1967.07
1975.08
1973.9
1979.67
1981.64
1991.85
2013.33
2050.56
2059.49
2103.88
2147.62
2170.61
2183.34
2236.4
2308.75
2324.17
2450.06
2566.77
2589.86
2774.21
2940.97
3026.94
3063.9
3054.17
2873.84
2853.38
2599.4
2380.03
2353.76
2162.62
2006.56
1990.02
1863.92
1782.48
1776.53
1728.4
1716.79
1722.71
1752.35
1768.51
1900.58
2040.99
2074.34
2443.3
2739.12
2789.41
3093.37
3087.21
3105.31
2773.53
2415.14
2360.29
2108.26
1857.17
1822.74
1643.33
1479.24
1399.29
1391.13
1362.94
1397.8
1410.62
1532.7
1720.01
1962.15
2024.41
2297.57
2450.61
2471.58
2540.95
2414.36
2368.04
2161.62
1933
1714.8
1685.82
1576.76
1391.73
1376.82
1329.31
2564.59
2569.92
2592.01
2580.91
2615.12
2597.03
2603.8
2616.17
2596.17
2584.12
2579.53
2568.62
2559.6
2511.23
2478.95
2476.84
2454.49
2408.93
2380.57
2345.06
2345.79
2321.9
2273.02
2235.95
2230.17
2201.11
2153.12
2129.38
2100.48
2099.41
2079.04
2045.24
2033.59
2031.96
2034.78
2048.49
2042.7
2050.95
2054.96
2072.23
2071.12
2085.49
2085.56
2091.04
2099.36
2082.69
2077.43
2065.13
2064.37
2056.55
2048.34
2021.26
2002.78
1999.02
1988.22
1982.29
1954.45
1952.73
1955.07
1961.3
1959.71
1967.29
1969.34
1977.88
1999.26
2037.27
2046.04
2083.36
2132.72
2155.88
2168.19
2216.93
2293.27
2308.74
2421.5
2551.59
2575.29
2759.2
2928.34
3015.93
3052.87
3043.14
2865.35
2844.79
2590.07
2373.09
2346.7
2154.5
2000.19
1983.49
1856.74
1776
1769.86
1721.35
1709.8
1715.34
1744.53
1760.68
1890.53
2031.44
2064.88
2383.66
2730.71
2780.94
3083.96
3079.68
3098.34
2766.92
2409.63
2354.86
2072.13
1852.42
1818.12
1638.28
1474.66
1394.79
1386.55
1355.75
1392.88
1405.66
1526.14
1714.42
1956.53
2018.73
2290.3
2445.18
2466.29
2530.52
2409.16
2363.28
2156.88
1928.07
1710.99
1682.02
1546.73
1388.14
1373.37
1325.25
2189.5
2193.3
2208.49
2286.76
2594.24
2202.98
2207.93
2218.77
2204.1
2185.5
2181.65
2172.03
2195.93
2126.06
2099.77
2098.17
2082.43
2061.71
2023.13
1995.24
1995.91
1984.74
1939.49
1908.14
1903.55
1880.92
1901.1
1822.84
1798.73
1797.78
1783.48
1759.4
1746.68
1745.34
1747.02
1770.96
1752.04
1756.97
1760.02
1773.24
1795.14
1781.92
1782.29
1786.72
1796.19
1789.08
1778.02
1769.01
1768.65
1763.43
1766.12
1738.52
1722.94
1720.17
1712.21
1721.43
1685.88
1683.41
1685.34
1692.76
1690.3
1695.46
1697.07
1703.89
1719.24
1745.55
1752.06
1785.98
1812.44
1827.96
1837.16
1873.72
1919.03
1929.21
2014.03
2088.8
2105.76
2239.03
2370.77
2448.2
2478.17
2482.98
2342.86
2326.28
2113.89
1932.61
1909.78
1756.74
1640.11
1627.28
1536.01
1479.46
1475.29
1442.49
1435.03
1439.48
1457.33
1467.25
1550.5
1644.46
1668.63
1940.17
2182.31
2224.13
2503.45
2531.16
2551.12
2285.67
1971.63
1922.23
1697.82
1496.24
1470.26
1335.77
1217.66
1160.56
1154.54
1133.23
1155.88
1164.38
1244.92
1380.58
1569.06
1616.81
1842.06
1985.66
2005.4
2074.42
1970.9
1932.12
1753.34
1553.6
1375.58
1351.67
1262.44
1121.28
1108.45
1060.49
2172.43
2176.75
2190.52
2177.92
2201.62
2185
2189.9
2196.43
2176.78
2166.35
2163.17
2152.59
2142.98
2105.5
2081.04
2079.62
2062.06
2025.46
2004.59
1977.55
1978
1959.13
1919.89
1891.3
1887.09
1863.94
1825.67
1806.83
1783.87
1783
1766.85
1740.75
1733.27
1732.43
1734.04
1743.85
1738.82
1745.16
1748.42
1760.92
1758.55
1770.46
1771.52
1775.92
1782.69
1769.73
1766.98
1758.74
1758.58
1752.95
1747.51
1726.13
1712.99
1710.54
1702.22
1698.44
1675.12
1673.39
1675.3
1681
1678.18
1685.08
1686.76
1692.01
1707.31
1734.37
1740.81
1768.06
1800.01
1815.71
1824.53
1857.04
1906.22
1916.44
1989.49
2076.13
2093.52
2226.01
2359.66
2438.57
2468.43
2473.18
2335.37
2318.71
2105.66
1926.64
1903.7
1749.76
1634.77
1621.81
1530.01
1474.19
1469.84
1436.67
1429.25
1433.34
1450.82
1460.77
1542.13
1636.66
1660.89
1890.33
2174.99
2216.79
2495.03
2524.65
2544.91
2279.92
1966.87
1917.51
1667.17
1492.19
1466.32
1331.49
1213.85
1156.89
1150.79
1127.02
1151.79
1160.26
1239.41
1375.82
1564.27
1611.89
1835.54
1980.92
2000.72
2064.83
1966.41
1927.95
1749.27
1549.26
1372.28
1348.38
1237.26
1118.19
1105.48
1057.01
1881.41
1884.4
1893.8
1954.32
2184.01
1880.86
1884.65
1892.01
1878.16
1860.52
1857.6
1848.72
1870.73
1810.48
1789.43
1788.36
1776.17
1761.75
1728.11
1705.98
1706.6
1699.31
1660.88
1635.42
1631.96
1613.86
1632.6
1566.58
1547
1546.35
1535.71
1517.37
1507.01
1506.17
1507.25
1528.93
1510.51
1514.15
1516.72
1527.05
1547.65
1533.59
1534.7
1538.49
1547.31
1543.14
1533.48
1527.2
1527.28
1523.75
1528.62
1504.98
1492.82
1490.92
1484.78
1495.58
1462.91
1460.04
1461.63
1468.47
1465.03
1468.98
1470.3
1474.94
1485.81
1503.66
1508.44
1535.13
1549.4
1559.46
1566.3
1591.53
1618.57
1625.29
1684.28
1729.84
1742.18
1839.04
1942.37
2010.02
2034.57
2047.46
1938.52
1925.47
1749.03
1598.89
1579.42
1456.51
1367.85
1357.91
1290.52
1249.79
1246.86
1223.08
1217.07
1220.41
1229.99
1235.77
1287.44
1349.86
1367.25
1569.92
1763.8
1798.45
2047.68
2098.36
2119.56
1909.84
1635.46
1591.48
1396.14
1231.24
1211.39
1109.61
1022.35
979.622
974.977
957.469
970.785
976.363
1029.87
1127.4
1273.29
1309.91
1494.9
1626.66
1644.99
1713.23
1628.46
1595.98
1442.66
1270.1
1124.76
1105.1
1033.96
921.129
909.947
863.751
1866.92
1870.39
1878.48
1866.8
1881.07
1865.72
1869.43
1872.79
1854.38
1844.41
1842.1
1832.34
1825.89
1793.02
1773.72
1772.79
1758.84
1730.25
1712.45
1691.1
1691.48
1677.02
1644.04
1621.18
1618.07
1599.41
1571.82
1552.94
1534.42
1533.82
1521.35
1500.98
1495.57
1495.2
1496.18
1505.03
1499.12
1504.12
1506.88
1516.49
1516.11
1523.88
1525.62
1529.35
1535.59
1525.94
1524.08
1518.54
1518.8
1514.84
1512.16
1494.18
1484.39
1482.79
1476.3
1475.18
1453.68
1451.55
1453.12
1458.28
1454.5
1460.16
1461.54
1464.68
1475.52
1494.19
1498.91
1519.3
1538.87
1549.16
1555.63
1577.01
1607.83
1614.6
1662.98
1719.31
1732.05
1828.11
1933.09
2002.07
2026.44
2039.21
1932.42
1919.24
1742.11
1594.06
1574.47
1450.68
1363.5
1353.45
1285.51
1245.43
1242.33
1218.19
1212.23
1215.23
1224.49
1230.32
1280.36
1343.38
1360.84
1528.76
1757.8
1792.47
2040.54
2093.17
2114.48
1905.22
1631.72
1587.72
1370.3
1227.99
1208.23
1106.09
1019.22
976.58
971.857
951.975
967.339
972.899
1025.17
1123.44
1269.36
1305.85
1489.3
1622.79
1641.2
1704.71
1624.88
1592.62
1439.39
1266.55
1122.11
1102.44
1013.05
918.607
907.522
860.874
1635.6
1637.88
1643.34
1700.18
1866.03
1625.34
1628.4
1634.05
1621.75
1604.03
1601.7
1593.78
1616.59
1561.57
1543.99
1543.29
1533.91
1525.39
1493.65
1475.5
1476.18
1472.47
1438.69
1417.19
1414.54
1400.01
1423.66
1360.87
1344.69
1344.35
1336.93
1323.06
1313.57
1313.04
1313.89
1335.11
1316.21
1318.83
1321.07
1329.67
1351.23
1334.97
1336.55
1339.93
1348.77
1347.39
1337.88
1333.42
1333.79
1331.59
1338.69
1317.52
1307.4
1306.06
1301.29
1314.03
1282.55
1279.07
1280.38
1286.74
1282.61
1285.03
1286.09
1289.43
1296.93
1308.16
1311.72
1333.62
1338.94
1345.02
1350.28
1367.93
1382.27
1386.7
1429.55
1454.43
1463.36
1534.27
1614.87
1672.72
1693.01
1709.87
1625.1
1615.06
1469.4
1344.52
1328.06
1228.79
1159.98
1152.27
1101.34
1070.71
1068.6
1050.14
1044.2
1046.68
1050.17
1053.23
1084.46
1125.31
1137.82
1292.82
1444.27
1472.87
1691.22
1755.52
1777.02
1615.15
1376.2
1337.32
1169.95
1031.94
1016.54
938.475
872.124
838.554
834.787
819.549
825.563
829.154
864.946
934.707
1047.23
1075.38
1226.93
1345.39
1362.15
1429.08
1359.78
1332.65
1202.49
1054.63
935.403
919.231
863.767
769.606
759.773
716.413
1628.6
1631.33
1635.59
1623.62
1626.68
1618.3
1621.18
1622.93
1606.18
1596.28
1594.53
1585.76
1582.66
1552.46
1536.66
1536.02
1524.79
1502.66
1486.08
1468.62
1468.98
1458.03
1429.42
1410.5
1408.11
1392.82
1371.86
1354.12
1338.86
1338.46
1328.93
1312.67
1308.11
1307.96
1308.53
1317.38
1310.18
1314.13
1316.49
1324.23
1326.61
1330.18
1332.33
1335.6
1341.75
1334.93
1333.05
1329.32
1329.83
1327.15
1326.91
1311.05
1303.37
1302.3
1297.16
1298.54
1277.73
1275.11
1276.39
1281.06
1276.6
1280.9
1282.02
1283.86
1291.42
1300.12
1307.28
1323.02
1333.89
1340.32
1345.19
1359.03
1377.35
1381.79
1414.63
1449.52
1458.75
1528.56
1610.27
1669.05
1688.96
1705.27
1622.22
1611.99
1465.32
1342.28
1325.68
1225.42
1158.01
1150.16
1098.66
1068.72
1066.45
1047.72
1041.98
1044.17
1047.59
1050.75
1080.8
1122.37
1134.95
1260.56
1441.54
1470.1
1686.99
1753.09
1774.52
1612.66
1374.5
1335.54
1149.12
1030.44
1015.1
936.626
870.612
837.173
833.333
815.803
823.979
827.571
862.303
932.85
1045.45
1073.45
1223.46
1343.55
1360.34
1422.67
1358.02
1331.09
1200.82
1052.62
934.188
917.992
847.05
768.436
758.68
714.959
1622.73
1625.84
1628.71
1585.58
1613.73
1612.36
1615.07
1612.43
1591.9
1589.81
1588.6
1578.91
1548.64
1544.61
1530.57
1529.97
1516.62
1480.92
1479.69
1462.91
1462.87
1443.47
1421.24
1404.9
1402.72
1386.55
1333.49
1348.35
1333.98
1333.51
1321.49
1303.18
1303.49
1303.73
1303.93
1298.62
1304.94
1310.19
1312.64
1319.43
1302.24
1326.14
1328.85
1331.97
1335
1323.2
1328.91
1325.92
1326.54
1323.35
1314.51
1305.28
1300
1299.19
1293.64
1281.85
1273.57
1271.83
1273.08
1275.86
1271.26
1277.47
1278.63
1278.85
1286.61
1147.94
1303.55
1312.45
1329.64
1336.45
1340.91
1350.89
1373.31
1377.76
1399.35
1445.48
1455.01
1523.63
1606.45
1666.19
1685.63
1701.5
1620.17
1609.67
1461.87
1340.65
1323.86
1222.53
1156.49
1148.48
1096.4
1067.16
1064.69
1045.7
1040.2
1042.05
1045.42
1048.72
1077.55
1119.93
1132.56
1227.65
1439.33
1467.94
1683.37
1751.35
1772.65
1610.9
1373.32
1334.29
1128.38
1029.33
1014.04
935.07
869.404
836.082
832.158
812.325
822.682
826.268
859.874
931.292
1043.99
1071.85
1220.35
1342.17
1359.02
1416.07
1356.75
1330.03
1199.57
1050.98
933.303
917.068
829.332
767.516
757.839
713.732
1434.55
1436.64
1438.31
1432.23
1421.25
1417.96
1420.35
1421.71
1407.08
1396.35
1394.92
1387.2
1388.56
1358.69
1345.16
1344.75
1335.78
1319.86
1302.51
1287.81
1288.23
1280.81
1254.99
1238.72
1236.83
1224.31
1210.27
1191.62
1178.84
1178.67
1171.78
1158.87
1154.15
1154.12
1154.53
1164.73
1155.52
1158.56
1160.64
1167.3
1173.45
1172.33
1174.71
1177.68
1184.21
1180.19
1177.31
1174.78
1175.44
1173.8
1176.19
1161.35
1154.77
1154.03
1149.93
1154.25
1132.87
1129.62
1130.68
1134.99
1130.09
1132.83
1133.73
1134.9
1139.92
1144.2
1149.97
1162.99
1167.14
1170.76
1174.55
1183.62
1193.02
1195.9
1219.59
1238.66
1245.3
1296.3
1359.47
1408.83
1425.19
1442.79
1378.16
1370.36
1249.49
1146.63
1132.63
1050.75
997.387
991.191
951.132
927.649
925.925
910.373
904.174
905.723
904.741
906.199
923.492
950.366
959.443
1056.78
1196.6
1220.1
1407.75
1479.66
1500.34
1379.33
1172.87
1138.69
980.501
878.629
866.499
805.164
753.448
725.972
722.701
706.821
709.368
711.607
734.787
785.215
871.918
893.465
1015.94
1122.11
1137.26
1197.96
1145.88
1123.53
1013.9
887.445
789.601
776.192
720.762
652.24
643.631
603.409
1424.65
1427.17
1427.52
1402.89
1410
1407.85
1410.07
1407.36
1389.11
1385.52
1384.64
1376.06
1356.05
1346.58
1334.74
1334.39
1323.52
1295.91
1291.92
1277.92
1278
1263.2
1242.92
1229.15
1227.54
1214.27
1182.1
1182.21
1170.4
1170.2
1161.15
1146.35
1146.34
1146.72
1146.88
1145.03
1147.39
1151.78
1153.99
1159.81
1149.83
1165.66
1168.65
1171.52
1175.18
1166.49
1170.75
1168.95
1169.76
1167.64
1162.31
1153.25
1149.06
1148.59
1144.09
1136.89
1126.32
1123.92
1124.94
1127.41
1122.29
1126.88
1127.83
1127.4
1132.52
1141.09
1143.57
1150.17
1160.04
1163.99
1167.39
1172.75
1186.02
1188.94
1202.72
1231.83
1238.78
1288.83
1353.29
1403.75
1419.77
1437.05
1374.34
1366.35
1244.63
1143.64
1129.49
1046.69
994.671
988.334
947.681
924.842
922.933
907.041
900.971
902.185
901.02
902.589
918.561
946.166
955.311
1028.41
1192.78
1216.32
1402.64
1476.46
1497.03
1376.39
1170.65
1136.42
961.674
876.642
864.57
802.796
751.399
724.006
720.65
702.453
707.081
709.314
731.369
782.612
869.409
890.82
1011.82
1119.67
1134.9
1190.59
1143.66
1121.5
1011.82
885.052
787.975
774.546
705.308
650.645
642.117
601.516
1270.1
1271.67
1271.72
1278.02
1253.25
1249.07
1251.17
1253.06
1240.98
1228.23
1226.95
1220.33
1228.04
1195.82
1183.6
1183.4
1176.58
1167.28
1147.18
1134.45
1135.09
1131.67
1107.44
1092.73
1091.27
1081.21
1078.69
1053.46
1042.61
1042.71
1038.47
1028.71
1022.91
1022.94
1023.5
1036.47
1024.45
1026.65
1028.56
1034.76
1045.78
1039.22
1041.69
1044.52
1051.93
1050.92
1046.08
1044.24
1045.03
1044.29
1049.69
1035.01
1028.69
1028.15
1024.9
1032.79
1009.65
1005.64
1006.5
1010.68
1005.55
1006.47
1007.2
1008.2
1011.17
1014.72
1016.56
1028.51
1026.94
1028.47
1031.6
1038.1
1040.7
1042.56
1061.66
1068.53
1073.23
1110.88
1159.35
1200.44
1214.17
1231.78
1181.52
1175.82
1077
990.481
978.742
911.438
868.021
863.085
831.059
811.566
810.212
796.438
789.392
790.472
786.073
786.442
795.699
812.484
819.09
898.337
1003.17
1022.48
1183.85
1255.73
1275.09
1188.79
1011.25
981.591
848.844
758.755
748.982
700.146
658.309
634.738
631.844
617.405
615.423
616.738
632.307
668.108
734.769
751.43
851.327
943.576
957.096
1016.11
974.299
955.848
864.658
757.189
675.612
664.449
622.097
559.888
552.291
515.849
1261.53
1263.55
1262.35
1247.46
1243.41
1240.43
1242.37
1240.45
1224.81
1218.95
1218.23
1210.77
1200.22
1185.24
1174.73
1174.59
1165.91
1146.21
1138.06
1126.03
1126.33
1116.16
1096.76
1084.55
1083.35
1072.55
1053.79
1045.29
1035.4
1035.47
1029.11
1017.33
1016.17
1016.61
1016.89
1019.16
1017.26
1020.83
1022.86
1028.21
1025.6
1033.43
1036.51
1039.22
1043.88
1038.36
1040.33
1039.24
1040.16
1038.94
1037.29
1027.65
1023.75
1023.5
1019.85
1017.4
1003.88
1000.74
1001.58
1003.93
998.541
1001.36
1002.14
1001.57
1004.62
1009.32
1011.1
1017.03
1020.87
1022.76
1025.5
1028.37
1034.83
1036.71
1046.92
1062.79
1067.8
1104.46
1154.08
1196.2
1209.53
1226.77
1178.39
1172.47
1072.75
988.003
976.116
907.851
865.756
860.678
828.031
809.193
807.652
793.541
786.663
787.408
782.87
783.367
791.422
808.951
815.626
874.863
999.986
1019.32
1179.34
1253.11
1272.29
1186.37
1009.46
979.771
832.921
757.119
747.395
698.108
656.56
633.078
630.099
613.343
613.479
614.789
629.3
665.903
732.673
749.196
847.644
941.537
955.135
1009.37
972.469
954.22
862.966
755.131
674.279
663.085
609.087
558.552
551.033
514.242
1133.5
1134.58
1133.72
1153.63
1114.65
1109.56
1111.5
1114.41
1104.99
1089.86
1088.59
1083.04
1097.11
1061.96
1050.37
1050.31
1045.44
1042.07
1018.86
1007.54
1008.42
1008.76
985.669
971.731
970.542
962.623
973.007
938.824
929.348
929.706
927.855
920.86
913.453
913.448
914.24
930.165
915.413
916.701
918.466
924.538
940.375
928.524
930.921
933.677
942.155
943.971
936.829
935.313
936.165
936.201
944.469
929.715
923.056
922.597
920.065
931.417
906.359
901.495
902.21
906.469
901.342
900.353
900.932
902.177
903.572
903.949
905.315
917.264
911.125
911.156
913.895
919.383
916.801
917.99
935.036
932.59
935.814
963.739
1000.3
1033.96
1045.66
1062.48
1023.21
1019.22
938.898
865.404
855.589
799.781
763.296
759.311
732.962
715.833
714.732
701.98
694.058
694.827
688.006
687.717
692.312
702.279
707.133
774.867
850.579
866.453
1004.74
1073.02
1090.75
1032.55
881.163
855.684
745.179
663.419
655.364
615.631
580.651
559.702
557.071
544.128
538.579
539.273
549.961
575.139
626.343
639.308
720.789
799.391
811.344
868.747
835.299
820.157
745.137
653.949
585.105
575.731
544.155
485.991
479.284
446.686
1129.14
1130.67
1128.58
1115.45
1109.04
1105.38
1107.11
1106.32
1093.34
1085.14
1084.44
1078.05
1074.33
1055.82
1046.08
1046.06
1039.27
1026.06
1014.17
1003.57
1004.05
997.866
979.058
967.748
966.784
957.984
944.924
934.468
925.926
926.18
922.066
912.789
910.077
910.464
910.855
916.631
911.174
913.873
915.725
920.838
923.901
925.451
928.454
931.044
936.75
934.144
933.539
932.828
933.802
933.307
934.975
924.645
920.549
920.379
917.417
919.113
902.981
899.135
899.813
902.234
896.775
897.888
898.516
898.154
899.633
901.4
902.696
908.896
908.055
908.53
910.841
912.69
914.066
915.259
924.104
929.825
933.322
960.087
997.486
1032
1043.18
1059.36
1021.69
1017.45
936.006
864.234
854.247
797.384
762.238
758.1
731.112
714.729
713.438
700.42
692.8
693.239
686.433
686.307
689.872
700.648
705.561
755.32
849.114
864.962
1001.69
1071.76
1089.29
1031.06
880.324
854.79
732.02
662.637
654.627
614.425
579.741
558.935
556.223
540.984
537.672
538.373
548.074
574.061
625.386
638.199
718.184
798.401
810.387
863.283
834.326
819.402
744.192
652.605
584.487
575.073
533.177
485.344
478.708
445.793
1125.42
1127.35
1123.81
1098.74
1104.11
1101.86
1103.35
1098.27
1082.22
1081.12
1081
1073.64
1054
1050.39
1042.49
1042.46
1033.45
1010.29
1010.16
1000.26
1000.26
986.591
973.072
964.388
963.623
953.801
927.925
930.684
923.061
923.17
916.39
905.15
907.192
907.956
907.877
902.991
907.382
911.485
913.402
917.41
907.774
922.792
926.395
928.785
931.242
924.497
930.631
930.732
931.805
930.713
924.903
919.955
918.418
918.531
915.09
906.513
899.975
897.169
897.795
898.135
892.556
895.816
896.491
894.336
896.077
899.287
900.503
900.254
905.439
906.38
908.223
906.344
911.818
913.009
912.755
927.522
931.295
956.767
995.069
1030.41
1041.03
1056.62
1020.59
1016.04
933.423
863.364
853.177
795.212
761.418
757.108
729.468
713.845
712.346
699.065
691.772
691.853
685.102
685.145
687.607
699.273
704.246
737.714
847.887
863.733
998.89
1070.82
1088.11
1029.92
879.739
854.157
718.942
662.046
654.07
613.34
578.989
558.325
555.523
537.96
536.926
537.628
546.244
573.137
624.581
637.236
715.742
797.611
809.633
857.359
833.593
818.884
743.431
651.432
584.025
574.564
522.738
484.819
478.258
445.001
1018.16
1019.22
1016.75
1013.56
997.198
992.693
994.33
995.067
984.779
973.861
973.059
967.722
970.297
948.409
938.886
938.953
933.976
926.389
910.876
901.246
901.971
899.603
881.15
870.058
869.246
862.233
857.209
841.75
834.102
834.534
832.52
825.577
820.845
821.1
821.685
830.928
822.209
823.922
825.62
830.76
838.574
834.8
837.556
840.092
847.044
847.176
843.76
843.121
844.095
844.267
849.142
838.067
833.231
833.055
830.711
836.347
817.662
813.038
813.596
816.305
810.988
810.269
810.778
810.979
811.258
810.665
811.651
818.953
814.192
813.674
815.796
817.84
815.151
815.899
825.007
822.723
825.023
844.61
872.108
899.82
909.315
924.127
894.507
891.619
825.448
763.901
755.517
707.69
677.25
673.822
650.858
635.805
634.695
622.329
614.033
614.305
606.058
605.577
606.875
613.137
616.796
660.821
729.069
742.098
858.717
923.442
939.286
902.642
775.275
753.566
651.337
586.446
579.677