/*--------------------------------*- C++ -*----------------------------------*\
| =========                 |                                                 |
| \\      /  F ield         | OpenFOAM: The Open Source CFD Toolbox           |
|  \\    /   O peration     | Version:  v2012                                 |
|   \\  /    A nd           | Website:  www.openfoam.com                      |
|    \\/     M anipulation  |                                                 |
\*---------------------------------------------------------------------------*/
FoamFile
{
    version     2.0;
    format      ascii;
    class       volScalarField;
    location    "1e-06";
    object      p;
}
// * * * * * * * * * * * * * * * * * * * * * * * * * * * * * * * * * * * * * //

dimensions      [1 -1 -2 0 0 0 0];


internalField   nonuniform List<scalar> 
10178
(
447198
453424
463780
464251
468574
473843
476020
485430
490010
492951
499433
514590
520577
530372
545900
557012
570511
586922
606912
642146
665584
681771
715660
770100
810114
839844
896922
950097
1.03753e+06
1.10794e+06
1.16491e+06
1.25687e+06
1.37845e+06
1.48172e+06
1.56551e+06
1.6888e+06
1.80682e+06
1.95934e+06
2.08301e+06
2.1809e+06
2.31237e+06
2.44107e+06
2.57792e+06
2.70229e+06
2.80811e+06
2.94783e+06
3.05389e+06
3.15842e+06
3.2598e+06
3.35672e+06
3.44474e+06
3.52534e+06
3.60307e+06
3.65701e+06
3.71584e+06
3.7446e+06
3.74618e+06
3.73618e+06
3.71427e+06
3.64914e+06
3.56314e+06
3.47391e+06
3.3165e+06
3.1618e+06
2.98122e+06
2.83969e+06
2.64575e+06
2.42628e+06
2.2523e+06
2.19108e+06
2.03008e+06
1.8121e+06
1.8641e+06
1.76311e+06
1.54004e+06
1.63613e+06
1.57782e+06
1.42308e+06
1.43097e+06
1.4053e+06
1.41904e+06
1.39491e+06
1.30412e+06
1.32472e+06
1.39376e+06
1.25958e+06
1.25095e+06
1.35638e+06
1.22141e+06
1.21089e+06
1.29472e+06
1.18822e+06
1.17174e+06
1.2143e+06
1.16562e+06
1.11757e+06
1.16124e+06
1.10164e+06
972961
1.11688e+06
1.05183e+06
815641
999705
989829
847494
870903
909352
943403
800791
768372
903391
713433
679158
781704
723395
625277
606344
611277
588584
541697
458164
381577
514909
449383
285330
387507
374043
295566
265761
282468
301344
300746
165359
133925
223973
127751
60532.9
99584.6
447198
453425
463752
464413
468676
473833
476008
485430
490010
492943
499434
514588
520577
530372
545900
557007
570502
586922
606912
642142
665574
681760
715643
770094
810101
839830
896879
950072
1.0375e+06
1.10791e+06
1.16488e+06
1.25682e+06
1.37839e+06
1.48172e+06
1.56546e+06
1.68875e+06
1.80675e+06
1.9593e+06
2.08298e+06
2.18086e+06
2.31232e+06
2.44102e+06
2.57788e+06
2.70228e+06
2.80802e+06
2.94769e+06
3.05376e+06
3.15829e+06
3.25967e+06
3.35659e+06
3.44461e+06
3.52522e+06
3.60293e+06
3.65687e+06
3.71571e+06
3.74448e+06
3.74614e+06
3.73615e+06
3.71425e+06
3.64913e+06
3.56312e+06
3.47389e+06
3.31648e+06
3.16178e+06
2.9812e+06
2.83969e+06
2.64575e+06
2.42628e+06
2.2523e+06
2.19108e+06
2.03008e+06
1.8121e+06
1.8641e+06
1.76311e+06
1.54004e+06
1.63613e+06
1.57782e+06
1.42308e+06
1.43096e+06
1.4053e+06
1.41904e+06
1.39492e+06
1.30412e+06
1.32472e+06
1.39376e+06
1.25958e+06
1.25095e+06
1.35638e+06
1.22141e+06
1.21089e+06
1.29472e+06
1.18822e+06
1.17174e+06
1.2143e+06
1.16563e+06
1.11757e+06
1.16124e+06
1.10165e+06
972960
1.11688e+06
1.05183e+06
815639
999704
989836
847494
870903
909352
943404
800791
768373
903392
713433
679158
781705
723394
625276
606344
611277
588583
541731
458163
381574
514908
449382
285329
387506
374059
295597
265761
282468
301345
300746
165388
133926
223974
127750
60533.5
99586.2
447198
453428
463741
464188
468571
473808
476005
485430
490010
492942
499434
514588
520577
530360
545888
557000
570490
586908
606887
642119
665563
681746
715607
770058
810077
839814
896880
950024
1.03745e+06
1.10787e+06
1.16484e+06
1.25675e+06
1.37832e+06
1.48167e+06
1.5654e+06
1.68868e+06
1.80668e+06
1.95922e+06
2.08293e+06
2.18081e+06
2.31227e+06
2.44097e+06
2.57783e+06
2.70226e+06
2.80805e+06
2.94775e+06
3.05383e+06
3.15836e+06
3.25974e+06
3.35667e+06
3.4447e+06
3.5253e+06
3.60307e+06
3.65702e+06
3.71586e+06
3.74464e+06
3.7462e+06
3.73621e+06
3.71432e+06
3.64921e+06
3.56321e+06
3.47399e+06
3.31658e+06
3.16189e+06
2.9813e+06
2.83975e+06
2.64575e+06
2.42628e+06
2.2523e+06
2.19108e+06
2.03008e+06
1.81209e+06
1.8641e+06
1.76311e+06
1.54004e+06
1.63613e+06
1.57782e+06
1.42308e+06
1.43096e+06
1.4053e+06
1.41904e+06
1.39493e+06
1.30412e+06
1.32472e+06
1.39376e+06
1.25958e+06
1.25095e+06
1.35638e+06
1.22141e+06
1.21089e+06
1.29472e+06
1.18823e+06
1.17174e+06
1.2143e+06
1.16566e+06
1.11757e+06
1.16124e+06
1.10165e+06
972958
1.11688e+06
1.05183e+06
815637
999705
989836
847493
870903
909352
943405
800823
768374
903392
713471
679158
781707
723440
625298
606345
611279
588583
541730
458163
381572
514906
449380
285328
387507
374065
295596
265763
282468
301343
300749
165428
133925
223977
127751
60534.4
99587.9
447198
453431
463782
464359
468614
473799
476006
485422
490010
492941
499428
514588
520577
530353
545888
556992
570476
586905
606865
642113
665553
681734
715576
770045
810056
839806
896892
949987
1.0374e+06
1.10783e+06
1.16481e+06
1.25671e+06
1.37825e+06
1.48164e+06
1.56534e+06
1.68863e+06
1.80661e+06
1.95916e+06
2.08288e+06
2.18077e+06
2.31222e+06
2.44092e+06
2.5778e+06
2.70225e+06
2.80794e+06
2.94759e+06
3.05368e+06
3.15821e+06
3.2596e+06
3.35653e+06
3.44456e+06
3.52518e+06
3.60291e+06
3.65686e+06
3.71572e+06
3.74453e+06
3.74617e+06
3.73618e+06
3.7143e+06
3.64919e+06
3.56319e+06
3.47397e+06
3.31657e+06
3.16187e+06
2.98129e+06
2.83975e+06
2.64575e+06
2.42628e+06
2.2523e+06
2.19108e+06
2.03008e+06
1.81209e+06
1.8641e+06
1.7631e+06
1.54004e+06
1.63613e+06
1.57782e+06
1.42307e+06
1.43096e+06
1.4053e+06
1.41904e+06
1.39493e+06
1.30412e+06
1.32472e+06
1.39376e+06
1.25958e+06
1.25095e+06
1.35639e+06
1.22141e+06
1.21089e+06
1.29472e+06
1.18823e+06
1.17174e+06
1.2143e+06
1.16567e+06
1.11757e+06
1.16124e+06
1.10166e+06
972958
1.11687e+06
1.05184e+06
815636
999707
989836
847491
870904
909353
943404
800823
768376
903393
713485
679157
781709
723470
625297
606344
611280
588582
541768
458212
381572
514907
449380
285326
387508
374082
295595
265763
282468
301346
300750
165464
133922
223981
127748
60535.4
99590.8
447198
453431
463703
464269
468604
473777
476006
485412
490005
492936
499416
514579
520570
530341
545888
556992
570475
586905
606865
642114
665553
681734
715576
770045
810056
839807
896802
949987
1.0374e+06
1.10783e+06
1.16481e+06
1.25671e+06
1.37825e+06
1.48164e+06
1.56533e+06
1.68863e+06
1.80661e+06
1.95916e+06
2.08289e+06
2.18077e+06
2.31222e+06
2.44092e+06
2.5778e+06
2.70225e+06
2.80794e+06
2.94762e+06
3.05371e+06
3.15825e+06
3.25963e+06
3.35656e+06
3.44459e+06
3.5252e+06
3.60297e+06
3.65692e+06
3.71578e+06
3.74457e+06
3.74619e+06
3.73621e+06
3.71433e+06
3.64924e+06
3.56325e+06
3.47404e+06
3.31664e+06
3.16196e+06
2.98136e+06
2.83976e+06
2.64578e+06
2.42631e+06
2.25231e+06
2.19109e+06
2.03013e+06
1.81209e+06
1.8641e+06
1.76315e+06
1.54004e+06
1.63613e+06
1.57785e+06
1.42308e+06
1.43096e+06
1.4053e+06
1.41904e+06
1.39493e+06
1.30412e+06
1.3247e+06
1.39376e+06
1.25958e+06
1.25094e+06
1.35638e+06
1.22141e+06
1.21088e+06
1.29472e+06
1.18823e+06
1.17174e+06
1.2143e+06
1.16567e+06
1.11757e+06
1.16124e+06
1.10171e+06
972963
1.11688e+06
1.05191e+06
815642
999713
989849
847487
870884
909328
943397
800818
768375
903394
713482
679153
781705
723467
625297
606340
611281
588604
541810
458267
381578
514913
449458
285332
387510
374102
295591
265760
282454
301338
300750
165463
133916
223981
127743
60534.8
99595.1
447198
453433
463719
464264
468629
473748
476007
485412
490006
492937
499416
514579
520571
530328
545877
556979
570457
586902
606834
642082
665531
681706
715530
769997
810019
839764
896728
949918
1.03732e+06
1.10776e+06
1.16474e+06
1.25661e+06
1.37814e+06
1.48157e+06
1.56523e+06
1.68853e+06
1.8065e+06
1.95906e+06
2.08281e+06
2.1807e+06
2.31215e+06
2.44085e+06
2.57774e+06
2.70225e+06
2.80785e+06
2.94753e+06
3.05363e+06
3.15816e+06
3.25955e+06
3.35648e+06
3.44453e+06
3.52516e+06
3.60291e+06
3.65687e+06
3.71574e+06
3.74456e+06
3.74619e+06
3.73622e+06
3.71434e+06
3.64924e+06
3.56325e+06
3.47404e+06
3.31664e+06
3.16196e+06
2.98136e+06
2.83977e+06
2.64578e+06
2.42631e+06
2.25231e+06
2.19109e+06
2.03012e+06
1.81208e+06
1.8641e+06
1.76314e+06
1.54003e+06
1.63612e+06
1.57785e+06
1.42307e+06
1.43096e+06
1.4053e+06
1.41904e+06
1.39495e+06
1.30412e+06
1.3247e+06
1.39376e+06
1.25959e+06
1.25094e+06
1.3564e+06
1.22142e+06
1.21088e+06
1.29473e+06
1.18825e+06
1.17174e+06
1.2143e+06
1.1657e+06
1.11757e+06
1.16124e+06
1.10171e+06
972956
1.11687e+06
1.05191e+06
815631
999713
989847
847483
870887
909330
943402
800855
768381
903398
713526
679153
781715
723522
625322
606342
611285
588601
541808
458267
381569
514908
449453
285322
387510
374122
295590
265764
282456
301343
300756
165510
133915
223996
127739
60538.1
99601
447198
453435
463694
464343
468678
473715
476010
485402
490004
492937
499404
514574
520568
530314
545876
556969
570440
586902
606805
642077
665515
681683
715486
769979
809986
839753
896775
949864
1.03726e+06
1.1077e+06
1.1647e+06
1.25655e+06
1.37805e+06
1.48152e+06
1.56516e+06
1.68847e+06
1.80642e+06
1.95899e+06
2.08277e+06
2.18066e+06
2.31213e+06
2.44085e+06
2.57774e+06
2.70225e+06
2.80786e+06
2.94753e+06
3.05363e+06
3.15817e+06
3.25956e+06
3.35649e+06
3.44453e+06
3.52516e+06
3.60292e+06
3.65688e+06
3.71574e+06
3.74457e+06
3.7462e+06
3.73623e+06
3.71436e+06
3.64928e+06
3.5633e+06
3.47409e+06
3.3167e+06
3.16198e+06
2.98137e+06
2.83977e+06
2.64578e+06
2.42631e+06
2.25231e+06
2.19109e+06
2.03012e+06
1.81208e+06
1.8641e+06
1.76314e+06
1.54003e+06
1.63612e+06
1.57785e+06
1.42308e+06
1.43096e+06
1.4053e+06
1.41904e+06
1.39495e+06
1.30412e+06
1.32469e+06
1.39377e+06
1.25958e+06
1.25094e+06
1.3564e+06
1.22142e+06
1.21088e+06
1.29473e+06
1.18825e+06
1.17174e+06
1.2143e+06
1.1657e+06
1.11757e+06
1.16124e+06
1.10174e+06
972958
1.11687e+06
1.05199e+06
815631
999721
989854
847478
870889
909330
943398
800855
768382
903400
713526
679149
781712
723544
625322
606339
611288
588600
541852
458325
381570
514911
449511
285328
387513
374144
295586
265763
282456
301336
300758
165509
133908
224003
127733
60539.8
99608.2
447198
453439
463673
464261
468657
473657
475975
485391
490004
492928
499390
514569
520565
530298
545866
556954
570421
586880
606773
642057
665492
681654
715438
769936
809948
839731
896625
949798
1.03719e+06
1.10764e+06
1.16464e+06
1.25647e+06
1.37795e+06
1.48146e+06
1.56507e+06
1.68839e+06
1.80633e+06
1.95891e+06
2.08272e+06
2.18061e+06
2.3121e+06
2.44085e+06
2.57774e+06
2.70225e+06
2.80786e+06
2.9475e+06
3.05363e+06
3.15817e+06
3.25956e+06
3.35649e+06
3.44453e+06
3.52516e+06
3.60292e+06
3.65688e+06
3.71575e+06
3.74457e+06
3.74622e+06
3.73625e+06
3.71439e+06
3.64932e+06
3.56335e+06
3.47412e+06
3.31675e+06
3.16199e+06
2.98137e+06
2.83983e+06
2.64578e+06
2.42631e+06
2.25231e+06
2.19109e+06
2.03012e+06
1.81208e+06
1.86409e+06
1.76314e+06
1.54003e+06
1.63612e+06
1.57785e+06
1.42307e+06
1.43096e+06
1.4053e+06
1.41904e+06
1.39495e+06
1.30412e+06
1.32469e+06
1.39377e+06
1.25958e+06
1.25093e+06
1.3564e+06
1.22142e+06
1.21088e+06
1.29473e+06
1.18825e+06
1.17174e+06
1.2143e+06
1.1657e+06
1.11757e+06
1.16124e+06
1.10174e+06
972957
1.11687e+06
1.05199e+06
815627
999726
989853
847471
870892
909331
943396
800854
768386
903405
713525
679145
781717
723599
625320
606337
611293
588599
541868
458383
381568
514912
449509
285323
387515
374167
295581
265764
282456
301333
300764
165552
133901
224017
127721
60542.6
99617.4
447198
453442
463650
464255
468642
473622
475978
485380
490004
492937
499376
514564
520563
530282
545849
556939
570401
586857
606739
642028
665468
681623
715386
769885
809906
839700
896517
949725
1.03711e+06
1.10756e+06
1.16456e+06
1.25638e+06
1.37783e+06
1.48139e+06
1.56497e+06
1.6883e+06
1.80623e+06
1.95883e+06
2.08266e+06
2.18056e+06
2.31207e+06
2.44085e+06
2.57774e+06
2.70225e+06
2.80786e+06
2.94745e+06
3.05363e+06
3.15814e+06
3.25954e+06
3.35649e+06
3.44453e+06
3.52516e+06
3.60292e+06
3.65689e+06
3.71575e+06
3.74457e+06
3.74623e+06
3.73627e+06
3.71442e+06
3.64937e+06
3.56339e+06
3.47416e+06
3.3168e+06
3.16201e+06
2.98137e+06
2.83983e+06
2.64578e+06
2.42631e+06
2.25231e+06
2.19109e+06
2.03011e+06
1.81207e+06
1.86409e+06
1.76314e+06
1.54002e+06
1.63612e+06
1.57785e+06
1.42307e+06
1.43095e+06
1.4053e+06
1.41904e+06
1.39495e+06
1.30411e+06
1.32469e+06
1.39377e+06
1.25958e+06
1.25093e+06
1.35641e+06
1.22142e+06
1.21087e+06
1.29474e+06
1.18825e+06
1.17174e+06
1.2143e+06
1.16573e+06
1.11757e+06
1.16124e+06
1.10174e+06
972956
1.11687e+06
1.052e+06
815622
999735
989852
847463
870896
909332
943393
800854
768391
903410
713524
679139
781722
723657
625319
606335
611298
588596
541887
458444
381565
514914
449538
285319
387518
374192
295577
265765
282457
301330
300770
165583
133892
224032
127708
60546.4
99628.1
447198
453445
463621
464288
468667
473632
476074
485365
489997
492973
499359
514549
520553
530264
545850
556938
570381
586858
606733
642028
665466
681609
715381
769885
809889
839699
896530
949724
1.0371e+06
1.1075e+06
1.16456e+06
1.25638e+06
1.37776e+06
1.48139e+06
1.56492e+06
1.6883e+06
1.8062e+06
1.95883e+06
2.08266e+06
2.18056e+06
2.31207e+06
2.44085e+06
2.57774e+06
2.70226e+06
2.80786e+06
2.94745e+06
3.05364e+06
3.15815e+06
3.25955e+06
3.35649e+06
3.44454e+06
3.52517e+06
3.60292e+06
3.6569e+06
3.71576e+06
3.74458e+06
3.74625e+06
3.73629e+06
3.71445e+06
3.64942e+06
3.56345e+06
3.47423e+06
3.31688e+06
3.16208e+06
2.98143e+06
2.83984e+06
2.64582e+06
2.42635e+06
2.25232e+06
2.1911e+06
2.03018e+06
1.81207e+06
1.8641e+06
1.76321e+06
1.54003e+06
1.63612e+06
1.57791e+06
1.42307e+06
1.43095e+06
1.4053e+06
1.41904e+06
1.39494e+06
1.3041e+06
1.32466e+06
1.39377e+06
1.25957e+06
1.25092e+06
1.35641e+06
1.22141e+06
1.21086e+06
1.29474e+06
1.18824e+06
1.17173e+06
1.2143e+06
1.16572e+06
1.11756e+06
1.16124e+06
1.10181e+06
972965
1.11688e+06
1.0521e+06
815630
999753
989871
847451
870892
909300
943379
800853
768389
903413
713523
679127
781718
723653
625315
606326
611303
588620
541941
458519
381577
514929
449641
285327
387525
374221
295567
265759
282439
301316
300768
165582
133875
224043
127705
60546.4
99641
447198
453451
463595
464291
468685
473526
476058
485359
489998
492974
499359
514549
520552
530246
545830
556919
570356
586832
606691
641987
665434
681571
715319
769821
809838
839640
896449
949632
1.037e+06
1.10741e+06
1.16446e+06
1.25625e+06
1.37762e+06
1.48128e+06
1.56479e+06
1.68817e+06
1.80605e+06
1.95869e+06
2.08255e+06
2.18046e+06
2.31197e+06
2.44077e+06
2.57772e+06
2.70225e+06
2.80786e+06
2.94737e+06
3.05364e+06
3.1581e+06
3.25951e+06
3.35649e+06
3.44454e+06
3.52517e+06
3.60292e+06
3.6569e+06
3.71576e+06
3.74459e+06
3.74626e+06
3.73631e+06
3.71449e+06
3.64947e+06
3.5635e+06
3.47426e+06
3.31693e+06
3.16208e+06
2.98143e+06
2.83985e+06
2.64581e+06
2.42634e+06
2.25231e+06
2.1911e+06
2.03017e+06
1.81205e+06
1.86408e+06
1.7632e+06
1.54001e+06
1.63611e+06
1.57791e+06
1.42306e+06
1.43094e+06
1.4053e+06
1.41905e+06
1.39498e+06
1.3041e+06
1.32466e+06
1.39379e+06
1.25958e+06
1.25092e+06
1.35643e+06
1.22143e+06
1.21086e+06
1.29475e+06
1.18827e+06
1.17173e+06
1.2143e+06
1.16576e+06
1.11756e+06
1.16124e+06
1.1018e+06
972954
1.11686e+06
1.05209e+06
815609
999756
989866
847439
870897
909307
943387
800853
768404
903426
713578
679126
781735
723725
625346
606328
611312
588614
541941
458516
381559
514919
449625
285309
387527
374248
295561
265767
282444
301320
300786
165644
133870
224074
127689
60555.7
99656.9
447198
453459
463563
464298
468706
473434
476012
485345
489992
492958
499342
514535
520546
530226
545830
556901
570332
586815
606652
641955
665406
681534
715259
769761
809789
839594
896368
949555
1.0369e+06
1.10732e+06
1.16438e+06
1.25615e+06
1.37748e+06
1.48119e+06
1.56468e+06
1.68807e+06
1.80594e+06
1.9586e+06
2.0825e+06
2.18042e+06
2.31197e+06
2.44077e+06
2.57772e+06
2.70226e+06
2.80786e+06
2.94732e+06
3.05364e+06
3.15811e+06
3.25952e+06
3.35649e+06
3.44454e+06
3.52517e+06
3.60292e+06
3.65691e+06
3.71577e+06
3.74459e+06
3.74628e+06
3.73634e+06
3.71452e+06
3.64953e+06
3.56356e+06
3.47434e+06
3.31702e+06
3.16212e+06
2.98144e+06
2.83987e+06
2.64581e+06
2.42634e+06
2.25231e+06
2.1911e+06
2.03016e+06
1.81204e+06
1.86408e+06
1.7632e+06
1.54e+06
1.63611e+06
1.5779e+06
1.42306e+06
1.43094e+06
1.40529e+06
1.41905e+06
1.39498e+06
1.3041e+06
1.32465e+06
1.39379e+06
1.25958e+06
1.25091e+06
1.35644e+06
1.22142e+06
1.21085e+06
1.29476e+06
1.18826e+06
1.17173e+06
1.2143e+06
1.16576e+06
1.11756e+06
1.16124e+06
1.10184e+06
972956
1.11686e+06
1.05219e+06
815606
999773
989869
847426
870901
909308
943378
800852
768408
903434
713574
679115
781739
723773
625341
606323
611321
588613
541994
458591
381560
514926
449727
285308
387534
374279
295553
265767
282445
301310
300789
165643
133853
224097
127688
60560.9
99674.4
447198
453468
463528
464308
468731
473386
476019
485331
489985
492958
499324
514519
520538
530205
545814
556881
570306
586793
606610
641913
665374
681495
715195
769695
809736
839536
896282
949466
1.03679e+06
1.10723e+06
1.16428e+06
1.25602e+06
1.37733e+06
1.48108e+06
1.56456e+06
1.68796e+06
1.80581e+06
1.95851e+06
2.08243e+06
2.18037e+06
2.31197e+06
2.44077e+06
2.57771e+06
2.70226e+06
2.80786e+06
2.94727e+06
3.05364e+06
3.15811e+06
3.25952e+06
3.3565e+06
3.44454e+06
3.52518e+06
3.60292e+06
3.65692e+06
3.71578e+06
3.7446e+06
3.74631e+06
3.73637e+06
3.71456e+06
3.64959e+06
3.56363e+06
3.47442e+06
3.31713e+06
3.16216e+06
2.98145e+06
2.83988e+06
2.6458e+06
2.42634e+06
2.25231e+06
2.1911e+06
2.03015e+06
1.81203e+06
1.86407e+06
1.76319e+06
1.53999e+06
1.6361e+06
1.5779e+06
1.42305e+06
1.43093e+06
1.40529e+06
1.41905e+06
1.39498e+06
1.30409e+06
1.32465e+06
1.3938e+06
1.25957e+06
1.2509e+06
1.35646e+06
1.22142e+06
1.21085e+06
1.29476e+06
1.18826e+06
1.17172e+06
1.2143e+06
1.16576e+06
1.11756e+06
1.16124e+06
1.10184e+06
972955
1.11685e+06
1.05229e+06
815597
999788
989866
847408
870906
909309
943374
800846
768418
903446
713571
679105
781749
723842
625341
606318
611331
588612
541994
458665
381556
514929
449725
285300
387541
374311
295543
265769
282447
301303
300803
165659
133836
224128
127663
60568.6
99695
447198
453480
463490
464317
468757
473318
476022
485316
489977
492958
499305
514501
520530
530183
545800
556861
570278
586769
606565
641869
665341
681453
715127
769626
809680
839473
896190
949375
1.03668e+06
1.10712e+06
1.16418e+06
1.25589e+06
1.37718e+06
1.48096e+06
1.56442e+06
1.68785e+06
1.80568e+06
1.95841e+06
2.08236e+06
2.18033e+06
2.31197e+06
2.44077e+06
2.57771e+06
2.70226e+06
2.80786e+06
2.94721e+06
3.05364e+06
3.15811e+06
3.25952e+06
3.3565e+06
3.44454e+06
3.52518e+06
3.60292e+06
3.65693e+06
3.71579e+06
3.74461e+06
3.74633e+06
3.7364e+06
3.71461e+06
3.64966e+06
3.5637e+06
3.4745e+06
3.31723e+06
3.16221e+06
2.98147e+06
2.8399e+06
2.6458e+06
2.42633e+06
2.25231e+06
2.1911e+06
2.03014e+06
1.81202e+06
1.86406e+06
1.76318e+06
1.53999e+06
1.63609e+06
1.5779e+06
1.42305e+06
1.43092e+06
1.40529e+06
1.41905e+06
1.39497e+06
1.30408e+06
1.32465e+06
1.39381e+06
1.25957e+06
1.25089e+06
1.35648e+06
1.22141e+06
1.21084e+06
1.29477e+06
1.18826e+06
1.17172e+06
1.2143e+06
1.16576e+06
1.11756e+06
1.16123e+06
1.10185e+06
972956
1.11685e+06
1.05239e+06
815590
999810
989866
847389
870912
909310
943365
800845
768425
903458
713571
679091
781758
723911
625335
606311
611343
588610
542009
458745
381554
514936
449753
285295
387551
374347
295533
265770
282449
301291
300810
165657
133815
224161
127661
60576.9
99717.9
447199
453494
463448
464327
468786
473247
476025
485301
489969
492958
499286
514482
520519
530159
545781
556838
570248
586740
606518
641822
665305
681408
715056
769553
809620
839405
896092
949275
1.03655e+06
1.10702e+06
1.16407e+06
1.25574e+06
1.37701e+06
1.48084e+06
1.56428e+06
1.68772e+06
1.80553e+06
1.9583e+06
2.08229e+06
2.18029e+06
2.31196e+06
2.44077e+06
2.57771e+06
2.70226e+06
2.80787e+06
2.94714e+06
3.05364e+06
3.15811e+06
3.25953e+06
3.3565e+06
3.44455e+06
3.52519e+06
3.60292e+06
3.65695e+06
3.7158e+06
3.74463e+06
3.74637e+06
3.73644e+06
3.71466e+06
3.64973e+06
3.56378e+06
3.4746e+06
3.31735e+06
3.16226e+06
2.98149e+06
2.83992e+06
2.6458e+06
2.42633e+06
2.2523e+06
2.19109e+06
2.03013e+06
1.812e+06
1.86405e+06
1.76318e+06
1.53997e+06
1.63608e+06
1.57789e+06
1.42304e+06
1.43091e+06
1.40529e+06
1.41905e+06
1.39497e+06
1.30407e+06
1.32465e+06
1.39382e+06
1.25957e+06
1.25087e+06
1.3565e+06
1.22141e+06
1.21083e+06
1.29478e+06
1.18826e+06
1.17172e+06
1.2143e+06
1.16576e+06
1.11756e+06
1.16123e+06
1.10185e+06
972956
1.11684e+06
1.0525e+06
815579
999830
989862
847365
870918
909311
943358
800844
768438
903474
713565
679077
781771
723985
625328
606304
611357
588608
542007
458828
381549
514941
449750
285284
387560
374384
295520
265772
282454
301282
300826
165656
133794
224201
127624
60587.8
99744.6
447199
453505
463403
464342
468817
473158
476029
485285
489959
492958
499265
514461
520510
530134
545761
556815
570216
586706
606469
641773
665266
681361
714981
769475
809557
839334
895988
949173
1.03642e+06
1.1069e+06
1.16395e+06
1.25559e+06
1.37684e+06
1.4807e+06
1.56414e+06
1.68759e+06
1.80538e+06
1.95819e+06
2.08221e+06
2.18027e+06
2.31196e+06
2.44076e+06
2.57771e+06
2.70226e+06
2.80787e+06
2.94706e+06
3.05364e+06
3.15811e+06
3.25953e+06
3.35651e+06
3.44455e+06
3.5252e+06
3.60292e+06
3.65696e+06
3.71581e+06
3.74464e+06
3.7464e+06
3.73648e+06
3.71471e+06
3.64981e+06
3.56386e+06
3.47469e+06
3.31747e+06
3.16232e+06
2.98151e+06
2.83995e+06
2.6458e+06
2.42632e+06
2.2523e+06
2.19109e+06
2.03012e+06
1.81198e+06
1.86404e+06
1.76317e+06
1.53996e+06
1.63608e+06
1.57789e+06
1.42304e+06
1.4309e+06
1.40529e+06
1.41905e+06
1.39497e+06
1.30406e+06
1.32465e+06
1.39383e+06
1.25956e+06
1.25086e+06
1.35652e+06
1.2214e+06
1.21081e+06
1.2948e+06
1.18826e+06
1.17171e+06
1.2143e+06
1.16576e+06
1.11756e+06
1.16123e+06
1.10185e+06
972957
1.11683e+06
1.05262e+06
815569
999857
989861
847341
870924
909314
943346
800836
768448
903490
713556
679059
781784
724059
625328
606296
611372
588605
542007
458916
381547
514949
449784
285277
387573
374424
295507
265774
282457
301267
300839
165653
133767
224245
127598
60599.7
99773.9
447200
453520
463355
464358
468850
473060
476033
485269
489949
492957
499243
514439
520497
530108
545746
556790
570182
586712
606417
641722
665226
681310
714902
769395
809491
839258
895878
949064
1.03629e+06
1.10678e+06
1.16383e+06
1.25542e+06
1.37666e+06
1.48056e+06
1.56398e+06
1.68745e+06
1.80523e+06
1.95809e+06
2.08215e+06
2.18026e+06
2.31196e+06
2.44076e+06
2.57771e+06
2.70226e+06
2.80788e+06
2.94706e+06
3.05364e+06
3.15811e+06
3.25954e+06
3.35651e+06
3.44456e+06
3.5252e+06
3.60293e+06
3.65697e+06
3.71582e+06
3.74466e+06
3.74644e+06
3.73653e+06
3.71476e+06
3.6499e+06
3.56396e+06
3.4748e+06
3.3176e+06
3.1624e+06
2.98154e+06
2.83997e+06
2.64579e+06
2.42632e+06
2.25229e+06
2.19109e+06
2.03011e+06
1.81197e+06
1.86403e+06
1.76316e+06
1.53995e+06
1.63607e+06
1.57788e+06
1.42303e+06
1.43089e+06
1.40528e+06
1.41905e+06
1.39497e+06
1.30405e+06
1.32465e+06
1.39384e+06
1.25956e+06
1.25084e+06
1.35654e+06
1.2214e+06
1.2108e+06
1.29481e+06
1.18826e+06
1.1717e+06
1.2143e+06
1.16575e+06
1.11755e+06
1.16123e+06
1.10187e+06
972961
1.11683e+06
1.05275e+06
815560
999887
989859
847310
870931
909315
943333
800825
768460
903509
713555
679038
781797
724121
625317
606286
611389
588603
542023
459011
381546
514960
449832
285267
387587
374467
295490
265775
282461
301250
300854
165647
133737
224294
127596
60613.3
99807.5
447205
453535
463307
464379
468886
472968
476041
485269
489948
492959
499243
514420
520491
530079
545717
556760
570141
586730
606355
641661
665176
681249
714809
769301
809411
839167
895756
948933
1.03613e+06
1.10664e+06
1.16369e+06
1.25522e+06
1.37646e+06
1.48039e+06
1.5638e+06
1.68725e+06
1.80501e+06
1.95789e+06
2.08198e+06
2.1801e+06
2.31185e+06
2.44065e+06
2.57767e+06
2.70225e+06
2.80789e+06
2.94699e+06
3.05364e+06
3.15811e+06
3.25954e+06
3.35652e+06
3.44456e+06
3.52522e+06
3.60293e+06
3.65699e+06
3.71583e+06
3.74468e+06
3.74648e+06
3.73658e+06
3.71482e+06
3.64999e+06
3.56405e+06
3.4749e+06
3.31773e+06
3.16243e+06
2.98154e+06
2.84e+06
2.64578e+06
2.42631e+06
2.25229e+06
2.19108e+06
2.03009e+06
1.81192e+06
1.86399e+06
1.76313e+06
1.53991e+06
1.63603e+06
1.57786e+06
1.423e+06
1.43086e+06
1.40528e+06
1.41906e+06
1.39502e+06
1.30405e+06
1.32467e+06
1.39388e+06
1.25957e+06
1.25084e+06
1.35659e+06
1.22142e+06
1.2108e+06
1.29484e+06
1.18829e+06
1.17171e+06
1.21431e+06
1.1658e+06
1.11756e+06
1.16122e+06
1.10187e+06
972940
1.11678e+06
1.05272e+06
815519
999893
989844
847276
870951
909324
943349
800824
768497
903546
713634
679034
781837
724224
625359
606289
611413
588591
542020
458999
381507
514932
449817
285228
387593
374503
295474
265795
282478
301256
300900
165736
133723
224366
127581
60641.6
99845.5
447206
453550
463246
464398
468923
472859
476044
485245
489931
492947
499214
514391
520473
530049
545716
556734
570106
586730
606322
641659
665136
681200
714746
769280
809343
839143
895636
948932
1.03599e+06
1.10651e+06
1.16365e+06
1.25507e+06
1.37637e+06
1.48029e+06
1.56375e+06
1.68722e+06
1.80501e+06
1.95789e+06
2.08199e+06
2.1801e+06
2.31186e+06
2.44065e+06
2.57767e+06
2.70226e+06
2.8079e+06
2.94688e+06
3.05365e+06
3.15812e+06
3.25955e+06
3.35652e+06
3.44457e+06
3.52523e+06
3.60293e+06
3.657e+06
3.71584e+06
3.7447e+06
3.74653e+06
3.73664e+06
3.71489e+06
3.65009e+06
3.56416e+06
3.47503e+06
3.31788e+06
3.16257e+06
2.98164e+06
2.84005e+06
2.64589e+06
2.42636e+06
2.25229e+06
2.19109e+06
2.03016e+06
1.81193e+06
1.86401e+06
1.76325e+06
1.53993e+06
1.63605e+06
1.57796e+06
1.42302e+06
1.43087e+06
1.40528e+06
1.41905e+06
1.395e+06
1.30401e+06
1.32461e+06
1.39387e+06
1.25955e+06
1.2508e+06
1.3566e+06
1.22141e+06
1.21076e+06
1.29484e+06
1.18828e+06
1.17169e+06
1.2143e+06
1.1658e+06
1.11755e+06
1.16122e+06
1.10197e+06
972969
1.11681e+06
1.0529e+06
815538
999960
989887
847241
870960
909273
943302
800782
768489
903553
713601
678989
781832
724203
625334
606262
611431
588589
542103
459129
381543
514980
449991
285244
387624
374560
295449
265781
282449
301210
300892
165710
133666
224413
127562
60649.4
99884.4
447209
453558
463187
464421
468962
472754
476050
485227
489918
492947
499189
514364
520455
530017
545686
556703
570064
586680
606260
641596
665083
681137
714651
769181
809258
839051
895502
948797
1.03583e+06
1.10636e+06
1.1635e+06
1.25485e+06
1.37617e+06
1.4801e+06
1.56356e+06
1.68703e+06
1.8048e+06
1.95772e+06
2.08186e+06
2.18004e+06
2.31185e+06
2.44065e+06
2.57767e+06
2.70226e+06
2.8079e+06
2.94675e+06
3.05366e+06
3.15812e+06
3.25956e+06
3.35653e+06
3.44457e+06
3.52524e+06
3.60294e+06
3.65702e+06
3.71585e+06
3.74472e+06
3.74659e+06
3.7367e+06
3.71496e+06
3.65019e+06
3.56427e+06
3.47515e+06
3.31803e+06
3.16266e+06
2.98168e+06
2.84005e+06
2.64589e+06
2.42635e+06
2.25229e+06
2.19108e+06
2.03014e+06
1.8119e+06
1.86399e+06
1.76324e+06
1.53991e+06
1.63602e+06
1.57795e+06
1.423e+06
1.43084e+06
1.40527e+06
1.41906e+06
1.395e+06
1.304e+06
1.32461e+06
1.39389e+06
1.25954e+06
1.25078e+06
1.35664e+06
1.2214e+06
1.21074e+06
1.29486e+06
1.18828e+06
1.17168e+06
1.21431e+06
1.1658e+06
1.11755e+06
1.16122e+06
1.10197e+06
972968
1.11679e+06
1.05293e+06
815517
999993
989880
847195
870972
909278
943293
800772
768516
903589
713597
678966
781861
724297
625325
606252
611457
588582
542100
459232
381531
514982
449983
285219
387642
374609
295426
265790
282457
301196
300926
165709
133632
224488
127543
60675.9
99931.3
447211
453578
463124
464447
469002
472639
476057
485206
489904
492946
499162
514335
520435
529983
545656
556670
570019
586640
606195
641531
665029
681071
714552
769079
809170
838954
895361
948659
1.03566e+06
1.1062e+06
1.16335e+06
1.25463e+06
1.37596e+06
1.47992e+06
1.56337e+06
1.68684e+06
1.8046e+06
1.95758e+06
2.08176e+06
2.17999e+06
2.31185e+06
2.44064e+06
2.57767e+06
2.70227e+06
2.80792e+06
2.94665e+06
3.05366e+06
3.15813e+06
3.25957e+06
3.35654e+06
3.44458e+06
3.52526e+06
3.60294e+06
3.65704e+06
3.71586e+06
3.74475e+06
3.74665e+06
3.73677e+06
3.71504e+06
3.65031e+06
3.56439e+06
3.47529e+06
3.3182e+06
3.16277e+06
2.98173e+06
2.8402e+06
2.64588e+06
2.42634e+06
2.25228e+06
2.19107e+06
2.03012e+06
1.81187e+06
1.86397e+06
1.76322e+06
1.53989e+06
1.63601e+06
1.57794e+06
1.42299e+06
1.43082e+06
1.40527e+06
1.41906e+06
1.395e+06
1.30398e+06
1.32461e+06
1.39391e+06
1.25953e+06
1.25075e+06
1.35668e+06
1.22139e+06
1.21072e+06
1.29488e+06
1.18828e+06
1.17167e+06
1.21431e+06
1.16579e+06
1.11755e+06
1.16121e+06
1.10196e+06
972973
1.11678e+06
1.05308e+06
815502
1.00004e+06
989878
847150
870985
909281
943271
800756
768534
903617
713594
678932
781884
724295
625311
606236
611485
588573
542097
459346
381529
514995
450133
285204
387669
374665
295403
265795
282465
301168
300951
165701
133586
224567
127488
60702.4
99980.7
447214
453597
463058
464475
469043
472512
476064
485184
489890
492945
499134
514304
520414
529947
545623
556635
569971
586597
606125
641462
664971
681000
714447
768970
809076
838850
895210
948511
1.03547e+06
1.10602e+06
1.16319e+06
1.2544e+06
1.37573e+06
1.47972e+06
1.56316e+06
1.68663e+06
1.80438e+06
1.95742e+06
2.08165e+06
2.17995e+06
2.31184e+06
2.44063e+06
2.57766e+06
2.70227e+06
2.80793e+06
2.94654e+06
3.05367e+06
3.15813e+06
3.25958e+06
3.35654e+06
3.44459e+06
3.52528e+06
3.60295e+06
3.65707e+06
3.71588e+06
3.74478e+06
3.74671e+06
3.73685e+06
3.71513e+06
3.65043e+06
3.56452e+06
3.47543e+06
3.31838e+06
3.1629e+06
2.98178e+06
2.84023e+06
2.64588e+06
2.42633e+06
2.25227e+06
2.19107e+06
2.03009e+06
1.81184e+06
1.86395e+06
1.7632e+06
1.53987e+06
1.63598e+06
1.57793e+06
1.42298e+06
1.4308e+06
1.40526e+06
1.41906e+06
1.39499e+06
1.30396e+06
1.32461e+06
1.39394e+06
1.25952e+06
1.25072e+06
1.35673e+06
1.22138e+06
1.21069e+06
1.29491e+06
1.18828e+06
1.17166e+06
1.21431e+06
1.16579e+06
1.11754e+06
1.16121e+06
1.10196e+06
972978
1.11676e+06
1.05323e+06
815483
1.00009e+06
989871
847093
871001
909286
943252
800746
768563
903656
713587
678899
781915
724365
625297
606220
611516
588561
542094
459464
381522
515004
450129
285179
387695
374721
295374
265802
282474
301144
300986
165696
133540
224657
127416
60735.6
100036
447218
453613
462987
464507
469084
472382
476070
485160
489876
492944
499105
514271
520392
529909
545589
556598
569920