/*--------------------------------*- C++ -*----------------------------------*\
| =========                 |                                                 |
| \\      /  F ield         | OpenFOAM: The Open Source CFD Toolbox           |
|  \\    /   O peration     | Version:  v2012                                 |
|   \\  /    A nd           | Website:  www.openfoam.com                      |
|    \\/     M anipulation  |                                                 |
\*---------------------------------------------------------------------------*/
FoamFile
{
    version     2.0;
    format      ascii;
    class       volScalarField;
    location    "1e-06";
    object      p_rgh;
}
// * * * * * * * * * * * * * * * * * * * * * * * * * * * * * * * * * * * * * //

dimensions      [1 -1 -2 0 0 0 0];


internalField   nonuniform List<scalar> 
10178
(
444902
451098
461426
461868
466161
471400
473546
482925
487473
490382
496832
511956
517909
527670
543163
554240
567703
584079
604031
639228
662628
678776
712627
767028
807001
836690
893727
946859
1.03425e+06
1.10461e+06
1.16154e+06
1.25346e+06
1.37499e+06
1.47821e+06
1.56196e+06
1.6852e+06
1.80317e+06
1.95565e+06
2.07927e+06
2.1771e+06
2.30853e+06
2.43717e+06
2.57397e+06
2.69829e+06
2.80405e+06
2.94372e+06
3.04972e+06
3.15419e+06
3.25551e+06
3.35238e+06
3.44033e+06
3.52087e+06
3.59854e+06
3.65242e+06
3.71119e+06
3.73988e+06
3.7414e+06
3.73133e+06
3.70935e+06
3.64416e+06
3.55809e+06
3.46878e+06
3.3113e+06
3.15653e+06
2.97587e+06
2.83427e+06
2.64025e+06
2.4207e+06
2.24665e+06
2.18535e+06
2.02427e+06
1.8062e+06
1.85812e+06
1.75704e+06
1.53389e+06
1.62989e+06
1.5715e+06
1.41668e+06
1.4245e+06
1.39876e+06
1.41242e+06
1.38822e+06
1.29736e+06
1.31788e+06
1.38684e+06
1.25259e+06
1.24389e+06
1.34925e+06
1.2142e+06
1.2036e+06
1.28736e+06
1.18078e+06
1.16423e+06
1.20672e+06
1.15796e+06
1.10984e+06
1.15344e+06
1.09376e+06
965009
1.10885e+06
1.04373e+06
807467
991456
981507
839097
862431
900807
934783
792097
759604
894549
704517
670168
772640
714256
616063
597057
601915
579148
532187
448579
371918
505176
439576
275449
377551
364013
285462
255583
272215
291017
290345
154884
123376
213350
117053
49761.2
88738.7
444902
451100
461399
462030
466263
471390
473535
482925
487474
490375
496832
511954
517909
527670
543163
554235
567694
584079
604032
639225
662618
678766
712610
767021
806988
836676
893684
946835
1.03422e+06
1.10459e+06
1.16151e+06
1.25341e+06
1.37493e+06
1.47821e+06
1.56191e+06
1.68515e+06
1.80311e+06
1.9556e+06
2.07923e+06
2.17707e+06
2.30848e+06
2.43712e+06
2.57393e+06
2.69828e+06
2.80396e+06
2.94357e+06
3.04958e+06
3.15406e+06
3.25538e+06
3.35225e+06
3.44021e+06
3.52075e+06
3.5984e+06
3.65228e+06
3.71106e+06
3.73976e+06
3.74136e+06
3.7313e+06
3.70933e+06
3.64414e+06
3.55807e+06
3.46876e+06
3.31128e+06
3.15651e+06
2.97585e+06
2.83426e+06
2.64025e+06
2.4207e+06
2.24665e+06
2.18535e+06
2.02427e+06
1.8062e+06
1.85812e+06
1.75704e+06
1.53389e+06
1.62989e+06
1.5715e+06
1.41668e+06
1.4245e+06
1.39876e+06
1.41243e+06
1.38823e+06
1.29736e+06
1.31788e+06
1.38684e+06
1.25259e+06
1.24389e+06
1.34925e+06
1.2142e+06
1.2036e+06
1.28736e+06
1.18078e+06
1.16423e+06
1.20672e+06
1.15798e+06
1.10984e+06
1.15344e+06
1.09377e+06
965009
1.10885e+06
1.04373e+06
807464
991456
981513
839097
862431
900807
934784
792097
759605
894549
704517
670168
772640
714255
616063
597057
601915
579147
532221
448579
371916
505176
439575
275448
377551
364029
285493
255583
272215
291018
290346
154913
123377
213351
117053
49761.9
88740.3
444902
451103
461387
461805
466159
471365
473531
482925
487474
490373
496832
511954
517909
527658
543152
554229
567682
584064
604007
639201
662607
678752
712574
766985
806964
836660
893684
946787
1.03417e+06
1.10454e+06
1.16147e+06
1.25334e+06
1.37486e+06
1.47817e+06
1.56185e+06
1.68508e+06
1.80303e+06
1.95553e+06
2.07918e+06
2.17702e+06
2.30842e+06
2.43707e+06
2.57388e+06
2.69825e+06
2.80399e+06
2.94363e+06
3.04966e+06
3.15413e+06
3.25546e+06
3.35233e+06
3.44029e+06
3.52083e+06
3.59854e+06
3.65243e+06
3.71121e+06
3.73992e+06
3.74142e+06
3.73136e+06
3.7094e+06
3.64422e+06
3.55816e+06
3.46886e+06
3.31139e+06
3.15662e+06
2.97595e+06
2.83433e+06
2.64025e+06
2.4207e+06
2.24665e+06
2.18535e+06
2.02426e+06
1.8062e+06
1.85812e+06
1.75704e+06
1.53389e+06
1.62989e+06
1.5715e+06
1.41668e+06
1.4245e+06
1.39876e+06
1.41243e+06
1.38824e+06
1.29736e+06
1.31788e+06
1.38685e+06
1.2526e+06
1.24389e+06
1.34925e+06
1.2142e+06
1.2036e+06
1.28736e+06
1.1808e+06
1.16424e+06
1.20672e+06
1.158e+06
1.10984e+06
1.15344e+06
1.09377e+06
965006
1.10885e+06
1.04373e+06
807462
991456
981513
839096
862432
900807
934785
792129
759606
894550
704554
670168
772642
714301
616085
597057
601917
579147
532220
448579
371914
505174
439573
275447
377552
364035
285492
255585
272216
291017
290348
154953
123376
213354
117053
49762.7
88742
444902
451106
461429
461976
466201
471356
473533
482917
487473
490373
496827
511954
517909
527651
543152
554221
567669
584061
603984
639196
662597
678739
712543
766972
806943
836652
893696
946749
1.03412e+06
1.1045e+06
1.16144e+06
1.2533e+06
1.37479e+06
1.47814e+06
1.56179e+06
1.68503e+06
1.80296e+06
1.95546e+06
2.07914e+06
2.17698e+06
2.30837e+06
2.43702e+06
2.57384e+06
2.69824e+06
2.80388e+06
2.94348e+06
3.0495e+06
3.15398e+06
3.25531e+06
3.35218e+06
3.44016e+06
3.52071e+06
3.59839e+06
3.65227e+06
3.71106e+06
3.73981e+06
3.74138e+06
3.73133e+06
3.70938e+06
3.6442e+06
3.55813e+06
3.46884e+06
3.31137e+06
3.1566e+06
2.97594e+06
2.83433e+06
2.64025e+06
2.4207e+06
2.24665e+06
2.18535e+06
2.02426e+06
1.80619e+06
1.85812e+06
1.75704e+06
1.53389e+06
1.62989e+06
1.5715e+06
1.41668e+06
1.4245e+06
1.39876e+06
1.41243e+06
1.38824e+06
1.29736e+06
1.31788e+06
1.38685e+06
1.2526e+06
1.24388e+06
1.34925e+06
1.2142e+06
1.2036e+06
1.28736e+06
1.1808e+06
1.16423e+06
1.20672e+06
1.15801e+06
1.10984e+06
1.15344e+06
1.09378e+06
965007
1.10885e+06
1.04374e+06
807462
991458
981513
839094
862432
900807
934784
792129
759608
894551
704568
670166
772644
714331
616084
597057
601918
579146
532258
448628
371913
505174
439573
275445
377552
364053
285491
255585
272216
291019
290350
154989
123373
213358
117050
49763.7
88744.9
444901
451106
461349
461886
466191
471334
473532
482907
487469
490367
496815
511945
517903
527639
543152
554220
567667
584061
603984
639196
662597
678739
712543
766973
806943
836653
893607
946750
1.03412e+06
1.1045e+06
1.16144e+06
1.2533e+06
1.37479e+06
1.47814e+06
1.56177e+06
1.68503e+06
1.80296e+06
1.95546e+06
2.07914e+06
2.17698e+06
2.30837e+06
2.43702e+06
2.57385e+06
2.69825e+06
2.80388e+06
2.9435e+06
3.04954e+06
3.15402e+06
3.25534e+06
3.35221e+06
3.44018e+06
3.52073e+06
3.59844e+06
3.65233e+06
3.71112e+06
3.73985e+06
3.74141e+06
3.73136e+06
3.70942e+06
3.64425e+06
3.5582e+06
3.46892e+06
3.31144e+06
3.15668e+06
2.97601e+06
2.83434e+06
2.64029e+06
2.42074e+06
2.24666e+06
2.18536e+06
2.02431e+06
1.8062e+06
1.85812e+06
1.75709e+06
1.53389e+06
1.62989e+06
1.57153e+06
1.41669e+06
1.42449e+06
1.39876e+06
1.41242e+06
1.38824e+06
1.29735e+06
1.31786e+06
1.38685e+06
1.25259e+06
1.24388e+06
1.34925e+06
1.2142e+06
1.2036e+06
1.28736e+06
1.1808e+06
1.16423e+06
1.20672e+06
1.15801e+06
1.10984e+06
1.15344e+06
1.09383e+06
965011
1.10885e+06
1.04381e+06
807467
991465
981526
839090
862413
900783
934778
792124
759606
894551
704566
670162
772640
714328
616084
597053
601919
579168
532300
448683
371919
505181
439651
275451
377554
364073
285487
255582
272202
291012
290349
154988
123367
213358
117045
49763.1
88749.2
444901
451108
461365
461881
466216
471305
473533
482907
487470
490368
496815
511945
517903
527626
543140
554207
567649
584058
603954
639164
662575
678712
712497
766924
806906
836610
893533
946681
1.03404e+06
1.10444e+06
1.16137e+06
1.2532e+06
1.37468e+06
1.47806e+06
1.56168e+06
1.68493e+06
1.80285e+06
1.95536e+06
2.07907e+06
2.17691e+06
2.3083e+06
2.43695e+06
2.57379e+06
2.69825e+06
2.80379e+06
2.94342e+06
3.04946e+06
3.15393e+06
3.25526e+06
3.35214e+06
3.44012e+06
3.52069e+06
3.59839e+06
3.65228e+06
3.71109e+06
3.73985e+06
3.74141e+06
3.73137e+06
3.70942e+06
3.64425e+06
3.55819e+06
3.46891e+06
3.31144e+06
3.15668e+06
2.97601e+06
2.83434e+06
2.64029e+06
2.42074e+06
2.24666e+06
2.18536e+06
2.02431e+06
1.80619e+06
1.85812e+06
1.75708e+06
1.53388e+06
1.62988e+06
1.57153e+06
1.41668e+06
1.42449e+06
1.39876e+06
1.41243e+06
1.38826e+06
1.29736e+06
1.31786e+06
1.38685e+06
1.2526e+06
1.24388e+06
1.34926e+06
1.21421e+06
1.2036e+06
1.28737e+06
1.18082e+06
1.16423e+06
1.20672e+06
1.15804e+06
1.10984e+06
1.15344e+06
1.09383e+06
965005
1.10884e+06
1.04381e+06
807456
991465
981524
839086
862416
900785
934782
792161
759613
894556
704610
670163
772650
714383
616109
597055
601923
579166
532297
448683
371910
505175
439646
275441
377555
364092
285486
255586
272204
291016
290356
155035
123366
213373
117042
49766.4
88755.1
444901
451110
461340
461960
466265
471271
473536
482897
487468
490368
496802
511940
517900
527612
543139
554197
567632
584058
603924
639159
662559
678689
712453
766906
806872
836599
893579
946627
1.03398e+06
1.10438e+06
1.16133e+06
1.25314e+06
1.37459e+06
1.47802e+06
1.56161e+06
1.68487e+06
1.80277e+06
1.9553e+06
2.07902e+06
2.17687e+06
2.30828e+06
2.43695e+06
2.57379e+06
2.69825e+06
2.8038e+06
2.94342e+06
3.04946e+06
3.15394e+06
3.25527e+06
3.35214e+06
3.44013e+06
3.52069e+06
3.59839e+06
3.65229e+06
3.71109e+06
3.73985e+06
3.74142e+06
3.73138e+06
3.70945e+06
3.64429e+06
3.55824e+06
3.46896e+06
3.3115e+06
3.1567e+06
2.97602e+06
2.83435e+06
2.64029e+06
2.42073e+06
2.24666e+06
2.18536e+06
2.02431e+06
1.80618e+06
1.85812e+06
1.75708e+06
1.53388e+06
1.62988e+06
1.57153e+06
1.41668e+06
1.42449e+06
1.39876e+06
1.41243e+06
1.38826e+06
1.29735e+06
1.31785e+06
1.38685e+06
1.2526e+06
1.24388e+06
1.34926e+06
1.21421e+06
1.2036e+06
1.28737e+06
1.18081e+06
1.16423e+06
1.20672e+06
1.15804e+06
1.10984e+06
1.15344e+06
1.09386e+06
965006
1.10885e+06
1.04389e+06
807457
991472
981532
839081
862417
900785
934778
792161
759614
894558
704609
670158
772647
714405
616109
597052
601926
579164
532342
448741
371912
505179
439704
275447
377557
364114
285482
255585
272204
291009
290358
155034
123359
213380
117036
49768.1
88762.3
444901
451114
461319
461878
466244
471214
473501
482886
487468
490360
496789
511934
517897
527596
543130
554183
567613
584037
603892
639139
662536
678660
712405
766863
806834
836577
893429
946561
1.03391e+06
1.10431e+06
1.16127e+06
1.25306e+06
1.37449e+06
1.47796e+06
1.56152e+06
1.68479e+06
1.80268e+06
1.95522e+06
2.07897e+06
2.17682e+06
2.30825e+06
2.43695e+06
2.57379e+06
2.69825e+06
2.8038e+06
2.94339e+06
3.04946e+06
3.15394e+06
3.25527e+06
3.35214e+06
3.44013e+06
3.52069e+06
3.59839e+06
3.65229e+06
3.71109e+06
3.73985e+06
3.74143e+06
3.7314e+06
3.70947e+06
3.64434e+06
3.55829e+06
3.46899e+06
3.31155e+06
3.15672e+06
2.97603e+06
2.83441e+06
2.64028e+06
2.42073e+06
2.24665e+06
2.18536e+06
2.0243e+06
1.80618e+06
1.85811e+06
1.75708e+06
1.53388e+06
1.62988e+06
1.57153e+06
1.41668e+06
1.42449e+06
1.39876e+06
1.41243e+06
1.38826e+06
1.29735e+06
1.31785e+06
1.38686e+06
1.25259e+06
1.24387e+06
1.34927e+06
1.21421e+06
1.20359e+06
1.28737e+06
1.18081e+06
1.16423e+06
1.20672e+06
1.15804e+06
1.10984e+06
1.15344e+06
1.09386e+06
965005
1.10884e+06
1.04389e+06
807452
991478
981531
839074
862421
900785
934776
792160
759618
894563
704608
670154
772652
714460
616107
597050
601931
579163
532358
448799
371909
505180
439702
275442
377559
364138
285477
255586
272204
291007
290363
155077
123352
213394
117024
49770.9
88771.5
444901
451117
461296
461872
466229
471179
473504
482875
487468
490369
496775
511930
517895
527580
543112
554167
567593
584014
603858
639110
662512
678629
712353
766812
806793
836545
893321
946487
1.03383e+06
1.10424e+06
1.1612e+06
1.25297e+06
1.37437e+06
1.47789e+06
1.56142e+06
1.6847e+06
1.80258e+06
1.95513e+06
2.07891e+06
2.17676e+06
2.30822e+06
2.43695e+06
2.57379e+06
2.69825e+06
2.8038e+06
2.94334e+06
3.04946e+06
3.15391e+06
3.25526e+06
3.35214e+06
3.44013e+06
3.5207e+06
3.59839e+06
3.6523e+06
3.7111e+06
3.73986e+06
3.74144e+06
3.73142e+06
3.7095e+06
3.64438e+06
3.55833e+06
3.46903e+06
3.3116e+06
3.15674e+06
2.97603e+06
2.83441e+06
2.64028e+06
2.42073e+06
2.24665e+06
2.18536e+06
2.0243e+06
1.80617e+06
1.85811e+06
1.75707e+06
1.53387e+06
1.62988e+06
1.57153e+06
1.41667e+06
1.42449e+06
1.39876e+06
1.41243e+06
1.38826e+06
1.29735e+06
1.31785e+06
1.38686e+06
1.25259e+06
1.24387e+06
1.34928e+06
1.21421e+06
1.20359e+06
1.28738e+06
1.18081e+06
1.16423e+06
1.20672e+06
1.15807e+06
1.10984e+06
1.15344e+06
1.09386e+06
965004
1.10884e+06
1.0439e+06
807448
991486
981529
839066
862425
900786
934774
792160
759623
894568
704608
670149
772657
714518
616106
597048
601936
579160
532377
448860
371907
505181
439731
275438
377563
364163
285473
255587
272204
291003
290369
155108
123343
213409
117011
49774.7
88782.2
444901
451120
461267
461905
466254
471189
473600
482860
487461
490404
496758
511914
517885
527562
543113
554166
567574
584014
603852
639110
662510
678615
712348
766812
806776
836545
893335
946486
1.03382e+06
1.10418e+06
1.16119e+06
1.25297e+06
1.3743e+06
1.47789e+06
1.56137e+06
1.6847e+06
1.80255e+06
1.95513e+06
2.07891e+06
2.17677e+06
2.30822e+06
2.43695e+06
2.57379e+06
2.69825e+06
2.8038e+06
2.94334e+06
3.04947e+06
3.15392e+06
3.25526e+06
3.35215e+06
3.44013e+06
3.5207e+06
3.59839e+06
3.65231e+06
3.7111e+06
3.73986e+06
3.74146e+06
3.73144e+06
3.70953e+06
3.64443e+06
3.55839e+06
3.4691e+06
3.31168e+06
3.1568e+06
2.97608e+06
2.83442e+06
2.64032e+06
2.42078e+06
2.24666e+06
2.18537e+06
2.02436e+06
1.80617e+06
1.85812e+06
1.75715e+06
1.53388e+06
1.62989e+06
1.57159e+06
1.41668e+06
1.42448e+06
1.39875e+06
1.41242e+06
1.38825e+06
1.29734e+06
1.31782e+06
1.38686e+06
1.25259e+06
1.24386e+06
1.34928e+06
1.2142e+06
1.20358e+06
1.28738e+06
1.18081e+06
1.16422e+06
1.20672e+06
1.15807e+06
1.10983e+06
1.15344e+06
1.09393e+06
965013
1.10885e+06
1.044e+06
807456
991505
981548
839054
862421
900754
934759
792159
759621
894571
704606
670136
772653
714514
616102
597039
601941
579184
532431
448935
371918
505197
439834
275446
377570
364191
285463
255581
272187
290989
290367
155107
123326
213420
117008
49774.7
88795.1
444901
451126
461241
461908
466272
471083
473584
482854
487462
490405
496758
511914
517884
527544
543093
554147
567548
583988
603811
639069
662479
678576
712286
766748
806725
836486
893253
946394
1.03372e+06
1.10409e+06
1.1611e+06
1.25284e+06
1.37416e+06
1.47777e+06
1.56124e+06
1.68457e+06
1.8024e+06
1.95499e+06
2.07881e+06
2.17666e+06
2.30812e+06
2.43687e+06
2.57377e+06
2.69825e+06
2.8038e+06
2.94326e+06
3.04946e+06
3.15388e+06
3.25523e+06
3.35214e+06
3.44013e+06
3.5207e+06
3.59839e+06
3.65231e+06
3.71111e+06
3.73987e+06
3.74148e+06
3.73146e+06
3.70957e+06
3.64449e+06
3.55844e+06
3.46913e+06
3.31173e+06
3.15681e+06
2.97608e+06
2.83443e+06
2.64031e+06
2.42077e+06
2.24666e+06
2.18537e+06
2.02435e+06
1.80615e+06
1.8581e+06
1.75714e+06
1.53386e+06
1.62987e+06
1.57159e+06
1.41667e+06
1.42447e+06
1.39875e+06
1.41243e+06
1.38829e+06
1.29734e+06
1.31782e+06
1.38687e+06
1.25259e+06
1.24386e+06
1.3493e+06
1.21422e+06
1.20358e+06
1.28739e+06
1.18083e+06
1.16423e+06
1.20672e+06
1.1581e+06
1.10983e+06
1.15343e+06
1.09392e+06
965002
1.10883e+06
1.04399e+06
807434
991507
981543
839042
862425
900761
934767
792159
759636
894584
704662
670135
772670
714586
616132
597041
601951
579178
532430
448932
371900
505186
439818
275428
377571
364218
285458
255589
272192
290994
290385
155169
123321
213451
116991
49784
88811
444901
451134
461209
461915
466293
470991
473538
482840
487455
490389
496741
511900
517878
527524
543093
554129
567524
583972
603771
639037
662450
678540
712226
766688
806676
836440
893173
946317
1.03362e+06
1.104e+06
1.16101e+06
1.25273e+06
1.37402e+06
1.47769e+06
1.56113e+06
1.68447e+06
1.80229e+06
1.95491e+06
2.07875e+06
2.17663e+06
2.30812e+06
2.43687e+06
2.57376e+06
2.69825e+06
2.8038e+06
2.94321e+06
3.04946e+06
3.15388e+06
3.25523e+06
3.35215e+06
3.44013e+06
3.52071e+06
3.59839e+06
3.65232e+06
3.71112e+06
3.73988e+06
3.7415e+06
3.73149e+06
3.70961e+06
3.64454e+06
3.55851e+06
3.46921e+06
3.31183e+06
3.15685e+06
2.9761e+06
2.83445e+06
2.64031e+06
2.42077e+06
2.24666e+06
2.18537e+06
2.02435e+06
1.80614e+06
1.8581e+06
1.75713e+06
1.53385e+06
1.62987e+06
1.57159e+06
1.41667e+06
1.42447e+06
1.39875e+06
1.41243e+06
1.38829e+06
1.29733e+06
1.31781e+06
1.38688e+06
1.25259e+06
1.24385e+06
1.34931e+06
1.21421e+06
1.20357e+06
1.2874e+06
1.18083e+06
1.16422e+06
1.20672e+06
1.1581e+06
1.10983e+06
1.15343e+06
1.09397e+06
965004
1.10883e+06
1.04409e+06
807431
991525
981546
839028
862430
900762
934759
792158
759640
894591
704657
670124
772674
714634
616128
597035
601959
579177
532484
449006
371901
505193
439920
275427
377579
364249
285449
255589
272192
290983
290389
155168
123304
213474
116991
49789.2
88828.5
444901
451143
461174
461924
466318
470943
473545
482826
487448
490389
496723
511884
517870
527503
543078
554109
567498
583949
603729
638995
662418
678500
712162
766622
806623
836381
893086
946228
1.03351e+06
1.1039e+06
1.16091e+06
1.25261e+06
1.37387e+06
1.47758e+06
1.56101e+06
1.68436e+06
1.80216e+06
1.95481e+06
2.07868e+06
2.17658e+06
2.30812e+06
2.43687e+06
2.57376e+06
2.69825e+06
2.8038e+06
2.94315e+06
3.04947e+06
3.15388e+06
3.25523e+06
3.35215e+06
3.44014e+06
3.52071e+06
3.59839e+06
3.65233e+06
3.71112e+06
3.73989e+06
3.74152e+06
3.73152e+06
3.70965e+06
3.64461e+06
3.55857e+06
3.46929e+06
3.31193e+06
3.15689e+06
2.97611e+06
2.83446e+06
2.64031e+06
2.42076e+06
2.24666e+06
2.18537e+06
2.02434e+06
1.80613e+06
1.85809e+06
1.75713e+06
1.53384e+06
1.62986e+06
1.57158e+06
1.41666e+06
1.42446e+06
1.39875e+06
1.41243e+06
1.38829e+06
1.29732e+06
1.31781e+06
1.38689e+06
1.25259e+06
1.24384e+06
1.34932e+06
1.21421e+06
1.20356e+06
1.28741e+06
1.18083e+06
1.16422e+06
1.20672e+06
1.1581e+06
1.10983e+06
1.15343e+06
1.09397e+06
965003
1.10883e+06
1.04419e+06
807422
991539
981543
839011
862435
900763
934754
792152
759650
894604
704655
670114
772684
714703
616127
597030
601969
579176
532483
449081
371897
505197
439918
275419
377585
364282
285440
255591
272195
290976
290402
155184
123287
213504
116965
49797
88849.1
444901
451155
461136
461933
466344
470875
473548
482811
487441
490389
496704
511867
517861
527481
543063
554089
567470
583925
603685
638951
662385
678458
712094
766553
806567
836319
892994
946137
1.03339e+06
1.1038e+06
1.16081e+06
1.25247e+06
1.37372e+06
1.47746e+06
1.56087e+06
1.68425e+06
1.80203e+06
1.95471e+06
2.07862e+06
2.17653e+06
2.30812e+06
2.43687e+06
2.57376e+06
2.69825e+06
2.8038e+06
2.94309e+06
3.04947e+06
3.15388e+06
3.25524e+06
3.35215e+06
3.44014e+06
3.52072e+06
3.59839e+06
3.65234e+06
3.71113e+06
3.7399e+06
3.74155e+06
3.73155e+06
3.70969e+06
3.64467e+06
3.55865e+06
3.46938e+06
3.31203e+06
3.15694e+06
2.97612e+06
2.83448e+06
2.6403e+06
2.42076e+06
2.24665e+06
2.18536e+06
2.02433e+06
1.80612e+06
1.85808e+06
1.75712e+06
1.53383e+06
1.62985e+06
1.57158e+06
1.41666e+06
1.42446e+06
1.39875e+06
1.41243e+06
1.38828e+06
1.29732e+06
1.31781e+06
1.38689e+06
1.25258e+06
1.24382e+06
1.34934e+06
1.2142e+06
1.20355e+06
1.28742e+06
1.18083e+06
1.16421e+06
1.20672e+06
1.1581e+06
1.10983e+06
1.15343e+06
1.09397e+06
965004
1.10882e+06
1.04429e+06
807415
991561
981543
838992
862441
900764
934745
792151
759657
894615
704655
670100
772693
714772
616122
597024
601981
579174
532499
449161
371895
505203
439946
275414
377595
364317
285429
255592
272197
290965
290409
155182
123266
213538
116963
49805.2
88872
444902
451169
461094
461944
466373
470804
473552
482796
487432
490389
496684
511847
517851
527457
543045
554066
567440
583896
603638
638904
662349
678414
712023
766480
806507
836251
892897
946037
1.03327e+06
1.10369e+06
1.1607e+06
1.25233e+06
1.37355e+06
1.47733e+06
1.56073e+06
1.68412e+06
1.80188e+06
1.9546e+06
2.07854e+06
2.1765e+06
2.30812e+06
2.43687e+06
2.57376e+06
2.69825e+06
2.80381e+06
2.94302e+06
3.04947e+06
3.15388e+06
3.25524e+06
3.35216e+06
3.44014e+06
3.52072e+06
3.5984e+06
3.65235e+06
3.71114e+06
3.73991e+06
3.74158e+06
3.73159e+06
3.70974e+06
3.64475e+06
3.55872e+06
3.46947e+06
3.31215e+06
3.15699e+06
2.97614e+06
2.8345e+06
2.6403e+06
2.42075e+06
2.24665e+06
2.18536e+06
2.02432e+06
1.8061e+06
1.85807e+06
1.75711e+06
1.53382e+06
1.62985e+06
1.57157e+06
1.41665e+06
1.42445e+06
1.39875e+06
1.41243e+06
1.38828e+06
1.29731e+06
1.31781e+06
1.38691e+06
1.25258e+06
1.24381e+06
1.34936e+06
1.2142e+06
1.20354e+06
1.28743e+06
1.18083e+06
1.16421e+06
1.20672e+06
1.1581e+06
1.10983e+06
1.15343e+06
1.09397e+06
965004
1.10881e+06
1.0444e+06
807404
991581
981539
838968
862446
900766
934738
792150
759669
894632
704648
670086
772706
714846
616115
597017
601995
579172
532497
449243
371891
505208
439943
275403
377604
364354
285417
255594
272201
290955
290425
155182
123245
213577
116927
49816.1
88898.7
444902
451180
461049
461959
466404
470715
473555
482780
487423
490389
496663
511827
517841
527432
543025
554043
567408
583862
603588
638855
662310
678366
711947
766402
806444
836179
892793
945936
1.03314e+06
1.10358e+06
1.16059e+06
1.25217e+06
1.37338e+06
1.4772e+06
1.56058e+06
1.68399e+06
1.80174e+06
1.95449e+06
2.07846e+06
2.17647e+06
2.30812e+06
2.43686e+06
2.57376e+06
2.69825e+06
2.80381e+06
2.94295e+06
3.04947e+06
3.15388e+06
3.25525e+06
3.35216e+06
3.44015e+06
3.52073e+06
3.5984e+06
3.65237e+06
3.71115e+06
3.73992e+06
3.74162e+06
3.73163e+06
3.70979e+06
3.64482e+06
3.55881e+06
3.46957e+06
3.31227e+06
3.15705e+06
2.97617e+06
2.83452e+06
2.6403e+06
2.42075e+06
2.24664e+06
2.18536e+06
2.02431e+06
1.80609e+06
1.85806e+06
1.7571e+06
1.53381e+06
1.62984e+06
1.57157e+06
1.41664e+06
1.42444e+06
1.39874e+06
1.41243e+06
1.38828e+06
1.2973e+06
1.31781e+06
1.38692e+06
1.25258e+06
1.2438e+06
1.34938e+06
1.21419e+06
1.20353e+06
1.28744e+06
1.18083e+06
1.1642e+06
1.20672e+06
1.1581e+06
1.10983e+06
1.15343e+06
1.09397e+06
965005
1.10881e+06
1.04452e+06
807395
991608
981538
838944
862453
900768
934727
792142
759680
894648
704640
670068
772719
714919
616114
597009
602010
579169
532496
449332
371888
505216
439977
275395
377618
364394
285403
255596
272205
290941
290438
155178
123218
213621
116900
49828
88928
444903
451195
461001
461975
466437
470617
473559
482764
487412
490388
496641
511804
517829
527405
543009
554018
567374
583868
603536
638804
662270
678316
711868
766322
806377
836104
892682
945826
1.03301e+06
1.10345e+06
1.16046e+06
1.25201e+06
1.3732e+06
1.47706e+06
1.56043e+06
1.68385e+06
1.80158e+06
1.95439e+06
2.0784e+06
2.17646e+06
2.30811e+06
2.43686e+06
2.57376e+06
2.69825e+06
2.80382e+06
2.94294e+06
3.04947e+06
3.15389e+06
3.25525e+06
3.35217e+06
3.44015e+06
3.52074e+06
3.5984e+06
3.65238e+06
3.71116e+06
3.73994e+06
3.74165e+06
3.73168e+06
3.70985e+06
3.64491e+06
3.5589e+06
3.46967e+06
3.3124e+06
3.15713e+06
2.9762e+06
2.83455e+06
2.6403e+06
2.42074e+06
2.24664e+06
2.18535e+06
2.0243e+06
1.80607e+06
1.85805e+06
1.75709e+06
1.5338e+06
1.62983e+06
1.57156e+06
1.41664e+06
1.42443e+06
1.39874e+06
1.41243e+06
1.38828e+06
1.29728e+06
1.31781e+06
1.38693e+06
1.25257e+06
1.24378e+06
1.34941e+06
1.21419e+06
1.20351e+06
1.28745e+06
1.18082e+06
1.1642e+06
1.20672e+06
1.1581e+06
1.10982e+06
1.15342e+06
1.094e+06
965009
1.1088e+06
1.04465e+06
807385
991638
981536
838913
862459
900770
934713
792132
759692
894667
704639
670048
772732
714982
616104
596998
602028
579167
532512
449426
371887
505227
440025
275386
377632
364437
285386
255597
272209
290924
290453
155172
123188
213670
116898
49841.6
88961.6
444908
451210
460953
461995
466473
470525
473567
482764
487411
490390
496641
511785
517823
527377
542980
553988
567333
583886
603474
638743
662220
678255
711776
766228
806297
836013
892560
945695
1.03285e+06
1.10331e+06
1.16032e+06
1.25181e+06
1.373e+06
1.47688e+06
1.56025e+06
1.68365e+06
1.80136e+06
1.95419e+06
2.07824e+06
2.1763e+06
2.30801e+06
2.43675e+06
2.57372e+06
2.69825e+06
2.80383e+06
2.94287e+06
3.04947e+06
3.15388e+06
3.25526e+06
3.35217e+06
3.44016e+06
3.52075e+06
3.5984e+06
3.6524e+06
3.71117e+06
3.73996e+06
3.7417e+06
3.73173e+06
3.70991e+06
3.645e+06
3.55899e+06
3.46978e+06
3.31253e+06
3.15716e+06
2.97619e+06
2.83458e+06
2.64028e+06
2.42073e+06
2.24663e+06
2.18534e+06
2.02427e+06
1.80603e+06
1.85801e+06
1.75707e+06
1.53376e+06
1.62979e+06
1.57154e+06
1.4166e+06
1.4244e+06
1.39874e+06
1.41244e+06
1.38832e+06
1.29729e+06
1.31783e+06
1.38696e+06
1.25258e+06
1.24377e+06
1.34945e+06
1.21421e+06
1.20351e+06
1.28748e+06
1.18086e+06
1.1642e+06
1.20673e+06
1.15815e+06
1.10983e+06
1.15341e+06
1.09399e+06
964988
1.10875e+06
1.04462e+06
807344
991645
981521
838879
862480
900779
934730
792130
759729
894704
704718
670044
772772
715085
616146
597001
602052
579155
532509
449415
371848
505200
440010
275347
377638
364474
285371
255617
272225
290929
290499
155261
123174
213743
116883
49869.9
88999.6
444909
451225
460892
462014
466510
470416
473570
482740
487394
490378
496613
511756
517805
527347
542979
553962
567299
583886
603441
638741
662180
678205
711713
766207
806229
835989
892440
945694
1.03271e+06
1.10318e+06
1.16028e+06
1.25165e+06
1.37292e+06
1.47678e+06
1.5602e+06
1.68362e+06
1.80136e+06
1.95419e+06
2.07824e+06
2.17631e+06
2.30801e+06
2.43675e+06
2.57372e+06
2.69826e+06
2.80384e+06
2.94277e+06
3.04948e+06
3.15389e+06
3.25526e+06
3.35218e+06
3.44016e+06
3.52076e+06
3.5984e+06
3.65241e+06
3.71119e+06
3.73998e+06
3.74175e+06
3.73179e+06
3.70997e+06
3.6451e+06
3.5591e+06
3.4699e+06
3.31268e+06
3.1573e+06
2.9763e+06
2.83463e+06
2.6404e+06
2.42078e+06
2.24664e+06
2.18535e+06
2.02435e+06
1.80603e+06
1.85803e+06
1.75719e+06
1.53378e+06
1.62981e+06
1.57164e+06
1.41662e+06
1.4244e+06
1.39873e+06
1.41244e+06
1.38831e+06
1.29725e+06
1.31777e+06
1.38696e+06
1.25256e+06
1.24373e+06
1.34946e+06
1.2142e+06
1.20347e+06
1.28748e+06
1.18085e+06
1.16418e+06
1.20672e+06
1.15814e+06
1.10982e+06
1.15342e+06
1.09409e+06
965017
1.10878e+06
1.0448e+06
807364
991712
981564
838844
862488
900727
934682
792088
759721
894710
704685
669998
772767
715064
616121
596974
602069
579153
532592
449544
371884
505247
440184
275363
377669
364531
285345
255603
272197
290884
290491
155235
123117
213789
116865
49877.7
89038.5
444911
451232
460833
462038
466549
470310
473576
482722
487381
490378
496588
511729
517787
527315
542949
553931
567256
583836
603379
638678
662127
678142
711618
766108
806145
835896
892306
945559
1.03255e+06
1.10303e+06
1.16014e+06
1.25144e+06
1.37271e+06
1.4766e+06
1.56001e+06
1.68343e+06
1.80116e+06
1.95402e+06
2.07811e+06
2.17625e+06
2.30801e+06
2.43675e+06
2.57372e+06
2.69826e+06
2.80384e+06
2.94263e+06
3.04948e+06
3.15389e+06
3.25527e+06
3.35218e+06
3.44017e+06
3.52078e+06
3.59841e+06
3.65243e+06
3.7112e+06
3.74e+06
3.7418e+06
3.73185e+06
3.71004e+06
3.64521e+06
3.55921e+06
3.47002e+06
3.31284e+06
3.15739e+06
2.97634e+06
2.83463e+06
2.64039e+06
2.42077e+06
2.24663e+06
2.18535e+06
2.02433e+06
1.806e+06
1.85801e+06
1.75717e+06
1.53376e+06
1.62979e+06
1.57163e+06
1.41661e+06
1.42437e+06
1.39873e+06
1.41244e+06
1.38831e+06
1.29724e+06
1.31777e+06
1.38698e+06
1.25255e+06
1.24371e+06
1.34951e+06
1.21419e+06
1.20346e+06
1.2875e+06
1.18085e+06
1.16418e+06
1.20672e+06
1.15814e+06
1.10982e+06
1.15341e+06
1.09409e+06
965016
1.10876e+06
1.04483e+06
807342
991745
981557
838798
862500
900732
934673
792078
759748
894747
704680
669975
772796
715157
616112
596964
602095
579146
532590
449647
371872
505249
440176
275338
377687
364580
285323
255612
272205
290869
290526
155234
123083
213865
116846
49904.2
89085.4
444914
451253
460770
462064
466589
470195
473583
482701
487368
490377
496561
511700
517767
527281
542919
553898
567211
583796
603314
638613
662073
678076
711518
766006
806057
835799
892165
945421
1.03238e+06
1.10287e+06
1.15998e+06
1.25122e+06
1.3725e+06
1.47641e+06
1.55982e+06
1.68324e+06
1.80096e+06
1.95388e+06
2.07801e+06
2.1762e+06
2.308e+06
2.43674e+06
2.57371e+06
2.69826e+06
2.80386e+06
2.94254e+06
3.04949e+06
3.1539e+06
3.25528e+06
3.35219e+06
3.44017e+06
3.52079e+06
3.59841e+06
3.65245e+06
3.71121e+06
3.74003e+06
3.74186e+06
3.73192e+06
3.71012e+06
3.64532e+06
3.55933e+06
3.47016e+06
3.313e+06
3.1575e+06
2.97638e+06
2.83477e+06
2.64038e+06
2.42076e+06
2.24663e+06
2.18534e+06
2.0243e+06
1.80597e+06
1.85799e+06
1.75715e+06
1.53374e+06
1.62977e+06
1.57162e+06
1.4166e+06
1.42436e+06
1.39872e+06
1.41244e+06
1.38831e+06
1.29722e+06
1.31777e+06
1.387e+06
1.25254e+06
1.24368e+06
1.34954e+06
1.21418e+06
1.20343e+06
1.28752e+06
1.18084e+06
1.16416e+06
1.20672e+06
1.15814e+06
1.10982e+06
1.15341e+06
1.09409e+06
965021
1.10875e+06
1.04498e+06
807328
991794
981555
838753
862514
900736
934651
792062
759766
894775
704678
669941
772819
715156
616098
596948
602123
579137
532586
449761
371870
505262
440326
275323
377714
364635
285299
255617
272213
290842
290550
155226
123037
213944
116790
49930.7
89134.8
444917
451272
460704
462092
466629
470069
473589
482679
487353
490376
496533
511670
517746
527245
542886
553863
567163
583753
603245
638543
662015
678006
711413
765897
805963
835696
892014
945273
1.03219e+06
1.1027e+06
1.15982e+06
1.25099e+06
1.37227e+06
1.47621e+06
1.55961e+06
1.68303e+06
1.80074e+06
1.95372e+06
2.0779e+06
2.17615e+06
2.308e+06
2.43673e+06
2.57371e+06
2.69826e+06
2.80387e+06
2.94243e+06
3.0495e+06
3.1539e+06
3.25529e+06
3.3522e+06
3.44018e+06
3.52082e+06
3.59842e+06
3.65247e+06
3.71122e+06
3.74006e+06
3.74193e+06
3.732e+06
3.71021e+06
3.64545e+06
3.55946e+06
3.4703e+06
3.31318e+06
3.15762e+06
2.97644e+06
2.8348e+06
2.64038e+06
2.42075e+06
2.24662e+06
2.18534e+06
2.02428e+06
1.80594e+06
1.85797e+06
1.75714e+06
1.53372e+06
1.62975e+06
1.57161e+06
1.41659e+06
1.42433e+06
1.39872e+06
1.41244e+06
1.3883e+06
1.29719e+06
1.31777e+06
1.38702e+06
1.25253e+06
1.24366e+06
1.34959e+06
1.21417e+06
1.20341e+06
1.28755e+06
1.18084e+06
1.16415e+06
1.20673e+06
1.15814e+06
1.10981e+06
1.1534e+06
1.09408e+06
965026
1.10873e+06
1.04513e+06
807308
991840
981549
838695
862530
900740
934633
792052
759795
894814
704670
669908
772850
715226
616084
596933
602154
579125
532584
449880
371864
505271
440322
275297
377740
364691
285270
255624
272222
290817
290586
155221
122991
214034
116719
49963.9
89190.6
444920
451287
460633
462124
466671
469938
473596
482655
487339
490375
496503
511637
517724
527207
542852
553826
567112
583707