/*--------------------------------*- C++ -*----------------------------------*\
| =========                 |                                                 |
| \\      /  F ield         | OpenFOAM: The Open Source CFD Toolbox           |
|  \\    /   O peration     | Version:  v2012                                 |
|   \\  /    A nd           | Website:  www.openfoam.com                      |
|    \\/     M anipulation  |                                                 |
\*---------------------------------------------------------------------------*/
FoamFile
{
    version     2.0;
    format      ascii;
    class       surfaceScalarField;
    location    "1e-06";
    object      phi;
}
// * * * * * * * * * * * * * * * * * * * * * * * * * * * * * * * * * * * * * //

dimensions      [0 3 -1 0 0 0 0];
oriented        oriented;


internalField   nonuniform List<scalar> 
20135
(
-1.75059e-07
3.62899e-09
-1.90738e-07
1.56841e-08
-1.89046e-07
-1.10874e-08
-2.10827e-07
-1.16545e-10
-2.4217e-07
7.9076e-09
-2.43211e-07
-5.21008e-09
-2.76088e-07
3.05407e-08
-3.02985e-07
2.68373e-08
-3.23366e-07
2.03266e-08
-3.40374e-07
1.64117e-08
-3.64577e-07
2.39858e-08
-3.90713e-07
2.61385e-08
-4.10016e-07
1.93015e-08
-4.15801e-07
5.71991e-09
-4.14289e-07
-1.50568e-09
-4.20853e-07
6.56472e-09
-4.26726e-07
5.8795e-09
-4.22556e-07
-4.17065e-09
-4.05819e-07
-1.67312e-08
-3.84458e-07
-2.1363e-08
-3.69126e-07
-1.53279e-08
-3.55842e-07
-1.329e-08
-3.33214e-07
-2.26266e-08
-3.00518e-07
-3.27053e-08
-2.7237e-07
-2.81489e-08
-2.55705e-07
-1.66766e-08
-2.3153e-07
-2.41774e-08
-2.07786e-07
-2.37554e-08
-1.69451e-07
-3.83385e-08
-1.36036e-07
-3.34265e-08
-1.10493e-07
-2.55464e-08
-7.8849e-08
-3.16544e-08
-3.42045e-08
-4.46494e-08
6.47695e-09
-4.06903e-08
4.30975e-08
-3.66259e-08
7.62744e-08
-3.31833e-08
1.08488e-07
-3.2218e-08
1.48294e-07
-3.98079e-08
1.92072e-07
-4.37802e-08
2.20093e-07
-2.80235e-08
2.393e-07
-1.92103e-08
2.48519e-07
-9.226e-09
2.60636e-07
-1.212e-08
2.76395e-07
-1.57696e-08
2.79152e-07
-2.75371e-09
2.93944e-07
-1.48049e-08
2.96389e-07
-2.43978e-09
2.93701e-07
2.66972e-09
2.95473e-07
-1.76755e-09
2.96601e-07
-1.14822e-09
2.88466e-07
8.13718e-09
2.70566e-07
1.78781e-08
2.59738e-07
1.08237e-08
2.53907e-07
5.80735e-09
2.53766e-07
1.33673e-10
2.46865e-07
6.87678e-09
2.30843e-07
1.60104e-08
2.19955e-07
1.08659e-08
2.11826e-07
8.1119e-09
2.07803e-07
4.00227e-09
2.04441e-07
3.33974e-09
2.09659e-07
-5.23459e-09
2.22326e-07
-1.26901e-08
2.3934e-07
-1.70261e-08
2.59575e-07
-2.02564e-08
3.09441e-07
-4.98715e-08
3.64527e-07
-5.51028e-08
4.16166e-07
-5.16406e-08
4.77208e-07
-6.10529e-08
5.8788e-07
-1.1067e-07
7.00084e-07
-1.1221e-07
7.85124e-07
-8.50338e-08
9.18197e-07
-1.33075e-07
1.06263e-06
-1.44427e-07
1.14987e-06
-8.72374e-08
1.26407e-06
-1.14197e-07
1.3578e-06
-9.37345e-08
1.34642e-06
1.13819e-08
1.26846e-06
7.79523e-08
1.21317e-06
5.52868e-08
1.18028e-06
3.28902e-08
1.06212e-06
1.18152e-07
9.35457e-07
1.26666e-07
8.74325e-07
6.11323e-08
8.39098e-07
3.5225e-08
7.67484e-07
7.16123e-08
7.30872e-07
3.66109e-08
7.35423e-07
-4.55321e-09
6.83706e-07
5.1716e-08
6.55214e-07
2.84917e-08
6.58532e-07
-3.3181e-09
6.26925e-07
3.16076e-08
6.07295e-07
1.96299e-08
6.1259e-07
-5.29604e-09
6.22892e-07
-1.03032e-08
6.31524e-07
-8.63347e-09
6.79437e-07
-4.79145e-08
7.26225e-07
-4.67877e-08
8.06621e-07
-8.03967e-08
9.80537e-07
-1.73914e-07
1.14656e-06
-1.66026e-07
1.18922e-06
-4.2649e-08
1.23623e-06
-4.70096e-08
1.29637e-06
-6.01467e-08
1.15859e-06
1.37781e-07
1.02199e-06
1.36603e-07
9.52667e-07
6.93295e-08
8.75933e-07
7.67372e-08
8.13139e-07
6.27968e-08
7.97157e-07
1.5983e-08
8.5903e-07
-6.18715e-08
8.09803e-07
4.92285e-08
7.75606e-07
3.41965e-08
8.10989e-07
-3.53809e-08
8.01265e-07
9.72528e-09
7.69715e-07
3.15515e-08
7.4716e-07
2.2556e-08
7.45008e-07
2.15386e-09
7.77634e-07
-3.2626e-08
8.1823e-07
-4.05954e-08
8.81945e-07
-6.37156e-08
9.45418e-07
-6.34722e-08
1.08247e-06
-1.3705e-07
1.20044e-06
-1.17976e-07
1.17191e-06
2.85326e-08
1.16426e-06
7.65228e-09
1.19443e-06
-3.01666e-08
1.11867e-06
7.57579e-08
1.00341e-06
1.15258e-07
9.68537e-07
3.4877e-08
9.87799e-07
-1.92612e-08
1.01184e-06
-2.40348e-08
9.6477e-07
4.70647e-08
9.36981e-07
2.77916e-08
9.4962e-07
-1.26395e-08
9.26327e-07
2.32934e-08
9.02273e-07
2.40549e-08
-2.23704e-08
-2.3042e-07
1.51251e-08
-2.43044e-07
2.8315e-08
-2.4447e-07
-1.15584e-08
-2.46776e-07
-2.65349e-09
-2.79229e-07
3.92176e-08
-3.08698e-07
2.39927e-08
-3.35955e-07
5.7296e-08
-3.59889e-07
5.07779e-08
-3.87039e-07
4.74878e-08
-4.14529e-07
4.37966e-08
-4.38548e-07
4.78474e-08
-4.54707e-07
4.23015e-08
-4.72926e-07
3.75339e-08
-4.88044e-07
2.0841e-08
-4.90487e-07
9.50243e-10
-4.90502e-07
6.5799e-09
-4.86826e-07
2.21702e-09
-4.82349e-07
-8.65073e-09
-4.71274e-07
-2.77959e-08
-4.47808e-07
-4.48373e-08
-4.2174e-07
-4.13906e-08
-4.01565e-07
-3.34809e-08
-3.79358e-07
-4.48325e-08
-3.48086e-07
-6.3999e-08
-3.14821e-07
-6.14163e-08
-2.8939e-07
-4.21324e-08
-2.60656e-07
-5.29165e-08
-2.34061e-07
-5.03744e-08
-1.93019e-07
-7.93882e-08
-1.53833e-07
-7.26336e-08
-1.20793e-07
-5.85959e-08
-8.29706e-08
-6.94961e-08
-3.44539e-08
-9.31767e-08
1.14222e-08
-8.6582e-08
5.41797e-08
-7.93937e-08
9.4438e-08
-7.34501e-08
1.36817e-07
-7.46037e-08
1.83532e-07
-8.65275e-08
2.29688e-07
-8.99419e-08
2.58961e-07
-5.73061e-08
2.84349e-07
-4.46046e-08
3.04904e-07
-2.97986e-08
3.19929e-07
-2.71453e-08
3.30655e-07
-2.65186e-08
3.29937e-07
-2.0284e-09
3.48243e-07
-3.31419e-08
3.56843e-07
-1.10301e-08
3.56832e-07
2.64092e-09
3.55539e-07
-4.67952e-10
3.48181e-07
6.16621e-09
3.35574e-07
2.07422e-08
3.19558e-07
3.38471e-08
3.12287e-07
1.80829e-08
3.04394e-07
1.36517e-08
2.94538e-07
9.96983e-09
2.82626e-07
1.87417e-08
2.70323e-07
2.82838e-08
2.61861e-07
1.92841e-08
2.48118e-07
2.18144e-08
2.40208e-07
1.18742e-08
2.39072e-07
4.42829e-09
2.45832e-07
-1.20242e-08
2.58199e-07
-2.51028e-08
2.75296e-07
-3.41408e-08
3.02336e-07
-4.73352e-08
3.58236e-07
-1.0578e-07
4.12622e-07
-1.09517e-07
4.72062e-07
-1.11081e-07
5.53972e-07
-1.42978e-07
6.73219e-07
-2.2991e-07
7.83678e-07
-2.22678e-07
8.91844e-07
-1.93188e-07
1.04782e-06
-2.89057e-07
1.19501e-06
-2.91601e-07
1.30428e-06
-1.96514e-07
1.4548e-06
-2.64711e-07
1.5523e-06
-1.9124e-07
1.53845e-06
2.52303e-08
1.48342e-06
1.32978e-07
1.42839e-06
1.1031e-07
1.37151e-06
8.97642e-08
1.2565e-06
2.33162e-07
1.12763e-06
2.55526e-07
1.04336e-06
1.45401e-07
1.01361e-06
6.4973e-08
9.45264e-07
1.39957e-07
8.86493e-07
9.538e-08
8.95392e-07
-1.34562e-08
8.44708e-07
1.02401e-07
7.92328e-07
8.08714e-08
7.93762e-07
-4.75186e-09
7.58131e-07
6.72379e-08
7.16966e-07
6.07933e-08
7.22722e-07
-1.10543e-08
7.29851e-07
-1.7436e-08
7.27788e-07
-6.57072e-09
7.87726e-07
-1.07855e-07
8.39843e-07
-9.89019e-08
9.39191e-07
-1.79744e-07
1.14293e-06
-3.77654e-07
1.31125e-06
-3.34341e-07
1.38149e-06
-1.12886e-07
1.45724e-06
-1.22755e-07
1.50367e-06
-1.06571e-07
1.36788e-06
2.73573e-07
1.23173e-06
2.72766e-07
1.13593e-06
1.65125e-07
1.05732e-06
1.55361e-07
9.97623e-07
1.22492e-07
9.58658e-07
5.49508e-08
1.02283e-06
-1.26046e-07
9.92141e-07
7.99243e-08
9.41003e-07
8.53358e-08
9.50978e-07
-4.53529e-08
9.40217e-07
2.04895e-08
9.0199e-07
6.97817e-08
8.55133e-07
6.94146e-08
8.51053e-07
6.23564e-09
8.97864e-07
-7.94366e-08
9.37469e-07
-8.02001e-08
1.01634e-06
-1.42581e-07
1.12495e-06
-1.72092e-07
1.27547e-06
-2.87561e-07
1.37862e-06
-2.21127e-07
1.36771e-06
3.94431e-08
1.37791e-06
-2.54646e-09
1.38936e-06
-4.16217e-08
1.30262e-06
1.62506e-07
1.20916e-06
2.08716e-07
1.16691e-06
7.71327e-08
1.15974e-06
-1.20884e-08
1.1933e-06
-5.75957e-08
1.15387e-06
8.64996e-08
1.09975e-06
8.19128e-08
1.09965e-06
-1.25386e-08
1.0917e-06
3.12358e-08
1.05647e-06
5.92874e-08
-2.7609e-08
-2.9253e-07
2.80669e-08
-3.06196e-07
4.19894e-08
-3.10615e-07
-8.06502e-09
-3.07665e-07
-8.64273e-09
-3.4122e-07
7.0674e-08
-3.83748e-07
6.65272e-08
-4.14196e-07
8.76499e-08
-4.41536e-07
7.81242e-08
-4.70666e-07
7.66299e-08
-4.99306e-07
7.24419e-08
-5.25039e-07
7.35495e-08
-5.43342e-07
6.06088e-08
-5.61736e-07
5.59418e-08
-5.74882e-07
3.39897e-08
-5.75971e-07
2.05374e-09
-5.7535e-07
5.95877e-09
-5.69063e-07
-4.05586e-09
-5.60425e-07
-1.73026e-08
-5.44157e-07
-4.4065e-08
-5.17344e-07
-7.16584e-08
-4.88809e-07
-6.992e-08
-4.63557e-07
-5.87494e-08
-4.35097e-07
-7.32919e-08
-3.99317e-07
-9.98012e-08
-3.62342e-07
-9.83942e-08
-3.31188e-07
-7.3312e-08
-2.96333e-07
-8.79493e-08
-2.63037e-07
-8.36946e-08
-2.16962e-07
-1.25471e-07
-1.73078e-07
-1.16541e-07
-1.32561e-07
-9.91224e-08
-8.61874e-08
-1.1589e-07
-3.1361e-08
-1.48014e-07
2.13403e-08
-1.393e-07
7.26321e-08
-1.30696e-07
1.2246e-07
-1.23287e-07
1.73887e-07
-1.26038e-07
2.26823e-07
-1.39468e-07
2.79585e-07
-1.42709e-07
3.16659e-07
-9.43996e-08
3.48524e-07
-7.64767e-08
3.73629e-07
-5.49221e-08
3.91091e-07
-4.46075e-08
4.04844e-07
-4.02955e-08
4.05697e-07
-2.87249e-09
4.24493e-07
-5.19704e-08
4.32399e-07
-1.89263e-08
4.31333e-07
3.66567e-09
4.29682e-07
1.18964e-09
4.20635e-07
1.51678e-08
4.05074e-07
3.63005e-08
3.8501e-07
5.38629e-08
3.74851e-07
2.82292e-08
3.65161e-07
2.32911e-08
3.31637e-07
4.34738e-08
3.14841e-07
3.54874e-08
3.20362e-07
2.27331e-08
3.1131e-07
2.82896e-08
2.96065e-07
3.70169e-08
2.8734e-07
2.05594e-08
2.86086e-07
5.63397e-09
2.9276e-07
-1.87288e-08
3.07162e-07
-3.95527e-08
3.27225e-07
-5.42229e-08
3.58695e-07
-7.88457e-08
4.19832e-07
-1.66925e-07
4.80424e-07
-1.70138e-07
5.5118e-07
-1.81838e-07
6.46323e-07
-2.38138e-07
7.76984e-07
-3.60563e-07
9.01061e-07
-3.46763e-07
1.03205e-06
-3.24168e-07
1.2083e-06
-4.6531e-07
1.37888e-06
-4.62168e-07
1.52165e-06
-3.39287e-07
1.69484e-06
-4.37896e-07
1.81075e-06
-3.07148e-07
1.81545e-06
2.05264e-08
1.76592e-06
1.82499e-07
1.71187e-06
1.64352e-07
1.65366e-06
1.47968e-07
1.5277e-06
3.59121e-07
1.38872e-06
3.945e-07
1.29773e-06
2.36388e-07
1.25927e-06
1.03429e-07
1.18397e-06
2.1526e-07
1.11902e-06
1.60328e-07
1.11736e-06
-1.17994e-08
1.05663e-06
1.63126e-07
9.92624e-07
1.44879e-07
9.74632e-07
1.32404e-08
9.26144e-07
1.15726e-07
8.72968e-07
1.13967e-07
8.6341e-07
-1.49862e-09
8.65023e-07
-1.90519e-08
8.63291e-07
-4.83903e-09
9.27854e-07
-1.72421e-07
9.95586e-07
-1.66631e-07
1.12837e-06
-3.12525e-07
1.36158e-06
-6.10867e-07
1.5569e-06
-5.29656e-07
1.65662e-06
-2.126e-07
1.74807e-06
-2.14205e-07
1.80416e-06
-1.62656e-07
1.66474e-06
4.13e-07
1.52056e-06
4.16947e-07
1.41376e-06
2.71933e-07
1.31806e-06
2.51065e-07
1.24962e-06
1.90939e-07
1.20696e-06
9.76128e-08
1.26889e-06
-1.87981e-07
1.23064e-06
1.18178e-07
1.16874e-06
1.4724e-07
1.15785e-06
-3.44587e-08
1.11937e-06
5.89732e-08
1.06571e-06
1.23445e-07
1.00779e-06
1.27338e-07
9.97421e-07
1.66042e-08
1.04956e-06
-1.31577e-07
1.10429e-06
-1.34931e-07
1.21253e-06
-2.50821e-07
1.35001e-06
-3.09566e-07
1.52184e-06
-4.59393e-07
1.64357e-06
-3.42861e-07
1.64416e-06
3.88632e-08
1.65819e-06
-1.65776e-08
1.67406e-06
-5.74953e-08
1.584e-06
2.52567e-07
1.48233e-06
3.1039e-07
1.43409e-06
1.2538e-07
1.42153e-06
4.6843e-10
1.44979e-06
-8.58554e-08
1.40395e-06
1.32344e-07
1.34304e-06
1.42821e-07
1.32745e-06
3.05692e-09
1.3069e-06
5.1787e-08
1.26987e-06
9.63171e-08
-3.39337e-08
-3.06922e-07
4.17825e-08
-3.21234e-07
5.63089e-08
-3.34095e-07
4.39349e-09
-3.6121e-07
1.68679e-08
-3.87269e-07
9.46456e-08
-4.02237e-07
8.13079e-08
-4.3403e-07
1.19345e-07
-4.62939e-07
1.0704e-07
-4.93369e-07
1.07073e-07
-5.2304e-07
1.02101e-07
-5.49958e-07
1.00416e-07
-5.70252e-07
8.09079e-08
-5.89513e-07
7.5217e-08
-6.02102e-07
4.6582e-08
-6.03189e-07
3.15499e-09
-6.02555e-07
5.32518e-09
-5.96385e-07
-1.02116e-08
-5.87257e-07
-2.6434e-08
-5.6975e-07
-6.15607e-08
-5.41695e-07
-9.97225e-08
-5.11996e-07
-9.96129e-08
-4.85537e-07
-8.52252e-08
-4.55541e-07
-1.03288e-07
-4.18073e-07
-1.37293e-07
-3.79408e-07
-1.37062e-07
-3.4876e-07
-1.03986e-07
-3.12227e-07
-1.24488e-07
-2.75194e-07
-1.20754e-07
-2.27009e-07
-1.73663e-07
-1.81087e-07
-1.62486e-07
-1.38584e-07
-1.41636e-07
-8.99764e-08
-1.64518e-07
-3.26391e-08
-2.05363e-07
2.25154e-08
-1.94471e-07
7.64594e-08
-1.84651e-07
1.28684e-07
-1.75521e-07
1.82349e-07
-1.7971e-07
2.37704e-07
-1.94828e-07
2.92905e-07
-1.97917e-07
3.32578e-07
-1.34084e-07
3.6596e-07
-1.09865e-07
3.91415e-07
-8.03968e-08
4.09667e-07
-6.28597e-08
4.2422e-07
-5.48736e-08
4.25521e-07
-4.16461e-09
4.45054e-07
-7.15378e-08
4.53038e-07
-2.69002e-08
4.51894e-07
4.76693e-09
4.50178e-07
2.91278e-09
4.40964e-07
2.43341e-08
4.24748e-07
5.25145e-08
4.03541e-07
7.50189e-08
3.92797e-07
3.89596e-08
3.82666e-07
3.33701e-08
3.69167e-07
5.69513e-08
3.51926e-07
5.26766e-08
3.35676e-07
3.89508e-08
3.26223e-07
3.76949e-08
3.10295e-07
5.29006e-08
3.01218e-07
2.95955e-08
2.99912e-07
6.88783e-09
3.06821e-07
-2.56692e-08
3.21969e-07
-5.47511e-08
3.43015e-07
-7.5288e-08
3.92536e-07
-1.28409e-07
4.56727e-07
-2.31126e-07
5.03347e-07
-2.16788e-07
5.77498e-07
-2.5599e-07
6.76936e-07
-3.37594e-07
8.13503e-07
-4.97121e-07
9.43482e-07
-4.76751e-07
1.08073e-06
-4.61404e-07
1.26478e-06
-6.4936e-07
1.44372e-06
-6.41104e-07
1.59318e-06
-4.8874e-07
1.77347e-06
-6.18183e-07
1.89471e-06
-4.28396e-07
1.8998e-06
1.54333e-08
1.84791e-06
2.3438e-07
1.79138e-06
2.20878e-07
1.73052e-06
2.08827e-07
1.59863e-06
4.9101e-07
1.45321e-06
5.39911e-07
1.3581e-06
3.31499e-07
1.31769e-06
1.43833e-07
1.2389e-06
2.94047e-07
1.17105e-06
2.28178e-07
1.16912e-06
-9.88121e-09
1.10558e-06
2.26668e-07
1.03866e-06
2.11796e-07
1.01969e-06
3.22111e-08
9.68972e-07
1.66448e-07
9.13354e-07
1.69582e-07
9.03235e-07
8.61808e-09
9.04881e-07
-2.0702e-08
9.0302e-07
-2.97845e-09
9.70376e-07
-2.39779e-07
1.04129e-06
-2.37538e-07
1.18035e-06
-4.51591e-07
1.42406e-06
-8.54565e-07
1.63253e-06
-7.38126e-07
1.73729e-06
-3.1736e-07
1.82902e-06
-3.0593e-07
1.88803e-06
-2.21662e-07
1.74256e-06
5.5848e-07
1.59165e-06
5.67863e-07
1.4796e-06
3.83986e-07
1.37918e-06
3.51495e-07
1.30744e-06
2.62675e-07
1.26533e-06
1.3973e-07
1.3299e-06
-2.5255e-07
1.28726e-06
1.60825e-07
1.22247e-06
2.12023e-07
1.21085e-06
-2.28344e-08
1.17062e-06
9.92076e-08
1.11455e-06
1.7952e-07
1.05403e-06
1.87865e-07
1.04298e-06
2.76573e-08
1.0972e-06
-1.858e-07
1.15458e-06
-1.92309e-07
1.26802e-06
-3.64261e-07
1.41185e-06
-4.53401e-07
1.5915e-06
-6.39042e-07
1.71909e-06
-4.7045e-07
1.72005e-06
3.79074e-08
1.73464e-06
-3.11689e-08
1.75177e-06
-7.46275e-08
1.6577e-06
3.46639e-07
1.55086e-06
4.17238e-07
1.50022e-06
1.76024e-07
1.4869e-06
1.37872e-08
1.51628e-06
-1.15231e-07
1.4683e-06
1.80323e-07
1.40726e-06
2.03865e-07
1.39085e-06
1.9469e-08
1.36648e-06
7.61533e-08
1.32778e-06
1.3502e-07
-4.06105e-08
-3.508e-07
5.73728e-08
-3.66522e-07
7.204e-08
-3.81164e-07
1.81591e-08
-4.10964e-07
4.50129e-08
-4.4011e-07
1.23157e-07
-4.58186e-07
9.82763e-08
-4.92436e-07
1.52831e-07
-5.24128e-07
1.38739e-07
-5.56565e-07
1.39523e-07
-5.87668e-07
1.32729e-07
-6.16084e-07
1.28516e-07
-6.37376e-07
1.02205e-07
-6.56772e-07
9.4628e-08
-6.68498e-07
5.83104e-08
-6.68572e-07
3.24488e-09
-6.67186e-07
3.93895e-09
-6.5863e-07
-1.87525e-08
-6.4631e-07
-3.87574e-08
-6.25145e-07
-8.27144e-08
-5.9432e-07
-1.30557e-07
-5.62116e-07
-1.3181e-07
-5.31566e-07
-1.15794e-07
-4.96957e-07
-1.37896e-07
-4.55954e-07
-1.78321e-07
-4.14042e-07
-1.78977e-07
-3.78175e-07
-1.39881e-07
-3.36691e-07
-1.65978e-07
-2.95097e-07
-1.62375e-07
-2.4269e-07
-2.26079e-07
-1.92662e-07
-2.12539e-07
-1.44196e-07
-1.90112e-07
-8.89035e-08
-2.19832e-07
-2.64507e-08
-2.67828e-07
3.43912e-08
-2.55331e-07
9.49108e-08
-2.45183e-07
1.54453e-07
-2.35074e-07
2.15268e-07
-2.40532e-07
2.75844e-07
-2.55408e-07
3.36394e-07
-2.58473e-07
3.818e-07
-1.79501e-07
4.20233e-07
-1.48305e-07
4.49687e-07
-1.09871e-07
4.70047e-07
-8.32201e-08
4.86784e-07
-7.1636e-08
4.89218e-07
-6.58991e-09
5.09518e-07
-9.18737e-08
5.17351e-07
-3.47219e-08
5.15566e-07
6.50662e-09
5.13472e-07
5.01421e-09
5.02656e-07
3.5101e-08
4.84034e-07
7.11342e-08
4.59828e-07
9.91721e-08
4.4699e-07
5.17831e-08
4.35392e-07
4.49141e-08
4.19318e-07
7.30024e-08
3.98709e-07
7.32312e-08
3.80248e-07
5.73793e-08
3.70249e-07
4.76432e-08
3.53131e-07
6.99729e-08
3.43467e-07
3.92166e-08
3.42348e-07
7.95305e-09
3.49607e-07
-3.29618e-08
3.66466e-07
-7.16617e-08
3.903e-07
-9.91432e-08
4.27395e-07
-1.65548e-07
4.96365e-07
-3.00105e-07
5.65919e-07
-2.86374e-07
6.50008e-07
-3.4008e-07
7.61373e-07
-4.48977e-07
9.08675e-07
-6.44415e-07
1.05123e-06
-6.19317e-07
1.20853e-06
-6.18694e-07
1.41066e-06
-8.51491e-07
1.60993e-06
-8.40358e-07
1.78962e-06
-6.68437e-07
1.99299e-06
-8.21542e-07
2.13303e-06
-5.68444e-07
2.15777e-06
-9.30235e-09
2.11419e-06
2.77947e-07
2.05924e-06
2.75824e-07
1.99651e-06
2.71546e-07
1.85425e-06
6.33263e-07
1.69803e-06
6.96132e-07
1.59361e-06
4.35916e-07
1.54226e-06
1.95177e-07
1.45515e-06
3.81157e-07
1.37856e-06
3.04765e-07
1.36408e-06
4.59544e-09
1.28957e-06
3.01171e-07
1.21009e-06
2.91285e-07
1.17325e-06
6.90486e-08
1.11113e-06
2.28565e-07
1.04517e-06
2.35539e-07
1.02398e-06
2.98103e-08
1.02205e-06
-1.87824e-08
1.02126e-06
-2.18947e-09
1.09424e-06
-3.12757e-07
1.17867e-06
-3.21965e-07
1.34748e-06
-6.20397e-07
1.61949e-06
-1.12657e-06
1.85617e-06
-9.748e-07
1.99516e-06
-4.56353e-07
2.10691e-06
-4.17676e-07
2.17629e-06
-2.91037e-07
2.02892e-06
7.05856e-07
1.87038e-06
7.26407e-07
1.74542e-06
5.08956e-07
1.62575e-06
4.71167e-07
1.54345e-06
3.44984e-07
1.49414e-06
1.89038e-07
1.55266e-06
-3.11069e-07
1.50136e-06
2.12131e-07
1.42326e-06
2.90128e-07
1.38868e-06
1.17405e-08
1.32336e-06
1.64539e-07
1.25388e-06
2.49e-07
1.18429e-06
2.57457e-07
1.17014e-06
4.18139e-08
1.23068e-06
-2.46347e-07
1.30219e-06
-2.63812e-07
1.44415e-06
-5.06225e-07
1.61922e-06
-6.28471e-07
1.82214e-06
-8.41964e-07
1.96911e-06
-6.17414e-07
1.98417e-06
2.2847e-08
2.00417e-06
-5.11689e-08
2.02481e-06
-9.52671e-08
1.92685e-06
4.446e-07
1.81256e-06
5.31533e-07
1.75463e-06
2.33953e-07
1.73288e-06
3.55417e-08
1.75432e-06
-1.36674e-07
1.69795e-06
2.36699e-07
1.62749e-06
2.74327e-07
1.59413e-06
5.28255e-08
1.55784e-06
1.12447e-07
1.51717e-06
1.75688e-07
-4.80119e-08
-3.85254e-07
7.47141e-08
-4.02359e-07
8.91543e-08
-4.18027e-07
3.35792e-08
-4.38942e-07
6.50521e-08
-4.71771e-07
1.5568e-07
-5.03269e-07
1.2977e-07
-5.39592e-07
1.89054e-07
-5.73613e-07
1.72768e-07
-6.07928e-07
1.73851e-07
-6.405e-07
1.65259e-07
-6.70262e-07
1.58198e-07
-6.92337e-07
1.24285e-07
-7.11938e-07
1.14244e-07
-7.23141e-07
6.95162e-08
-7.22473e-07
2.59352e-09
-7.20396e-07
1.86205e-09
-7.09909e-07
-2.92426e-08
-6.95109e-07
-5.35777e-08
-6.71097e-07
-1.06714e-07
-6.37863e-07
-1.63801e-07
-6.03309e-07
-1.66358e-07
-5.69344e-07
-1.49788e-07
-5.30978e-07
-1.76262e-07
-4.8691e-07
-2.22415e-07
-4.42062e-07
-2.23828e-07
-4.02515e-07
-1.79457e-07
-3.56662e-07
-2.11839e-07
-3.10526e-07
-2.08539e-07
-2.54273e-07
-2.82341e-07
-2.00496e-07
-2.66341e-07
-1.46906e-07
-2.43713e-07
-8.58138e-08
-2.80947e-07
-1.88063e-08
-3.34848e-07
4.71479e-08
-3.21303e-07
1.13294e-07
-3.11341e-07
1.79069e-07
-3.00858e-07
2.46088e-07
-3.0756e-07
3.11361e-07
-3.20686e-07
3.76608e-07
-3.23727e-07
4.2668e-07
-2.29584e-07
4.69352e-07
-1.90985e-07
5.02379e-07
-1.42919e-07
5.24647e-07
-1.05489e-07
5.43177e-07
-9.01927e-08
5.46523e-07
-9.92679e-09
5.67732e-07
-1.1312e-07
5.75672e-07
-4.26499e-08
5.73467e-07
8.66494e-09
5.71017e-07
7.47185e-09
5.58748e-07
4.73177e-08
5.38063e-07
9.18165e-08
5.11412e-07
1.25768e-07
4.96896e-07
6.62853e-08
4.84007e-07
5.77455e-08
4.65486e-07
9.15006e-08
4.42129e-07
9.65313e-08
4.22068e-07
7.74065e-08
4.11523e-07
5.81352e-08
3.93397e-07
8.8051e-08
3.8322e-07
4.93484e-08
3.82369e-07
8.74793e-09
3.90189e-07
-4.08159e-08
4.08504e-07
-9.0031e-08
4.34896e-07
-1.25557e-07
4.75634e-07
-2.06332e-07
5.49431e-07
-3.73911e-07
6.2477e-07
-3.61746e-07
7.17723e-07
-4.33034e-07
8.40029e-07
-5.71302e-07
9.97547e-07
-8.01923e-07
1.15172e-06
-7.73496e-07
1.32689e-06
-7.93854e-07
1.54558e-06
-1.07019e-06
1.76311e-06
-1.05787e-06
1.97002e-06
-8.75347e-07
2.19551e-06
-1.04703e-06
2.35444e-06
-7.27374e-07
2.39977e-06
-5.46344e-08
2.36624e-06
3.11467e-07
2.31357e-06
3.28491e-07
2.24966e-06
3.35447e-07
2.09757e-06
7.85344e-07
1.93019e-06
8.63513e-07
1.81518e-06
5.50917e-07
1.75092e-06
2.59438e-07
1.65431e-06
4.77767e-07
1.56773e-06
3.91335e-07
1.53964e-06
3.26883e-08
1.45388e-06
3.86927e-07
1.36208e-06
3.83084e-07
1.30913e-06
1.21997e-07
1.23696e-06
3.00739e-07
1.16206e-06
3.10435e-07
1.13231e-06
5.95583e-08
1.12784e-06
-1.43197e-08
1.12819e-06
-2.54273e-09
1.20666e-06
-3.91226e-07
1.30206e-06
-4.17366e-07
1.49673e-06
-8.15062e-07
1.79554e-06
-1.42537e-06
2.06139e-06
-1.24065e-06
2.23843e-06
-6.33388e-07
2.37329e-06
-5.52533e-07
2.4546e-06
-3.72342e-07
2.30707e-06
8.53389e-07
2.14144e-06
8.92046e-07
2.00293e-06
6.47472e-07
1.86175e-06
6.12352e-07
1.76701e-06
4.39723e-07
1.70811e-06
2.47948e-07
1.75748e-06
-3.60444e-07
1.69649e-06
2.73131e-07
1.60404e-06
3.82579e-07
1.54673e-06
6.90461e-08
1.45921e-06
2.52063e-07
1.37818e-06
3.30038e-07
1.3009e-06
3.3474e-07
1.28488e-06
5.78373e-08
1.35143e-06
-3.12897e-07
1.43505e-06
-3.47431e-07
1.60393e-06
-6.75104e-07
1.81158e-06
-8.36122e-07
2.03915e-06
-1.06953e-06
2.20693e-06
-7.85195e-07
2.23837e-06
-8.59324e-09
2.26476e-06
-7.75503e-08
2.28908e-06
-1.19589e-07
2.18725e-06
5.46437e-07
2.06538e-06
6.53404e-07
1.99915e-06
3.00186e-07
1.96668e-06
6.80109e-08
1.9775e-06
-1.47487e-07
1.91114e-06
3.03051e-07
1.83001e-06
3.55461e-07
1.77928e-06
1.03554e-07
1.73165e-06
1.60076e-07
1.68851e-06
2.18838e-07
-5.56626e-08
-4.03424e-07
9.28817e-08
-4.20976e-07
1.06716e-07
-4.38434e-07
5.09324e-08
-4.71045e-07
9.71411e-08
-5.04112e-07
1.87821e-07
-5.26778e-07
1.52121e-07
-5.64798e-07
2.26962e-07
-6.00629e-07
2.08608e-07
-6.36494e-07
2.09729e-07
-6.70352e-07
1.9906e-07
-7.01454e-07
1.89208e-07
-7.2518e-07
1.48018e-07
-7.45647e-07
1.34727e-07
-7.56665e-07
8.05378e-08
-7.55916e-07
1.86086e-09
-7.53731e-07
-3.2261e-10
-7.42973e-07
-4.00329e-08
-7.2739e-07
-6.92373e-08
-7.01997e-07
-1.32163e-07
-6.67233e-07
-1.98575e-07
-6.31153e-07
-2.02432e-07
-5.95561e-07
-1.85523e-07
-5.55307e-07
-2.16635e-07
-5.0921e-07
-2.68538e-07
-4.62199e-07
-2.70843e-07
-4.20468e-07
-2.21336e-07
-3.72421e-07
-2.59984e-07
-3.24297e-07
-2.56819e-07
-2.65584e-07
-3.41063e-07
-2.09317e-07
-3.22635e-07
-1.5312e-07
-3.0009e-07
-8.91389e-08
-3.45122e-07
-1.91138e-08
-4.04886e-07
4.99044e-08
-3.90341e-07
1.19429e-07
-3.80994e-07
1.88294e-07
-3.69924e-07
2.58177e-07
-3.77605e-07
3.26399e-07
-3.88912e-07
3.9463e-07
-3.91966e-07
4.47838e-07
-2.82919e-07
4.9249e-07
-2.35742e-07
5.26253e-07
-1.7676e-07
5.49544e-07
-1.2878e-07
5.69031e-07
-1.09708e-07
5.72889e-07
-1.37752e-08
5.94892e-07
-1.35161e-07
6.02908e-07
-5.06548e-08
6.00576e-07
1.09486e-08
5.98025e-07
1.00304e-08
5.85441e-07
5.98484e-08
5.63875e-07
1.13379e-07
5.35793e-07
1.53793e-07
5.20477e-07
8.1586e-08
5.06981e-07
7.11819e-08
4.87907e-07
1.1055e-07
4.63437e-07
1.20942e-07
4.4218e-07
9.86278e-08
4.31175e-07
6.90859e-08
4.12244e-07
1.06932e-07
4.01655e-07
5.98899e-08
4.00792e-07
9.5531e-09
4.08906e-07
-4.89663e-08
4.28135e-07
-1.09317e-07
4.5581e-07
-1.53254e-07
4.98428e-07
-2.48999e-07
5.75541e-07
-4.51035e-07
6.5455e-07
-4.40788e-07
7.51922e-07
-5.30407e-07
8.79758e-07
-6.99158e-07
1.04438e-06
-9.66532e-07
1.20577e-06
-9.349e-07
1.38918e-06
-9.77248e-07
1.61756e-06
-1.29857e-06
1.84552e-06
-1.28582e-06
2.06202e-06
-1.09185e-06
2.29703e-06
-1.28203e-06
2.46322e-06
-8.93571e-07
2.5108e-06
-1.0222e-07
2.47562e-06
3.46641e-07
2.42054e-06
3.83561e-07
2.35376e-06
4.02219e-07
2.19457e-06
9.44533e-07
2.01946e-06
1.03862e-06
1.89922e-06
6.71153e-07
1.83173e-06
3.26927e-07
1.73059e-06
5.78902e-07
1.6401e-06
4.81829e-07
1.61052e-06
6.22566e-08
1.52084e-06
4.76614e-07
1.42487e-06
4.79054e-07
1.36935e-06
1.77511e-07
1.29391e-06
3.76186e-07
1.21561e-06
3.88725e-07
1.18443e-06
9.07383e-08
1.17973e-06
-9.62328e-09
1.18014e-06
-2.95244e-09
1.26203e-06
-4.73116e-07
1.36174e-06
-5.1708e-07
1.56551e-06
-1.01883e-06
1.87775e-06
-1.73761e-06
2.15989e-06
-1.52278e-06
2.34547e-06
-8.1897e-07
2.48264e-06
-6.89691e-07
2.56794e-06
-4.57645e-07
2.41389e-06
1.00745e-06
2.24054e-06
1.0654e-06
2.09567e-06
7.92346e-07
1.94767e-06
7.60356e-07
1.8484e-06
5.39001e-07
1.78942e-06
3.06933e-07
1.84072e-06
-4.11742e-07
1.77411e-06
3.39739e-07
1.67743e-06
4.7927e-07
1.6173e-06
1.2917e-07
1.52591e-06
3.43458e-07
1.44119e-06
4.1476e-07
1.3604e-06
4.15539e-07
1.34348e-06
7.47626e-08
1.41275e-06
-3.82174e-07
1.5003e-06
-4.34977e-07
1.67711e-06
-8.5191e-07
1.89436e-06
-1.05338e-06
2.13236e-06
-1.30753e-06
2.30804e-06
-9.60873e-07
2.34124e-06
-4.18005e-08
2.36867e-06
-1.04974e-07
2.39472e-06
-1.45639e-07
2.28826e-06
6.52904e-07
2.16024e-06
7.81424e-07
2.09092e-06
3.69512e-07
2.05677e-06
1.0216e-07
2.06781e-06
-1.58529e-07
1.99838e-06
3.7249e-07
1.9162e-06
4.37639e-07
1.86315e-06
1.56603e-07
1.81051e-06
2.12713e-07
1.76533e-06
2.64026e-07
-6.37383e-08
-4.33716e-07
1.12679e-07
-4.52452e-07
1.25461e-07
-4.70073e-07
6.84505e-08
-5.04557e-07
1.31223e-07
-5.4203e-07
2.2509e-07
-5.67287e-07
1.77075e-07
-6.07278e-07
2.6684e-07
-6.45137e-07
2.46475e-07
-6.82838e-07
2.47444e-07
-7.18257e-07
2.34418e-07
-7.50697e-07
2.21549e-07
-7.75027e-07
1.72353e-07
-7.95778e-07
1.55496e-07
-8.06625e-07
9.13884e-08
-8.0527e-07
5.22991e-10
-8.02463e-07
-3.12978e-09
-7.89951e-07
-5.25963e-08
-7.72222e-07
-8.70647e-08
-7.44369e-07
-1.60093e-07
-7.0726e-07
-2.35695e-07
-6.68804e-07
-2.4088e-07
-6.30065e-07
-2.24429e-07
-5.86368e-07
-2.60477e-07
-5.37267e-07
-3.17668e-07
-4.86949e-07
-3.21164e-07
-4.39226e-07
-2.69237e-07
-3.87095e-07
-3.12213e-07
-3.3709e-07
-3.07009e-07
-2.74979e-07
-4.03184e-07
-2.14974e-07
-3.82667e-07
-1.53907e-07
-3.61372e-07
-8.43295e-08
-4.14932e-07
-9.96165e-09
-4.79267e-07
6.42727e-08
-4.64596e-07
1.39145e-07
-4.56014e-07
2.13931e-07
-4.44942e-07
2.89791e-07
-4.53673e-07
3.6271e-07
-4.61836e-07
4.35548e-07
-4.64812e-07
4.93003e-07
-3.40514e-07
5.41673e-07
-2.84527e-07
5.78955e-07
-2.14139e-07
6.04135e-07
-1.5396e-07
6.25285e-07
-1.30888e-07
6.29942e-07
-1.8422e-08
6.52999e-07
-1.58258e-07
6.61302e-07
-5.89455e-08
6.58676e-07
1.35235e-08
6.55766e-07
1.29484e-08
6.41737e-07
7.38209e-08
6.18222e-07
1.36892e-07
5.87899e-07
1.84056e-07
5.71064e-07
9.84062e-08
5.56318e-07
8.58654e-08
5.3492e-07
1.31922e-07
5.07973e-07
1.47828e-07
4.85244e-07
1.21319e-07
4.73606e-07
8.06669e-08
4.53733e-07
1.26753e-07
4.4262e-07
7.09533e-08
4.42027e-07
1.00854e-08
4.50878e-07
-5.78553e-08
4.7144e-07
-1.29937e-07
5.01621e-07
-1.83459e-07
5.48681e-07
-2.96108e-07
6.30672e-07
-5.33037e-07
7.14577e-07
-5.24729e-07
8.20403e-07
-6.36235e-07
9.5886e-07
-8.37635e-07
1.13389e-06
-1.14155e-06
1.30684e-06
-1.10787e-06
1.50726e-06
-1.17765e-06
1.75199e-06
-1.5433e-06
1.9975e-06
-1.53132e-06
2.23972e-06
-1.33407e-06
2.49693e-06
-1.53923e-06
2.68266e-06
-1.07932e-06
2.75234e-06
-1.71896e-07
2.72929e-06
3.69675e-07
2.67732e-06
4.35531e-07
2.61035e-06
4.69183e-07
2.44201e-06
1.11286e-06
2.25517e-06
1.22546e-06
2.12286e-06
8.03459e-07
2.04037e-06
4.09417e-07
1.92825e-06
6.91012e-07
1.82636e-06
5.83717e-07
1.78213e-06
1.06481e-07
1.68065e-06
5.78096e-07
1.57222e-06
5.87483e-07
1.50161e-06
2.48121e-07
1.41668e-06
4.61121e-07
1.32992e-06
4.75482e-07
1.29138e-06
1.29277e-07
1.28463e-06
-2.88346e-09
1.28606e-06
-4.38354e-09
1.37337e-06
-5.60429e-07
1.48245e-06
-6.26153e-07
1.70965e-06
-1.24602e-06
2.04837e-06
-2.07633e-06
2.36046e-06
-1.83487e-06
2.58814e-06
-1.04665e-06
2.75299e-06
-8.54535e-07
2.85269e-06
-5.5734e-07
2.70081e-06
1.15934e-06
2.52105e-06
1.24517e-06
2.3619e-06
9.51502e-07
2.18975e-06
9.32507e-07
2.07555e-06
6.53213e-07
2.00405e-06
3.78434e-07
2.04332e-06
-4.51008e-07
1.96584e-06
4.17215e-07
1.85381e-06
5.91302e-07
1.77112e-06
2.11872e-07
1.65925e-06
4.55328e-07
1.56375e-06
5.1026e-07
1.47569e-06
5.03606e-07
1.45715e-06
9.33044e-08
1.53211e-06
-4.57133e-07
1.63033e-06
-5.33201e-07
1.833e-06
-1.05458e-06
2.08456e-06
-1.30493e-06
2.3492e-06
-1.57218e-06
2.54826e-06
-1.15993e-06
2.60108e-06
-9.46237e-08
2.63645e-06
-1.40341e-07
2.66683e-06
-1.76022e-07
2.55667e-06
7.63074e-07
2.42073e-06
9.17367e-07
2.34183e-06
4.48416e-07
2.29435e-06
1.49638e-07
2.29205e-06
-1.56223e-07
2.21083e-06
4.53711e-07
2.11601e-06
5.32457e-07
2.04521e-06
2.27401e-07
1.98197e-06
2.75954e-07
1.93324e-06
3.12757e-07
-7.14074e-08
-4.53942e-07
1.33416e-07
-4.73415e-07
1.44945e-07
-4.93186e-07
8.81795e-08
-5.29332e-07
1.67116e-07
-5.67444e-07
2.63078e-07
-5.93589e-07
2.02879e-07
-6.35158e-07
3.08241e-07
-6.75114e-07
2.86439e-07
-7.14521e-07
2.86866e-07
-7.51362e-07
2.7117e-07
-7.85272e-07
2.55331e-07
-8.11234e-07
1.9832e-07
-8.32889e-07
1.77169e-07
-8.43655e-07
1.02158e-07
-8.42207e-07
-9.07721e-10
-8.39282e-07
-6.05431e-09
-8.2635e-07
-6.551e-08
-8.07678e-07
-1.05741e-07
-7.78306e-07
-1.8945e-07
-7.39495e-07
-2.74517e-07
-6.99324e-07
-2.81044e-07
-6.58742e-07
-2.65032e-07
-6.12926e-07
-3.06292e-07
-5.6158e-07
-3.69043e-07
-5.08932e-07
-3.73815e-07
-4.58588e-07
-3.19614e-07
-4.0411e-07
-3.66699e-07
-3.51863e-07
-3.59288e-07
-2.86986e-07
-4.68071e-07
-2.24201e-07
-4.4548e-07
-1.60178e-07
-4.25408e-07
-8.73444e-08
-4.87791e-07
-9.68792e-09
-5.56938e-07
6.80008e-08
-5.42305e-07
1.46709e-07
-5.34736e-07
2.25007e-07
-5.23251e-07
3.04034e-07
-5.32709e-07
3.80236e-07
-5.38043e-07
4.56416e-07
-5.41e-07
5.1741e-07
-4.01522e-07
5.68327e-07
-3.35453e-07
6.06465e-07
-2.52301e-07
6.32799e-07
-1.80295e-07
6.55062e-07
-1.53182e-07
6.60335e-07
-2.36844e-08
6.84242e-07
-1.82207e-07
6.92608e-07
-6.72992e-08
6.89837e-07
1.62417e-08
6.86809e-07
1.59849e-08
6.72437e-07
8.81342e-08
6.47912e-07
1.61414e-07
6.15946e-07
2.15959e-07
5.98198e-07
1.16137e-07
5.82765e-07
1.01234e-07
5.60762e-07
1.53898e-07
5.32534e-07
1.75991e-07
5.08407e-07
1.45408e-07
4.96251e-07
9.27634e-08
4.75516e-07
1.47433e-07
4.63959e-07
8.24591e-08
4.63341e-07
1.06405e-08
4.72528e-07
-6.70814e-08
4.94107e-07
-1.51579e-07
5.25756e-07
-2.15133e-07
5.87982e-07
-3.58387e-07
6.7389e-07
-6.18956e-07
7.48635e-07
-5.99512e-07
8.59446e-07
-7.47046e-07
1.00411e-06
-9.82322e-07
1.18701e-06
-1.32444e-06
1.36806e-06
-1.28893e-06
1.57786e-06
-1.38743e-06
1.83339e-06
-1.79884e-06
2.09065e-06
-1.78857e-06
2.34407e-06
-1.58749e-06
2.61206e-06
-1.80722e-06
2.80622e-06
-1.27348e-06
2.87917e-06
-2.44848e-07
2.85494e-06
3.93892e-07
2.80056e-06
4.89901e-07
2.73062e-06
5.39112e-07
2.5545e-06
1.28898e-06
2.359e-06
1.42095e-06
2.22068e-06
9.41778e-07
2.13421e-06
4.95881e-07