/*--------------------------------*- C++ -*----------------------------------*\
| =========                 |                                                 |
| \\      /  F ield         | OpenFOAM: The Open Source CFD Toolbox           |
|  \\    /   O peration     | Version:  v2012                                 |
|   \\  /    A nd           | Website:  www.openfoam.com                      |
|    \\/     M anipulation  |                                                 |
\*---------------------------------------------------------------------------*/
FoamFile
{
    version     2.0;
    format      ascii;
    class       volScalarField;
    location    "1e-06";
    object      pMean;
}
// * * * * * * * * * * * * * * * * * * * * * * * * * * * * * * * * * * * * * //

dimensions      [1 -1 -2 0 0 0 0];


internalField   nonuniform List<scalar> 
10178
(
8.09666e+06
7.8073e+06
7.45833e+06
7.16158e+06
6.85524e+06
6.42843e+06
6.16329e+06
5.97023e+06
5.72965e+06
5.48538e+06
5.31951e+06
5.20695e+06
5.08433e+06
4.98185e+06
4.90359e+06
4.8114e+06
4.72478e+06
4.65811e+06
4.67219e+06
4.72648e+06
4.69596e+06
4.59035e+06
4.55247e+06
4.5778e+06
4.49729e+06
4.30691e+06
4.17595e+06
4.21027e+06
4.32305e+06
4.29996e+06
4.16897e+06
4.18271e+06
4.33781e+06
4.33218e+06
4.18041e+06
4.15918e+06
4.25381e+06
4.46647e+06
4.53108e+06
4.43805e+06
4.49887e+06
4.67492e+06
4.96373e+06
5.25004e+06
5.55802e+06
6.04051e+06
6.40366e+06
6.73864e+06
7.07833e+06
7.45585e+06
7.84779e+06
8.27618e+06
8.74586e+06
9.15359e+06
9.56537e+06
9.85456e+06
1.00389e+07
1.03422e+07
1.07814e+07
1.12344e+07
1.17805e+07
1.24361e+07
1.29592e+07
1.35854e+07
1.42668e+07
1.50755e+07
1.56534e+07
1.61217e+07
1.69191e+07
1.80609e+07
1.85873e+07
1.87405e+07
1.95209e+07
1.94262e+07
1.85338e+07
1.83525e+07
1.73934e+07
1.59975e+07
1.53402e+07
1.50221e+07
1.50174e+07
1.49062e+07
1.46716e+07
1.50379e+07
1.56263e+07
1.55542e+07
1.59146e+07
1.65991e+07
1.6492e+07
1.66833e+07
1.70675e+07
1.67041e+07
1.64583e+07
1.63114e+07
1.56523e+07
1.48057e+07
1.4078e+07
1.28487e+07
1.15982e+07
1.14164e+07
1.06655e+07
9.89743e+06
1.12512e+07
1.2721e+07
1.39283e+07
1.59705e+07
1.8423e+07
2.04578e+07
2.12953e+07
2.2115e+07
2.31165e+07
2.27179e+07
2.24489e+07
2.23594e+07
2.119e+07
1.92647e+07
1.73347e+07
1.54021e+07
1.32553e+07
1.08438e+07
8.4898e+06
6.91612e+06
6.61138e+06
5.94605e+06
5.27507e+06
5.97947e+06
6.73935e+06
7.30002e+06
8.03091e+06
9.00228e+06
9.74564e+06
9.66688e+06
8.55752e+06
7.53766e+06
6.62929e+06
4.83108e+06
2.72811e+06
1.00037e+06
8.09671e+06
7.80736e+06
7.45936e+06
7.1627e+06
6.85659e+06
6.42868e+06
6.16376e+06
5.97024e+06
5.72969e+06
5.48553e+06
5.31952e+06
5.20694e+06
5.08433e+06
4.98186e+06
4.90359e+06
4.81137e+06
4.72475e+06
4.6581e+06
4.67217e+06
4.72648e+06
4.69593e+06
4.59032e+06
4.55241e+06
4.57777e+06
4.49724e+06
4.30675e+06
4.176e+06
4.21021e+06
4.32303e+06
4.29994e+06
4.16895e+06
4.18263e+06
4.33777e+06
4.33218e+06
4.18041e+06
4.15914e+06
4.25369e+06
4.46644e+06
4.53106e+06
4.43802e+06
4.49882e+06
4.6748e+06
4.96367e+06
5.25e+06
5.55758e+06
6.03949e+06
6.40265e+06
6.73766e+06
7.07734e+06
7.45484e+06
7.84679e+06
8.27517e+06
8.74459e+06
9.15231e+06
9.56415e+06
9.85347e+06
1.00384e+07
1.03417e+07
1.07809e+07
1.12338e+07
1.17799e+07
1.24355e+07
1.29586e+07
1.35847e+07
1.42662e+07
1.50751e+07
1.56531e+07
1.61215e+07
1.69187e+07
1.80606e+07
1.85871e+07
1.87404e+07
1.95209e+07
1.94262e+07
1.85338e+07
1.83525e+07
1.73934e+07
1.59975e+07
1.53402e+07
1.50221e+07
1.50174e+07
1.49063e+07
1.46716e+07
1.50379e+07
1.56263e+07
1.55541e+07
1.59146e+07
1.65991e+07
1.64919e+07
1.66833e+07
1.70675e+07
1.67042e+07
1.64584e+07
1.63115e+07
1.56524e+07
1.48058e+07
1.40781e+07
1.28487e+07
1.15982e+07
1.14164e+07
1.06655e+07
9.89738e+06
1.1251e+07
1.27209e+07
1.39279e+07
1.59704e+07
1.84231e+07
2.04578e+07
2.12953e+07
2.2115e+07
2.31165e+07
2.27179e+07
2.2449e+07
2.23596e+07
2.11904e+07
1.92648e+07
1.73349e+07
1.54023e+07
1.32553e+07
1.08438e+07
8.4898e+06
6.91611e+06
6.61138e+06
5.94605e+06
5.27503e+06
5.97931e+06
6.73938e+06
7.29995e+06
8.03079e+06
9.00229e+06
9.7457e+06
9.66694e+06
8.55767e+06
7.53787e+06
6.62974e+06
4.83122e+06
2.72816e+06
1.00052e+06
8.09677e+06
7.80758e+06
7.46024e+06
7.16277e+06
6.85705e+06
6.42887e+06
6.16422e+06
5.97026e+06
5.72977e+06
5.48568e+06
5.31952e+06
5.20692e+06
5.08432e+06
4.98183e+06
4.90355e+06
4.81134e+06
4.7247e+06
4.65809e+06
4.67214e+06
4.72647e+06
4.6959e+06
4.59028e+06
4.55234e+06
4.57771e+06
4.49716e+06
4.30659e+06
4.17603e+06
4.21013e+06
4.323e+06
4.29991e+06
4.16891e+06
4.18253e+06
4.33771e+06
4.33214e+06
4.18038e+06
4.15908e+06
4.25354e+06
4.46638e+06
4.53101e+06
4.43797e+06
4.49875e+06
4.67466e+06
4.96359e+06
5.2499e+06
5.5573e+06
6.03883e+06
6.402e+06
6.73702e+06
7.07668e+06
7.45418e+06
7.84617e+06
8.27453e+06
8.74376e+06
9.15147e+06
9.5634e+06
9.85291e+06
1.00381e+07
1.03414e+07
1.07806e+07
1.12335e+07
1.17795e+07
1.24351e+07
1.29582e+07
1.35843e+07
1.42657e+07
1.50748e+07
1.56528e+07
1.61212e+07
1.69183e+07
1.80603e+07
1.85869e+07
1.87402e+07
1.95208e+07
1.94262e+07
1.85338e+07
1.83525e+07
1.73934e+07
1.59975e+07
1.53402e+07
1.50221e+07
1.50175e+07
1.49063e+07
1.46716e+07
1.50379e+07
1.56263e+07
1.55539e+07
1.59146e+07
1.65991e+07
1.64919e+07
1.66833e+07
1.70676e+07
1.67043e+07
1.64585e+07
1.63117e+07
1.56526e+07
1.48059e+07
1.40782e+07
1.28488e+07
1.15982e+07
1.14164e+07
1.06655e+07
9.89732e+06
1.12507e+07
1.27207e+07
1.39269e+07
1.59701e+07
1.84231e+07
2.04578e+07
2.12953e+07
2.2115e+07
2.31166e+07
2.2718e+07
2.24491e+07
2.23598e+07
2.1191e+07
1.9265e+07
1.73351e+07
1.54025e+07
1.32554e+07
1.08438e+07
8.48979e+06
6.91611e+06
6.61145e+06
5.94604e+06
5.27497e+06
5.97907e+06
6.73939e+06
7.29956e+06
8.03053e+06
9.00231e+06
9.74577e+06
9.66704e+06
8.55791e+06
7.53809e+06
6.63049e+06
4.83156e+06
2.72817e+06
1.00069e+06
8.09684e+06
7.80798e+06
7.46146e+06
7.16303e+06
6.85757e+06
6.4291e+06
6.16472e+06
5.97028e+06
5.72988e+06
5.48583e+06
5.31952e+06
5.2069e+06
5.08429e+06
4.98178e+06
4.90351e+06
4.8113e+06
4.72464e+06
4.65807e+06
4.67214e+06
4.72647e+06
4.69588e+06
4.59026e+06
4.55228e+06
4.57766e+06
4.4971e+06
4.30647e+06
4.17608e+06
4.21011e+06
4.32299e+06
4.29989e+06
4.16888e+06
4.18245e+06
4.33766e+06
4.33212e+06
4.18039e+06
4.15903e+06
4.25341e+06
4.46633e+06
4.53098e+06
4.43792e+06
4.49868e+06
4.67451e+06
4.9635e+06
5.24982e+06
5.55684e+06
6.03784e+06
6.40103e+06
6.73606e+06
7.07572e+06
7.45321e+06
7.84522e+06
8.27359e+06
8.74256e+06
9.15026e+06
9.56225e+06
9.85203e+06
1.00377e+07
1.03409e+07
1.07801e+07
1.1233e+07
1.17789e+07
1.24345e+07
1.29577e+07
1.35836e+07
1.4265e+07
1.50744e+07
1.56526e+07
1.61209e+07
1.69179e+07
1.806e+07
1.85868e+07
1.874e+07
1.95208e+07
1.94262e+07
1.85338e+07
1.83527e+07
1.73935e+07
1.59975e+07
1.53402e+07
1.50221e+07
1.50175e+07
1.49063e+07
1.46715e+07
1.50379e+07
1.56263e+07
1.55538e+07
1.59144e+07
1.65991e+07
1.64918e+07
1.66832e+07
1.70676e+07
1.67043e+07
1.64585e+07
1.63118e+07
1.56529e+07
1.48061e+07
1.40786e+07
1.2849e+07
1.15982e+07
1.14166e+07
1.06656e+07
9.89725e+06
1.12506e+07
1.27205e+07
1.39258e+07
1.59693e+07
1.84231e+07
2.04578e+07
2.12953e+07
2.21151e+07
2.31167e+07
2.27181e+07
2.24491e+07
2.236e+07
2.11917e+07
1.92652e+07
1.73352e+07
1.54027e+07
1.32557e+07
1.0844e+07
8.48984e+06
6.91611e+06
6.61178e+06
5.94604e+06
5.2749e+06
5.9788e+06
6.73942e+06
7.29904e+06
8.02992e+06
9.00233e+06
9.74584e+06
9.66715e+06
8.55809e+06
7.53816e+06
6.63139e+06
4.83191e+06
2.72817e+06
1.00088e+06
8.09691e+06
7.80858e+06
7.46258e+06
7.16324e+06
6.85811e+06
6.42929e+06
6.16524e+06
5.9703e+06
5.72999e+06
5.48597e+06
5.3195e+06
5.20687e+06
5.08424e+06
4.98172e+06
4.90346e+06
4.81123e+06
4.72456e+06
4.65806e+06
4.67214e+06
4.72649e+06
4.69586e+06
4.59024e+06
4.55223e+06
4.57763e+06
4.49706e+06
4.30637e+06
4.17598e+06
4.21012e+06
4.32299e+06
4.29989e+06
4.16886e+06
4.1824e+06
4.33765e+06
4.33213e+06
4.18045e+06
4.15901e+06
4.25332e+06
4.46632e+06
4.53097e+06
4.4379e+06
4.49863e+06
4.67438e+06
4.96342e+06
5.24974e+06
5.55649e+06
6.03697e+06
6.4002e+06
6.73524e+06
7.07489e+06
7.45236e+06
7.84437e+06
8.27273e+06
8.74147e+06
9.14916e+06
9.56119e+06
9.85106e+06
1.00373e+07
1.03405e+07
1.07796e+07
1.12325e+07
1.17784e+07
1.2434e+07
1.29571e+07
1.3583e+07
1.42644e+07
1.5074e+07
1.56523e+07
1.61206e+07
1.69175e+07
1.80598e+07
1.85866e+07
1.87398e+07
1.95208e+07
1.94262e+07
1.85338e+07
1.8353e+07
1.73937e+07
1.59976e+07
1.53402e+07
1.50221e+07
1.50175e+07
1.49062e+07
1.46715e+07
1.50379e+07
1.56263e+07
1.55536e+07
1.59141e+07
1.65991e+07
1.64917e+07
1.6683e+07
1.70676e+07
1.67043e+07
1.64585e+07
1.63119e+07
1.56532e+07
1.48063e+07
1.40791e+07
1.28494e+07
1.15983e+07
1.14169e+07
1.06661e+07
9.89718e+06
1.12506e+07
1.27204e+07
1.39247e+07
1.5968e+07
1.84231e+07
2.04578e+07
2.12952e+07
2.21151e+07
2.31168e+07
2.27181e+07
2.24491e+07
2.23603e+07
2.11925e+07
1.92652e+07
1.73352e+07
1.5403e+07
1.32562e+07
1.08444e+07
8.48991e+06
6.91614e+06
6.61215e+06
5.94629e+06
5.27484e+06
5.97847e+06
6.73947e+06
7.29846e+06
8.02925e+06
9.00232e+06
9.7459e+06
9.66727e+06
8.55818e+06
7.53815e+06
6.63235e+06
4.83233e+06
2.72816e+06
1.00112e+06
8.09705e+06
7.80933e+06
7.46388e+06
7.16402e+06
6.85875e+06
6.42969e+06
6.16579e+06
5.97036e+06
5.73013e+06
5.48613e+06
5.31951e+06
5.20687e+06
5.0842e+06
4.98163e+06
4.90338e+06
4.81113e+06
4.72443e+06
4.65803e+06
4.6721e+06
4.72647e+06
4.69582e+06
4.59018e+06
4.55212e+06
4.57755e+06
4.49698e+06
4.30623e+06
4.17625e+06
4.21009e+06
4.32295e+06
4.29984e+06
4.16878e+06
4.18222e+06
4.33754e+06
4.33206e+06
4.18039e+06
4.1589e+06
4.25311e+06
4.46622e+06
4.53089e+06
4.4378e+06
4.49851e+06
4.67417e+06
4.96326e+06
5.24956e+06
5.55598e+06
6.03588e+06
6.39911e+06
6.73416e+06
7.0738e+06
7.45127e+06
7.84332e+06
8.27171e+06
8.74014e+06
9.14781e+06
9.55991e+06
9.84997e+06
1.00368e+07
1.034e+07
1.0779e+07
1.12319e+07
1.17777e+07
1.24333e+07
1.29565e+07
1.35823e+07
1.42636e+07
1.50736e+07
1.56519e+07
1.61203e+07
1.69171e+07
1.80594e+07
1.85864e+07
1.87395e+07
1.95208e+07
1.94262e+07
1.85338e+07
1.8353e+07
1.73937e+07
1.59975e+07
1.53402e+07
1.50222e+07
1.50175e+07
1.49063e+07
1.46714e+07
1.5038e+07
1.56264e+07
1.55534e+07
1.59139e+07
1.65991e+07
1.64916e+07
1.6683e+07
1.70677e+07
1.67044e+07
1.64586e+07
1.63121e+07
1.56536e+07
1.48066e+07
1.40797e+07
1.28497e+07
1.15983e+07
1.14172e+07
1.0666e+07
9.89704e+06
1.12503e+07
1.27198e+07
1.39235e+07
1.59667e+07
1.84231e+07
2.04578e+07
2.12953e+07
2.21151e+07
2.3117e+07
2.27183e+07
2.24491e+07
2.23606e+07
2.11936e+07
1.92655e+07
1.73354e+07
1.54034e+07
1.32566e+07
1.08445e+07
8.4899e+06
6.91613e+06
6.61251e+06
5.94627e+06
5.27468e+06
5.97797e+06
6.7395e+06
7.29785e+06
8.02858e+06
9.00236e+06
9.74605e+06
9.66749e+06
8.55859e+06
7.5383e+06
6.6334e+06
4.83303e+06
2.72817e+06
1.00139e+06
8.0972e+06
7.81006e+06
7.46522e+06
7.16395e+06
6.85922e+06
6.43004e+06
6.16636e+06
5.97042e+06
5.73027e+06
5.48626e+06
5.31951e+06
5.20686e+06
5.08415e+06
4.98152e+06
4.90328e+06
4.811e+06
4.72427e+06
4.658e+06
4.67207e+06
4.72648e+06
4.69578e+06
4.59012e+06
4.55203e+06
4.57749e+06
4.49692e+06
4.30611e+06
4.17596e+06
4.21008e+06
4.32293e+06
4.2998e+06
4.16871e+06
4.18207e+06
4.33744e+06
4.33201e+06
4.18035e+06
4.1588e+06
4.25291e+06
4.46615e+06
4.53082e+06
4.43772e+06
4.4984e+06
4.67397e+06
4.96311e+06
5.24937e+06
5.55552e+06
6.03477e+06
6.39803e+06
6.73311e+06
7.07275e+06
7.45019e+06
7.84225e+06
8.27065e+06
8.73878e+06
9.14646e+06
9.55862e+06
9.84885e+06
1.00363e+07
1.03395e+07
1.07784e+07
1.12314e+07
1.1777e+07
1.24327e+07
1.29558e+07
1.35815e+07
1.42628e+07
1.50732e+07
1.56516e+07
1.61199e+07
1.69166e+07
1.8059e+07
1.85862e+07
1.87393e+07
1.95208e+07
1.94262e+07
1.85338e+07
1.83533e+07
1.73937e+07
1.59976e+07
1.53402e+07
1.50222e+07
1.50175e+07
1.49062e+07
1.46714e+07
1.5038e+07
1.56264e+07
1.55532e+07
1.59136e+07
1.65992e+07
1.64915e+07
1.66828e+07
1.70678e+07
1.67045e+07
1.64586e+07
1.63123e+07
1.5654e+07
1.4807e+07
1.40802e+07
1.28503e+07
1.15985e+07
1.14175e+07
1.06664e+07
9.8969e+06
1.12503e+07
1.27192e+07
1.39222e+07
1.59652e+07
1.84231e+07
2.04578e+07
2.12952e+07
2.21151e+07
2.31172e+07
2.27184e+07
2.24491e+07
2.23609e+07
2.11946e+07
1.92656e+07
1.73355e+07
1.54039e+07
1.32572e+07
1.0845e+07
8.48996e+06
6.91613e+06
6.61293e+06
5.94629e+06
5.27453e+06
5.97742e+06
6.73955e+06
7.29719e+06
8.02784e+06
9.00239e+06
9.74618e+06
9.66772e+06
8.55891e+06
7.53831e+06
6.6345e+06
4.83372e+06
2.72817e+06
1.0017e+06
8.09738e+06
7.81078e+06
7.46664e+06
7.1651e+06
6.85968e+06
6.43047e+06
6.16693e+06
5.9705e+06
5.73043e+06
5.48636e+06
5.31951e+06
5.20686e+06
5.08409e+06
4.98138e+06
4.90316e+06
4.81084e+06
4.72407e+06
4.65798e+06
4.67205e+06
4.72648e+06
4.69574e+06
4.59005e+06
4.55194e+06
4.57743e+06
4.49685e+06
4.30601e+06
4.17683e+06
4.21008e+06
4.3229e+06
4.29974e+06
4.16862e+06
4.1819e+06
4.33734e+06
4.33195e+06
4.18026e+06
4.1587e+06
4.25269e+06
4.46606e+06
4.53075e+06
4.43761e+06
4.49826e+06
4.67375e+06
4.96294e+06
5.24915e+06
5.55501e+06
6.03359e+06
6.39687e+06
6.73196e+06
7.07161e+06
7.44904e+06
7.84112e+06
8.26953e+06
8.73734e+06
9.14503e+06
9.55724e+06
9.84767e+06
1.00358e+07
1.03389e+07
1.07778e+07
1.12307e+07
1.17763e+07
1.24319e+07
1.29551e+07
1.35807e+07
1.4262e+07
1.50727e+07
1.56512e+07
1.61195e+07
1.69161e+07
1.80586e+07
1.85859e+07
1.8739e+07
1.95207e+07
1.94262e+07
1.85338e+07
1.83536e+07
1.73937e+07
1.59976e+07
1.53402e+07
1.50222e+07
1.50175e+07
1.49062e+07
1.46713e+07
1.5038e+07
1.56264e+07
1.55529e+07
1.59132e+07
1.65992e+07
1.64913e+07
1.66826e+07
1.70679e+07
1.67046e+07
1.64586e+07
1.63125e+07
1.56544e+07
1.48074e+07
1.40808e+07
1.2851e+07
1.15988e+07
1.14179e+07
1.06668e+07
9.89675e+06
1.12503e+07
1.27185e+07
1.39207e+07
1.59636e+07
1.84231e+07
2.04578e+07
2.12951e+07
2.21152e+07
2.31174e+07
2.27186e+07
2.24491e+07
2.23612e+07
2.11958e+07
1.92657e+07
1.73355e+07
1.54044e+07
1.3258e+07
1.08456e+07
8.49008e+06
6.91613e+06
6.6134e+06
5.94628e+06
5.27433e+06
5.97684e+06
6.7396e+06
7.29647e+06
8.02706e+06
9.00243e+06
9.74635e+06
9.668e+06
8.55923e+06
7.53833e+06
6.63565e+06
4.83444e+06
2.72817e+06
1.00206e+06
8.0976e+06
7.81152e+06
7.46813e+06
7.16604e+06
6.85999e+06
6.43114e+06
6.16768e+06
5.97058e+06
5.73059e+06
5.48647e+06
5.31948e+06
5.20686e+06
5.08402e+06
4.98122e+06
4.90301e+06
4.81064e+06
4.72386e+06
4.65795e+06
4.67203e+06
4.72648e+06
4.69569e+06
4.58998e+06
4.55185e+06
4.57736e+06
4.49679e+06
4.30593e+06
4.17722e+06
4.21007e+06
4.32288e+06
4.29969e+06
4.16852e+06
4.18172e+06
4.33723e+06
4.33187e+06
4.18016e+06
4.15859e+06
4.25245e+06
4.46596e+06
4.53067e+06
4.43749e+06
4.49811e+06
4.67351e+06
4.96275e+06
5.24892e+06
5.55445e+06
6.03233e+06
6.39562e+06
6.73071e+06
7.07038e+06
7.4478e+06
7.8399e+06
8.26834e+06
8.73579e+06
9.1435e+06
9.55577e+06
9.8464e+06
1.00352e+07
1.03383e+07
1.07772e+07
1.12301e+07
1.17756e+07
1.24312e+07
1.29544e+07
1.35798e+07
1.42611e+07
1.50722e+07
1.56508e+07
1.61191e+07
1.69155e+07
1.80581e+07
1.85857e+07
1.87388e+07
1.95207e+07
1.94262e+07
1.85338e+07
1.83539e+07
1.73937e+07
1.59976e+07
1.53402e+07
1.50222e+07
1.50175e+07
1.49061e+07
1.46711e+07
1.5038e+07
1.56264e+07
1.55527e+07
1.59128e+07
1.65992e+07
1.64912e+07
1.66823e+07
1.7068e+07
1.67046e+07
1.64586e+07
1.63127e+07
1.56549e+07
1.48079e+07
1.40814e+07
1.28517e+07
1.15992e+07
1.14183e+07
1.06672e+07
9.89659e+06
1.12504e+07
1.27178e+07
1.39192e+07
1.59619e+07
1.84227e+07
2.04578e+07
2.12947e+07
2.21152e+07
2.31177e+07
2.27187e+07
2.24491e+07
2.23616e+07
2.11969e+07
1.92658e+07
1.73355e+07
1.54049e+07
1.3259e+07
1.08466e+07
8.49067e+06
6.91623e+06
6.61392e+06
5.94663e+06
5.2741e+06
5.97624e+06
6.73966e+06
7.29569e+06
8.02621e+06
9.00248e+06
9.74653e+06
9.66832e+06
8.55946e+06
7.53834e+06
6.63686e+06
4.83513e+06
2.72816e+06
1.00247e+06
8.0979e+06
7.81228e+06
7.46968e+06
7.1672e+06
6.86039e+06
6.43164e+06
6.16805e+06
5.97067e+06
5.73077e+06
5.48651e+06
5.31944e+06
5.20685e+06
5.08394e+06
4.98103e+06
4.90285e+06
4.81046e+06
4.72365e+06
4.65793e+06
4.67202e+06
4.72651e+06
4.69565e+06
4.58991e+06
4.55178e+06
4.57732e+06
4.49673e+06
4.30589e+06
4.17778e+06
4.2101e+06
4.32289e+06
4.29964e+06
4.16844e+06
4.18155e+06
4.33715e+06
4.33184e+06
4.18007e+06
4.15851e+06
4.25224e+06
4.4659e+06
4.53062e+06
4.43739e+06
4.49797e+06
4.67325e+06
4.96254e+06
5.24867e+06
5.5539e+06
6.03101e+06
6.39435e+06
6.72944e+06
7.06912e+06
7.4465e+06
7.83861e+06
8.26707e+06
8.73417e+06
9.1419e+06
9.55421e+06
9.84507e+06
1.00346e+07
1.03377e+07
1.07765e+07
1.12294e+07
1.17748e+07
1.24304e+07
1.29536e+07
1.35789e+07
1.42602e+07
1.50716e+07
1.56504e+07
1.61186e+07
1.6915e+07
1.80577e+07
1.85855e+07
1.87385e+07
1.95207e+07
1.94263e+07
1.85338e+07
1.83542e+07
1.73938e+07
1.59976e+07
1.53403e+07
1.50222e+07
1.50175e+07
1.4906e+07
1.4671e+07
1.5038e+07
1.56264e+07
1.55524e+07
1.59124e+07
1.65992e+07
1.6491e+07
1.66821e+07
1.70681e+07
1.67046e+07
1.64586e+07
1.63129e+07
1.56553e+07
1.48083e+07
1.40821e+07
1.28526e+07
1.15996e+07
1.14189e+07
1.06678e+07
9.89644e+06
1.12504e+07
1.2717e+07
1.39175e+07
1.596e+07
1.84221e+07
2.04578e+07
2.12942e+07
2.21153e+07
2.3118e+07
2.27188e+07
2.24491e+07
2.23619e+07
2.11981e+07
1.92658e+07
1.73355e+07
1.54055e+07
1.32602e+07
1.08478e+07
8.49167e+06
6.91672e+06
6.61451e+06
5.94718e+06
5.27389e+06
5.97562e+06
6.73973e+06
7.29484e+06
8.02529e+06
9.00249e+06
9.74669e+06
9.66863e+06
8.55962e+06
7.53833e+06
6.63813e+06
4.83582e+06
2.72814e+06
1.00293e+06
8.09838e+06
7.81309e+06
7.47134e+06
7.16841e+06
6.86083e+06
6.43347e+06
6.16939e+06
5.97081e+06
5.73099e+06
5.48693e+06
5.31945e+06
5.20687e+06
5.08386e+06
4.98082e+06
4.90264e+06
4.81024e+06
4.7234e+06
4.65785e+06
4.67194e+06
4.72647e+06
4.69558e+06
4.58977e+06
4.55159e+06
4.5772e+06
4.49663e+06
4.30573e+06
4.17829e+06
4.21011e+06
4.32279e+06
4.29952e+06
4.16825e+06
4.18121e+06
4.33694e+06
4.33168e+06
4.17992e+06
4.1583e+06
4.2519e+06
4.46572e+06
4.53047e+06
4.43723e+06
4.49772e+06
4.67291e+06
4.96223e+06
5.24833e+06
5.55323e+06
6.02956e+06
6.39292e+06
6.728e+06
7.06768e+06
7.44507e+06
7.83721e+06
8.2657e+06
8.73241e+06
9.14016e+06
9.55254e+06
9.84363e+06
1.00339e+07
1.0337e+07
1.07757e+07
1.12286e+07
1.17739e+07
1.24295e+07
1.29527e+07
1.35779e+07
1.42591e+07
1.5071e+07
1.56499e+07
1.61181e+07
1.69143e+07
1.80571e+07
1.85851e+07
1.8738e+07
1.95205e+07
1.94262e+07
1.85338e+07
1.83542e+07
1.73937e+07
1.59976e+07
1.53403e+07
1.50222e+07
1.50176e+07
1.4906e+07
1.46708e+07
1.5038e+07
1.56265e+07
1.55521e+07
1.5912e+07
1.65993e+07
1.6491e+07
1.6682e+07
1.70682e+07
1.67048e+07
1.64587e+07
1.63132e+07
1.56559e+07
1.48089e+07
1.40828e+07
1.28534e+07
1.16e+07
1.14193e+07
1.06682e+07
9.89615e+06
1.12503e+07
1.27158e+07
1.39158e+07
1.59582e+07
1.84222e+07
2.04579e+07
2.12942e+07
2.21153e+07
2.31185e+07
2.27191e+07
2.24491e+07
2.23624e+07
2.11994e+07
1.92662e+07
1.73359e+07
1.54065e+07
1.32611e+07
1.08486e+07
8.49166e+06
6.9167e+06
6.61504e+06
5.94715e+06
5.27353e+06
5.97493e+06
6.73964e+06
7.29395e+06
8.0244e+06
9.00256e+06
9.747e+06
9.66909e+06
8.56059e+06
7.5386e+06
6.63952e+06
4.83708e+06
2.72823e+06
1.00347e+06
8.09896e+06
7.81394e+06
7.47307e+06
7.1697e+06
6.86132e+06
6.43506e+06
6.17051e+06
5.97097e+06
5.73122e+06
5.48728e+06
5.31946e+06
5.20688e+06
5.08377e+06
4.98058e+06
4.90244e+06
4.81001e+06
4.72314e+06
4.65778e+06
4.67186e+06
4.72645e+06
4.69551e+06
4.58963e+06
4.5514e+06
4.57709e+06
4.49652e+06
4.3056e+06
4.1788e+06
4.21016e+06
4.3227e+06
4.2994e+06
4.16805e+06
4.18088e+06
4.33672e+06
4.33153e+06
4.17976e+06
4.1581e+06
4.25155e+06
4.46556e+06
4.53032e+06
4.43709e+06
4.49748e+06
4.67256e+06
4.96189e+06
5.24796e+06
5.55253e+06
6.02805e+06
6.39142e+06
6.72649e+06
7.06619e+06
7.44358e+06
7.83574e+06
8.26426e+06
8.73057e+06
9.13834e+06
9.55076e+06
9.84212e+06
1.00332e+07
1.03363e+07
1.07749e+07
1.12278e+07
1.1773e+07
1.24285e+07
1.29518e+07
1.35769e+07
1.4258e+07
1.50703e+07
1.56493e+07
1.61175e+07
1.69136e+07
1.80565e+07
1.85847e+07
1.87376e+07
1.95204e+07
1.94261e+07
1.85338e+07
1.83542e+07
1.73937e+07
1.59976e+07
1.53403e+07
1.50222e+07
1.50176e+07
1.49059e+07
1.46707e+07
1.5038e+07
1.56265e+07
1.55518e+07
1.59116e+07
1.65993e+07
1.64909e+07
1.66818e+07
1.70684e+07
1.67049e+07
1.64588e+07
1.63134e+07
1.56564e+07
1.48094e+07
1.40835e+07
1.28542e+07
1.16004e+07
1.14197e+07
1.06687e+07
9.89588e+06
1.12503e+07
1.27146e+07
1.39138e+07
1.59563e+07
1.84222e+07
2.04579e+07
2.12942e+07
2.21154e+07
2.3119e+07
2.27193e+07
2.24491e+07
2.23629e+07
2.12008e+07
1.92665e+07
1.73363e+07
1.54075e+07
1.32623e+07
1.08498e+07
8.4922e+06
6.9167e+06
6.61566e+06
5.94717e+06
5.27315e+06
5.97422e+06
6.73954e+06
7.29299e+06
8.02342e+06
9.00262e+06
9.74731e+06
9.66958e+06
8.56151e+06
7.53872e+06
6.64097e+06
4.83836e+06
2.72831e+06
1.00407e+06
8.09966e+06
7.81482e+06
7.47488e+06
7.17105e+06
6.86185e+06
6.43682e+06
6.17174e+06
5.97119e+06
5.73148e+06
5.48765e+06
5.31947e+06
5.20689e+06
5.08367e+06
4.98032e+06
4.90223e+06
4.80978e+06
4.72287e+06
4.65769e+06
4.67177e+06
4.72642e+06
4.69543e+06
4.58947e+06
4.55118e+06
4.57697e+06
4.49641e+06
4.30547e+06
4.17932e+06
4.21018e+06
4.3226e+06
4.29925e+06
4.16783e+06
4.18051e+06
4.33647e+06
4.33136e+06
4.17959e+06
4.15787e+06
4.25117e+06
4.46537e+06
4.53016e+06
4.43693e+06
4.49721e+06
4.67218e+06
4.96151e+06
5.24757e+06
5.55177e+06
6.02645e+06
6.38982e+06
6.7249e+06
7.06462e+06
7.442e+06
7.83418e+06
8.26273e+06
8.72863e+06
9.13642e+06
9.54889e+06
9.84052e+06
1.00324e+07
1.03355e+07
1.07741e+07
1.1227e+07
1.17721e+07
1.24275e+07
1.29508e+07
1.35757e+07
1.42569e+07
1.50696e+07
1.56487e+07
1.61169e+07
1.69128e+07
1.80559e+07
1.85842e+07
1.87371e+07
1.95202e+07
1.94261e+07
1.85338e+07
1.83542e+07
1.73937e+07
1.59976e+07
1.53403e+07
1.50223e+07
1.50176e+07
1.49058e+07
1.46705e+07
1.5038e+07
1.56265e+07
1.55515e+07
1.59111e+07
1.65994e+07
1.64907e+07
1.66816e+07
1.70686e+07
1.67051e+07
1.64589e+07
1.63137e+07
1.56569e+07
1.481e+07
1.40843e+07
1.28551e+07
1.16009e+07
1.14203e+07
1.06692e+07
9.89558e+06
1.12503e+07
1.27132e+07
1.39118e+07
1.59542e+07
1.8422e+07
2.04579e+07
2.12942e+07
2.21155e+07
2.31195e+07
2.27195e+07
2.24491e+07
2.23634e+07
2.12022e+07
1.92667e+07
1.73367e+07
1.54086e+07
1.32636e+07
1.08512e+07
8.49313e+06
6.9167e+06
6.61633e+06
5.94715e+06
5.27272e+06
5.97348e+06
6.73936e+06
7.29195e+06
8.02237e+06
9.00269e+06
9.74766e+06
9.67013e+06
8.56254e+06
7.53886e+06
6.6425e+06
4.83968e+06
2.72853e+06
1.00473e+06
8.1004e+06
7.81574e+06
7.47677e+06
7.17245e+06
6.86243e+06
6.43866e+06
6.17301e+06
5.97147e+06
5.73176e+06
5.48803e+06
5.31947e+06
5.20689e+06
5.08355e+06
4.98005e+06
4.90201e+06
4.80953e+06
4.72258e+06
4.65758e+06
4.67167e+06
4.7264e+06
4.69535e+06
4.58929e+06
4.55094e+06
4.57684e+06
4.49628e+06
4.30535e+06
4.17984e+06
4.21017e+06
4.32248e+06
4.29909e+06
4.16757e+06
4.18012e+06
4.3362e+06
4.33116e+06
4.17939e+06
4.1576e+06
4.25076e+06
4.46517e+06
4.52998e+06
4.43675e+06
4.49691e+06
4.67177e+06
4.96109e+06
5.24715e+06
5.55097e+06
6.02476e+06
6.38814e+06
6.7232e+06
7.06295e+06
7.44031e+06
7.83252e+06
8.26112e+06
8.72657e+06
9.13439e+06
9.54691e+06
9.83882e+06
1.00316e+07
1.03347e+07
1.07732e+07
1.12261e+07
1.17711e+07
1.24265e+07
1.29498e+07
1.35745e+07
1.42556e+07
1.50689e+07
1.56481e+07
1.61162e+07
1.69119e+07
1.80552e+07
1.85837e+07
1.87366e+07
1.952e+07
1.9426e+07
1.85337e+07
1.83543e+07
1.73937e+07
1.59976e+07
1.53403e+07
1.50223e+07
1.50176e+07
1.49056e+07
1.46703e+07
1.5038e+07
1.56265e+07
1.55512e+07
1.59107e+07
1.65994e+07
1.64906e+07
1.66813e+07
1.70688e+07
1.67052e+07
1.64591e+07
1.6314e+07
1.56575e+07
1.48107e+07
1.40851e+07
1.28561e+07
1.16014e+07
1.14208e+07
1.06698e+07
9.89528e+06
1.12504e+07
1.27118e+07
1.39096e+07
1.5952e+07
1.84215e+07
2.04579e+07
2.12939e+07
2.21156e+07
2.31201e+07
2.27197e+07
2.24491e+07
2.23639e+07
2.12037e+07
1.92669e+07
1.73372e+07
1.54099e+07
1.32651e+07
1.0853e+07
8.49457e+06
6.91721e+06
6.61706e+06
5.94714e+06
5.27224e+06
5.97271e+06
6.73913e+06
7.29082e+06
8.02125e+06
9.00276e+06
9.74803e+06
9.67073e+06
8.56359e+06
7.53893e+06
6.64411e+06
4.84106e+06
2.72882e+06
1.00545e+06
8.10119e+06
7.8167e+06
7.47876e+06
7.17393e+06
6.86305e+06
6.44054e+06
6.17432e+06
5.97183e+06
5.73204e+06
5.48842e+06
5.31946e+06
5.20669e+06
5.08343e+06
4.97977e+06
4.90178e+06
4.80926e+06
4.72227e+06
4.65745e+06
4.67156e+06
4.72636e+06
4.69525e+06
4.58909e+06
4.55067e+06
4.5767e+06
4.49614e+06
4.30523e+06
4.18036e+06
4.21012e+06
4.32233e+06
4.2989e+06
4.16728e+06
4.17968e+06
4.3359e+06
4.33093e+06
4.17916e+06
4.15731e+06
4.25031e+06
4.46493e+06
4.52978e+06
4.43654e+06
4.49657e+06
4.67131e+06
4.96064e+06
5.24669e+06
5.5501e+06
6.02298e+06
6.38636e+06
6.7214e+06
7.06118e+06
7.43854e+06
7.83077e+06
8.25942e+06
8.72441e+06
9.13226e+06
9.54481e+06
9.83703e+06
1.00308e+07
1.03339e+07
1.07722e+07
1.12252e+07
1.177e+07
1.24253e+07
1.29487e+07
1.35732e+07
1.42543e+07
1.5068e+07
1.56474e+07
1.61154e+07
1.6911e+07
1.80544e+07
1.85832e+07
1.8736e+07
1.95198e+07
1.94259e+07
1.85337e+07
1.83543e+07
1.73937e+07
1.59976e+07
1.53402e+07
1.50223e+07
1.50177e+07
1.49055e+07
1.46701e+07
1.5038e+07
1.56266e+07
1.55508e+07
1.59102e+07
1.65996e+07
1.64905e+07
1.6681e+07
1.70691e+07
1.67054e+07
1.64592e+07
1.63144e+07
1.56581e+07
1.48113e+07
1.4086e+07
1.28571e+07
1.1602e+07
1.14214e+07
1.06704e+07
9.89496e+06
1.12505e+07
1.27103e+07
1.39072e+07
1.59497e+07
1.84208e+07
2.04579e+07
2.12936e+07
2.21157e+07
2.31208e+07
2.27199e+07
2.2449e+07
2.23645e+07
2.12052e+07
1.92672e+07
1.73378e+07
1.54114e+07
1.32667e+07
1.0855e+07
8.49645e+06
6.91804e+06
6.61786e+06
5.94712e+06
5.2717e+06
5.9719e+06
6.73876e+06
7.28961e+06
8.02007e+06
9.00284e+06
9.74846e+06
9.67141e+06
8.5647e+06
7.53906e+06
6.6458e+06
4.84252e+06
2.72928e+06
1.00626e+06
8.102e+06
7.81771e+06
7.48083e+06
7.17549e+06
6.86371e+06
6.4424e+06
6.17569e+06
5.97227e+06
5.73234e+06
5.48882e+06
5.31944e+06
5.20647e+06
5.08329e+06
4.97947e+06
4.90153e+06
4.80899e+06
4.72195e+06
4.65729e+06
4.67145e+06
4.72633e+06
4.69515e+06
4.58885e+06
4.55037e+06
4.57654e+06
4.49599e+06
4.3051e+06
4.18088e+06
4.21005e+06
4.32216e+06
4.29869e+06
4.16696e+06
4.17919e+06
4.33556e+06
4.33067e+06
4.17889e+06
4.15697e+06
4.24982e+06
4.46467e+06
4.52955e+06
4.4363e+06
4.49619e+06
4.67081e+06
4.96015e+06
5.24619e+06
5.54918e+06
6.0211e+06
6.38447e+06
6.71949e+06
7.05931e+06
7.43666e+06
7.82892e+06
8.25762e+06
8.72213e+06
9.13001e+06
9.54259e+06
9.83515e+06
1.00298e+07
1.0333e+07
1.07712e+07
1.12241e+07
1.17689e+07
1.24241e+07
1.29476e+07
1.35719e+07
1.42529e+07
1.50672e+07
1.56466e+07
1.61146e+07
1.691e+07
1.80536e+07
1.85826e+07
1.87353e+07
1.95195e+07
1.94257e+07
1.85336e+07
1.83543e+07
1.73937e+07
1.59976e+07
1.53401e+07
1.50224e+07
1.50177e+07
1.49053e+07
1.46698e+07
1.5038e+07
1.56266e+07
1.55504e+07
1.59096e+07
1.65997e+07
1.64905e+07
1.66807e+07
1.70693e+07
1.67056e+07
1.64593e+07
1.63147e+07
1.56587e+07
1.4812e+07
1.40869e+07
1.28581e+07
1.16026e+07
1.14221e+07
1.06711e+07
9.89463e+06
1.12506e+07
1.27088e+07
1.39046e+07
1.59473e+07
1.84197e+07
2.04579e+07
2.12931e+07
2.21158e+07
2.31216e+07
2.27201e+07
2.24489e+07
2.23651e+07
2.12068e+07
1.92674e+07
1.73384e+07
1.54131e+07
1.32685e+07
1.08574e+07
8.49858e+06
6.91895e+06
6.61873e+06
5.9471e+06
5.27112e+06
5.97106e+06
6.73828e+06
7.2883e+06
8.01882e+06
9.00293e+06
9.74892e+06
9.67215e+06
8.56585e+06
7.53915e+06
6.64758e+06
4.84407e+06
2.72988e+06
1.00712e+06
8.10286e+06
7.81876e+06
7.483e+06
7.17714e+06
6.86443e+06
6.44428e+06
6.17711e+06
5.97278e+06
5.73264e+06
5.48923e+06
5.31941e+06
5.20625e+06
5.08315e+06
4.97916e+06
4.90127e+06
4.80869e+06
4.7216e+06
4.65717e+06
4.6713e+06
4.72628e+06
4.69503e+06
4.58859e+06
4.55001e+06
4.57636e+06
4.49581e+06
4.30496e+06
4.1814e+06
4.20993e+06
4.32195e+06
4.29846e+06
4.16658e+06
4.17866e+06
4.33517e+06
4.33037e+06
4.17859e+06
4.15659e+06
4.24928e+06
4.46438e+06
4.52929e+06
4.43603e+06
4.49577e+06
4.67026e+06
4.95962e+06
5.24564e+06
5.54818e+06
6.01913e+06
6.38249e+06
6.71747e+06
7.05734e+06
7.43467e+06
7.82695e+06
8.25573e+06
8.71973e+06
9.12765e+06
9.54025e+06
9.83316e+06
1.00288e+07
1.0332e+07
1.07701e+07
1.12231e+07
1.17677e+07
1.24228e+07
1.29463e+07
1.35704e+07
1.42514e+07
1.50662e+07
1.56458e+07
1.61137e+07
1.6909e+07
1.80526e+07
1.85819e+07
1.87346e+07
1.95191e+07
1.94255e+07
1.85335e+07
1.83543e+07
1.73937e+07
1.59976e+07
1.534e+07
1.50224e+07
1.50177e+07
1.49051e+07
1.46695e+07
1.5038e+07
1.56267e+07
1.555e+07
1.59091e+07
1.65999e+07
1.64905e+07
1.66805e+07
1.70696e+07
1.67058e+07
1.64595e+07
1.63152e+07
1.56594e+07
1.48128e+07
1.40878e+07
1.28593e+07
1.16032e+07
1.14228e+07
1.06718e+07
9.89428e+06
1.12508e+07
1.27071e+07
1.39019e+07
1.59448e+07
1.84184e+07
2.04578e+07
2.12927e+07
2.21159e+07
2.31225e+07
2.27204e+07
2.24489e+07
2.23658e+07
2.12085e+07
1.92676e+07
1.73393e+07
1.5415e+07
1.32705e+07
1.086e+07
8.50082e+06
6.91991e+06
6.61966e+06
5.94709e+06
5.27046e+06
5.97017e+06
6.73756e+06
7.28688e+06
8.01749e+06
9.00302e+06
9.74943e+06
9.67298e+06
8.56706e+06
7.53939e+06
6.64946e+06
4.84582e+06
2.73075e+06
1.0081e+06
8.10376e+06
7.81986e+06
7.48527e+06
7.1789e+06
6.86521e+06
6.44625e+06
6.17859e+06
5.97334e+06
5.73296e+06
5.48965e+06
5.31942e+06
5.20601e+06
5.083e+06
4.97883e+06
4.90099e+06
4.80836e+06
4.72121e+06
4.65684e+06
4.67112e+06
4.72618e+06
4.69489e+06
4.58828e+06
4.5496e+06
4.57612e+06
4.49558e+06
4.30478e+06
4.18189e+06
4.20977e+06
4.32163e+06
4.29816e+06
4.16614e+06
4.17803e+06
4.3347e+06
4.32998e+06
4.1782e+06
4.15614e+06
4.24865e+06
4.46398e+06
4.52893e+06
4.43565e+06
4.49527e+06
4.66961e+06
4.959e+06
5.24502e+06
5.5471e+06
6.01698e+06
6.38039e+06
6.71533e+06
7.05523e+06
7.43256e+06
7.82487e+06
8.25373e+06
8.7172e+06
9.12517e+06
9.53778e+06
9.83106e+06
1.00278e+07
1.0331e+07
1.07689e+07
1.12219e+07
1.17663e+07
1.24214e+07
1.2945e+07
1.35689e+07
1.42498e+07
1.50651e+07
1.56448e+07
1.61127e+07
1.69078e+07
1.80516e+07
1.8581e+07
1.87337e+07
1.95186e+07
1.94252e+07
1.85332e+07
1.83543e+07
1.73936e+07
1.59975e+07
1.53398e+07
1.50224e+07
1.50178e+07
1.4905e+07
1.46692e+07
1.50381e+07
1.56268e+07
1.55496e+07
1.59085e+07
1.66001e+07
1.64905e+07
1.66805e+07
1.707e+07
1.67061e+07
1.64597e+07
1.63156e+07
1.56602e+07
1.48136e+07
1.40888e+07
1.28605e+07
1.16039e+07
1.14235e+07
1.06724e+07
9.89388e+06
1.12509e+07
1.27053e+07