/*--------------------------------*- C++ -*----------------------------------*\
| =========                 |                                                 |
| \\      /  F ield         | OpenFOAM: The Open Source CFD Toolbox           |
|  \\    /   O peration     | Version:  v2012                                 |
|   \\  /    A nd           | Website:  www.openfoam.com                      |
|    \\/     M anipulation  |                                                 |
\*---------------------------------------------------------------------------*/
FoamFile
{
    version     2.0;
    format      ascii;
    class       volScalarField;
    location    "1e-06";
    object      totalPPrime2Mean;
}
// * * * * * * * * * * * * * * * * * * * * * * * * * * * * * * * * * * * * * //

dimensions      [2 -2 -4 0 0 0 0];


internalField   nonuniform List<scalar> 
10178
(
9.5147e+13
1.00521e+14
1.1743e+14
1.21428e+14
1.33612e+14
1.74367e+14
1.56698e+14
1.30825e+14
1.20903e+14
1.15957e+14
1.00076e+14
8.61436e+13
7.36299e+13
6.2568e+13
5.29948e+13
4.52977e+13
3.93196e+13
3.48753e+13
2.77896e+13
2.29336e+13
1.97259e+13
1.74036e+13
1.57437e+13
1.48734e+13
1.4123e+13
1.38664e+13
1.7627e+13
1.22141e+13
1.14066e+13
1.07686e+13
9.50729e+12
9.36424e+12
1.05394e+13
1.02586e+13
8.31527e+12
7.39214e+12
7.73676e+12
9.00716e+12
8.39819e+12
6.00469e+12
4.92097e+12
4.98364e+12
6.04085e+12
7.33742e+12
9.16555e+12
1.32461e+13
1.60424e+13
1.83578e+13
2.09578e+13
2.47297e+13
2.9659e+13
3.64923e+13
4.58992e+13
5.54743e+13
6.64848e+13
7.50529e+13
8.15431e+13
9.43733e+13
1.16098e+14
1.43641e+14
1.81326e+14
2.30479e+14
2.79391e+14
3.39911e+14
4.12218e+14
4.97742e+14
5.68261e+14
6.3115e+14
7.32057e+14
8.71263e+14
9.45443e+14
9.75454e+14
1.05931e+15
1.03752e+15
9.2231e+14
8.71242e+14
7.4544e+14
5.95294e+14
5.252e+14
5.01765e+14
5.09926e+14
5.12474e+14
5.10502e+14
5.62542e+14
6.38637e+14
6.63956e+14
7.27473e+14
8.21523e+14
8.44273e+14
8.90139e+14
9.49483e+14
9.27061e+14
9.06495e+14
8.89345e+14
8.11992e+14
7.11747e+14
6.19131e+14
4.90079e+14
3.81916e+14
3.54592e+14
3.01032e+14
2.67524e+14
3.78755e+14
5.52359e+14
7.47949e+14
1.08038e+15
1.55018e+15
2.01056e+15
2.27959e+15
2.52278e+15
2.77182e+15
2.74928e+15
2.70986e+15
2.67041e+15
2.39902e+15
1.97591e+15
1.57059e+15
1.20504e+15
8.59198e+14
5.44293e+14
3.11247e+14
1.94102e+14
1.65377e+14
1.32573e+14
1.09852e+14
1.48369e+14
2.07056e+14
2.6609e+14
3.43836e+14
4.50767e+14
5.42862e+14
5.43372e+14
4.42587e+14
3.47345e+14
2.60405e+14
1.41241e+14
4.58389e+13
5.21017e+12
9.51465e+13
1.00517e+14
1.1723e+14
1.21442e+14
1.33614e+14
1.74301e+14
1.56654e+14
1.30824e+14
1.20902e+14
1.15953e+14
1.00076e+14
8.61436e+13
7.36299e+13
6.2568e+13
5.29948e+13
4.52976e+13
3.93194e+13
3.48756e+13
2.77897e+13
2.29336e+13
1.97257e+13
1.74035e+13
1.57434e+13
1.48731e+13
1.41224e+13
1.38641e+13
1.76285e+13
1.2214e+13
1.14065e+13
1.07686e+13
9.50722e+12
9.36376e+12
1.05392e+13
1.02585e+13
8.31539e+12
7.39212e+12
7.73585e+12
9.00722e+12
8.39827e+12
6.00473e+12
4.92096e+12
4.9829e+12
6.04071e+12
7.33715e+12
9.16177e+12
1.32347e+13
1.60304e+13
1.83453e+13
2.09443e+13
2.47146e+13
2.96424e+13
3.64733e+13
4.58716e+13
5.54434e+13
6.64524e+13
7.5023e+13
8.15282e+13
9.43561e+13
1.16077e+14
1.43617e+14
1.81295e+14
2.30444e+14
2.79353e+14
3.39864e+14
4.12164e+14
4.97709e+14
5.68235e+14
6.31121e+14
7.32014e+14
8.71228e+14
9.45424e+14
9.75432e+14
1.05931e+15
1.03752e+15
9.22309e+14
8.71242e+14
7.45439e+14
5.95294e+14
5.252e+14
5.01766e+14
5.09926e+14
5.12474e+14
5.10502e+14
5.62543e+14
6.38637e+14
6.63947e+14
7.27473e+14
8.21523e+14
8.4427e+14
8.90139e+14
9.49485e+14
9.27066e+14
9.06504e+14
8.89361e+14
8.12005e+14
7.11757e+14
6.19138e+14
4.9008e+14
3.81916e+14
3.54592e+14
3.01031e+14
2.6752e+14
3.78732e+14
5.52347e+14
7.47883e+14
1.08036e+15
1.55018e+15
2.01056e+15
2.27959e+15
2.52278e+15
2.77183e+15
2.74928e+15
2.70988e+15
2.67045e+15
2.39909e+15
1.97593e+15
1.57062e+15
1.20506e+15
8.59199e+14
5.44293e+14
3.11247e+14
1.94102e+14
1.65377e+14
1.32573e+14
1.0985e+14
1.48359e+14
2.07056e+14
2.66081e+14
3.43824e+14
4.50767e+14
5.42865e+14
5.43374e+14
4.42593e+14
3.47363e+14
2.6044e+14
1.41246e+14
4.58395e+13
5.21147e+12
9.51448e+13
1.00512e+14
1.17016e+14
1.21432e+14
1.33581e+14
1.74231e+14
1.56599e+14
1.30822e+14
1.20901e+14
1.15949e+14
1.00076e+14
8.61437e+13
7.363e+13
6.2568e+13
5.29947e+13
4.52974e+13
3.93192e+13
3.48762e+13
2.77898e+13
2.29336e+13
1.97255e+13
1.74033e+13
1.5743e+13
1.48727e+13
1.41215e+13
1.38616e+13
1.76296e+13
1.22138e+13
1.14066e+13
1.07686e+13
9.5071e+12
9.36311e+12
1.0539e+13
1.02584e+13
8.31546e+12
7.39204e+12
7.73482e+12
9.00732e+12
8.3984e+12
6.00476e+12
4.9209e+12
4.98206e+12
6.04044e+12
7.33658e+12
9.15732e+12
1.32212e+13
1.60159e+13
1.83302e+13
2.09281e+13
2.46967e+13
2.96229e+13
3.64512e+13
4.5839e+13
5.54067e+13
6.64142e+13
7.49896e+13
8.15111e+13
9.43365e+13
1.16053e+14
1.43589e+14
1.8126e+14
2.30405e+14
2.79309e+14
3.3981e+14
4.12103e+14
4.97672e+14
5.68207e+14
6.3109e+14
7.31968e+14
8.71187e+14
9.45403e+14
9.75408e+14
1.05931e+15
1.03752e+15
9.22309e+14
8.71242e+14
7.45439e+14
5.95293e+14
5.252e+14
5.01767e+14
5.09927e+14
5.12474e+14
5.10501e+14
5.62543e+14
6.38637e+14
6.63927e+14
7.27473e+14
8.21523e+14
8.44266e+14
8.90139e+14
9.49489e+14
9.27077e+14
9.06514e+14
8.89379e+14
8.12033e+14
7.11774e+14
6.19161e+14
4.90082e+14
3.81916e+14
3.54592e+14
3.01031e+14
2.67515e+14
3.78704e+14
5.52321e+14
7.47744e+14
1.08031e+15
1.55018e+15
2.01056e+15
2.27959e+15
2.52278e+15
2.77184e+15
2.7493e+15
2.7099e+15
2.67051e+15
2.39924e+15
1.97596e+15
1.57065e+15
1.20509e+15
8.5921e+14
5.44293e+14
3.11247e+14
1.94102e+14
1.65381e+14
1.32573e+14
1.09847e+14
1.48344e+14
2.07056e+14
2.66048e+14
3.43797e+14
4.50767e+14
5.4287e+14
5.4338e+14
4.42609e+14
3.47381e+14
2.60501e+14
1.41262e+14
4.58394e+13
5.21304e+12
9.51421e+13
1.00503e+14
1.16803e+14
1.2142e+14
1.33542e+14
1.74166e+14
1.56541e+14
1.30818e+14
1.209e+14
1.15946e+14
1.00076e+14
8.61438e+13
7.36301e+13
6.25681e+13
5.29946e+13
4.52971e+13
3.93187e+13
3.48771e+13
2.77898e+13
2.29335e+13
1.97253e+13
1.74033e+13
1.57427e+13
1.48721e+13
1.41207e+13
1.38589e+13
1.7626e+13
1.22138e+13
1.14067e+13
1.07686e+13
9.50697e+12
9.36251e+12
1.0539e+13
1.02584e+13
8.31578e+12
7.39197e+12
7.7339e+12
9.00751e+12
8.39862e+12
6.00481e+12
4.92082e+12
4.98116e+12
6.04014e+12
7.33608e+12
9.15269e+12
1.32068e+13
1.60004e+13
1.83139e+13
2.09106e+13
2.46774e+13
2.96019e+13
3.64275e+13
4.58044e+13
5.53679e+13
6.63734e+13
7.49544e+13
8.14933e+13
9.43159e+13
1.16028e+14
1.4356e+14
1.81223e+14
2.30364e+14
2.79264e+14
3.39754e+14
4.1204e+14
4.97633e+14
5.68178e+14
6.31057e+14
7.3192e+14
8.71146e+14
9.45381e+14
9.75384e+14
1.05931e+15
1.03752e+15
9.22309e+14
8.71275e+14
7.45446e+14
5.95292e+14
5.252e+14
5.01767e+14
5.09927e+14
5.12472e+14
5.10497e+14
5.62543e+14
6.38637e+14
6.63904e+14
7.27453e+14
8.21523e+14
8.44249e+14
8.9013e+14
9.49494e+14
9.2708e+14
9.06518e+14
8.89399e+14
8.12072e+14
7.11794e+14
6.19212e+14
4.90105e+14
3.81915e+14
3.54616e+14
3.01044e+14
2.67509e+14
3.78692e+14
5.52298e+14
7.47593e+14
1.08017e+15
1.55018e+15
2.01056e+15
2.27959e+15
2.52278e+15
2.77186e+15
2.74931e+15
2.7099e+15
2.67056e+15
2.3994e+15
1.97598e+15
1.57066e+15
1.20512e+15
8.59248e+14
5.44305e+14
3.11245e+14
1.94102e+14
1.65402e+14
1.32573e+14
1.09843e+14
1.48326e+14
2.07056e+14
2.66003e+14
3.43737e+14
4.50767e+14
5.42877e+14
5.43388e+14
4.42616e+14
3.47386e+14
2.60574e+14
1.41281e+14
4.58393e+13
5.21489e+12
9.51379e+13
1.00492e+14
1.16582e+14
1.2141e+14
1.335e+14
1.74093e+14
1.56482e+14
1.30813e+14
1.20899e+14
1.15943e+14
1.00076e+14
8.61439e+13
7.36303e+13
6.25683e+13
5.29944e+13
4.52967e+13
3.93181e+13
3.48785e+13
2.77897e+13
2.29334e+13
1.9725e+13
1.74032e+13
1.57422e+13
1.48716e+13
1.41198e+13
1.38559e+13
1.7623e+13
1.22136e+13
1.14067e+13
1.07686e+13
9.50677e+12
9.36189e+12
1.05389e+13
1.02583e+13
8.31624e+12
7.39177e+12
7.73295e+12
9.00763e+12
8.39891e+12
6.00479e+12
4.92065e+12
4.98014e+12
6.03972e+12
7.33556e+12
9.14752e+12
1.31911e+13
1.59833e+13
1.8296e+13
2.08914e+13
2.46561e+13
2.95789e+13
3.64016e+13
4.57663e+13
5.53252e+13
6.63285e+13
7.49137e+13
8.14734e+13
9.42932e+13
1.16e+14
1.43528e+14
1.81183e+14
2.30319e+14
2.79215e+14
3.39694e+14
4.11973e+14
4.97591e+14
5.68147e+14
6.31022e+14
7.3187e+14
8.71117e+14
9.45358e+14
9.75359e+14
1.05931e+15
1.03752e+15
9.22308e+14
8.71314e+14
7.45467e+14
5.95291e+14
5.25199e+14
5.01766e+14
5.09927e+14
5.12468e+14
5.10491e+14
5.62543e+14
6.38638e+14
6.63879e+14
7.27412e+14
8.21523e+14
8.4423e+14
8.90102e+14
9.49501e+14
9.2708e+14
9.06518e+14
8.89421e+14
8.12122e+14
7.1182e+14
6.19276e+14
4.90146e+14
3.81926e+14
3.54644e+14
3.01069e+14
2.67502e+14
3.78691e+14
5.52274e+14
7.47431e+14
1.07994e+15
1.55018e+15
2.01056e+15
2.27956e+15
2.52278e+15
2.7719e+15
2.74932e+15
2.7099e+15
2.67063e+15
2.3996e+15
1.97598e+15
1.57066e+15
1.20517e+15
8.59311e+14
5.44332e+14
3.11244e+14
1.94102e+14
1.65425e+14
1.32579e+14
1.09838e+14
1.48305e+14
2.07056e+14
2.65953e+14
3.43672e+14
4.50767e+14
5.42886e+14
5.434e+14
4.4262e+14
3.47385e+14
2.60653e+14
1.41305e+14
4.58391e+13
5.21713e+12
9.51327e+13
1.00478e+14
1.16353e+14
1.2142e+14
1.33454e+14
1.73953e+14
1.56416e+14
1.30807e+14
1.20897e+14
1.15941e+14
1.00076e+14
8.61439e+13
7.36306e+13
6.25685e+13
5.29942e+13
4.52962e+13
3.93174e+13
3.48802e+13
2.77897e+13
2.29333e+13
1.97247e+13
1.74031e+13
1.57418e+13
1.48711e+13
1.41189e+13
1.38526e+13
1.76236e+13
1.22137e+13
1.14068e+13
1.07686e+13
9.50651e+12
9.3608e+12
1.05385e+13
1.02582e+13
8.31635e+12
7.39153e+12
7.73167e+12
9.00776e+12
8.39908e+12
6.00479e+12
4.9204e+12
4.979e+12
6.03897e+12
7.33401e+12
9.14191e+12
1.31738e+13
1.59646e+13
1.82763e+13
2.08702e+13
2.46328e+13
2.95536e+13
3.63734e+13
4.57249e+13
5.52788e+13
6.62796e+13
7.4869e+13
8.14517e+13
9.42688e+13
1.1597e+14
1.43494e+14
1.8114e+14
2.30271e+14
2.79163e+14
3.39629e+14
4.11899e+14
4.97548e+14
5.68111e+14
6.30982e+14
7.31814e+14
8.71068e+14
9.4533e+14
9.75326e+14
1.0593e+15
1.03751e+15
9.22308e+14
8.7132e+14
7.45466e+14
5.9529e+14
5.25199e+14
5.01766e+14
5.09927e+14
5.12465e+14
5.10485e+14
5.62543e+14
6.38638e+14
6.63853e+14
7.27381e+14
8.21524e+14
8.44212e+14
8.90097e+14
9.4951e+14
9.27093e+14
9.06529e+14
8.89445e+14
8.12174e+14
7.11862e+14
6.19343e+14
4.90183e+14
3.81926e+14
3.54671e+14
3.01069e+14
2.67491e+14
3.78664e+14
5.52203e+14
7.47256e+14
1.07971e+15
1.55018e+15
2.01056e+15
2.27956e+15
2.52279e+15
2.77194e+15
2.74934e+15
2.7099e+15
2.6707e+15
2.39984e+15
1.97603e+15
1.5707e+15
1.20523e+15
8.59369e+14
5.44349e+14
3.11243e+14
1.94101e+14
1.65448e+14
1.32579e+14
1.0983e+14
1.48273e+14
2.07056e+14
2.65901e+14
3.43605e+14
4.50767e+14
5.42898e+14
5.43416e+14
4.42652e+14
3.47397e+14
2.60738e+14
1.41346e+14
4.58387e+13
5.21983e+12
9.51257e+13
1.00461e+14
1.16118e+14
1.21421e+14
1.33402e+14
1.73812e+14
1.56348e+14
1.308e+14
1.20895e+14
1.15939e+14
1.00076e+14
8.61439e+13
7.36308e+13
6.25687e+13
5.29939e+13
4.52955e+13
3.93164e+13
3.48818e+13
2.77896e+13
2.2933e+13
1.97244e+13
1.74029e+13
1.57413e+13
1.48704e+13
1.41179e+13
1.3849e+13
1.76077e+13
1.22135e+13
1.14069e+13
1.07685e+13
9.50615e+12
9.35957e+12
1.05382e+13
1.02581e+13
8.31644e+12
7.39118e+12
7.73027e+12
9.00788e+12
8.3992e+12
6.00474e+12
4.92003e+12
4.97767e+12
6.03804e+12
7.33239e+12
9.13574e+12
1.31552e+13
1.59444e+13
1.8255e+13
2.08474e+13
2.46077e+13
2.95264e+13
3.6343e+13
4.56805e+13
5.52291e+13
6.6227e+13
7.48212e+13
8.1428e+13
9.42425e+13
1.15938e+14
1.43458e+14
1.81094e+14
2.3022e+14
2.79106e+14
3.39559e+14
4.11821e+14
4.97502e+14
5.68074e+14
6.30941e+14
7.31755e+14
8.71017e+14
9.453e+14
9.75291e+14
1.0593e+15
1.03751e+15
9.22307e+14
8.71361e+14
7.45464e+14
5.95287e+14
5.25199e+14
5.01766e+14
5.09928e+14
5.12461e+14
5.10477e+14
5.62543e+14
6.38639e+14
6.63825e+14
7.27335e+14
8.21524e+14
8.44192e+14
8.90066e+14
9.49521e+14
9.27106e+14
9.06537e+14
8.89472e+14
8.12231e+14
7.11915e+14
6.19415e+14
4.9025e+14
3.81942e+14
3.54703e+14
3.01096e+14
2.6748e+14
3.7866e+14
5.52132e+14
7.47068e+14
1.07944e+15
1.55019e+15
2.01056e+15
2.27955e+15
2.52279e+15
2.77199e+15
2.74937e+15
2.7099e+15
2.67078e+15
2.40008e+15
1.97606e+15
1.57071e+15
1.20531e+15
8.59457e+14
5.44392e+14
3.11241e+14
1.94101e+14
1.65475e+14
1.32578e+14
1.09821e+14
1.48238e+14
2.07056e+14
2.65844e+14
3.43532e+14
4.50768e+14
5.42913e+14
5.43435e+14
4.42676e+14
3.47396e+14
2.60827e+14
1.41386e+14
4.58384e+13
5.22295e+12
9.51171e+13
1.0044e+14
1.15877e+14
1.21308e+14
1.33312e+14
1.73627e+14
1.56278e+14
1.30791e+14
1.20893e+14
1.15937e+14
1.00075e+14
8.61438e+13
7.36312e+13
6.25689e+13
5.29935e+13
4.52947e+13
3.93151e+13
3.48813e+13
2.77894e+13
2.29327e+13
1.9724e+13
1.74024e+13
1.57407e+13
1.48698e+13
1.41168e+13
1.3845e+13
1.75191e+13
1.22133e+13
1.14071e+13
1.07685e+13
9.50577e+12
9.35829e+12
1.05379e+13
1.0258e+13
8.31633e+12
7.39094e+12
7.72882e+12
9.00805e+12
8.39942e+12
6.00451e+12
4.91959e+12
4.97621e+12
6.03695e+12
7.33059e+12
9.12913e+12
1.31356e+13
1.5923e+13
1.82323e+13
2.08231e+13
2.45809e+13
2.94973e+13
3.63107e+13
4.56333e+13
5.51764e+13
6.61711e+13
7.47702e+13
8.14026e+13
9.42145e+13
1.15904e+14
1.43419e+14
1.81046e+14
2.30165e+14
2.79047e+14
3.39486e+14
4.11738e+14
4.97453e+14
5.68034e+14
6.30896e+14
7.31693e+14
8.70963e+14
9.45268e+14
9.75254e+14
1.05929e+15
1.03751e+15
9.22307e+14
8.71404e+14
7.45462e+14
5.95285e+14
5.25198e+14
5.01766e+14
5.09928e+14
5.12454e+14
5.10466e+14
5.62544e+14
6.3864e+14
6.63793e+14
7.27287e+14
8.21525e+14
8.4417e+14
8.90033e+14
9.49533e+14
9.2712e+14
9.06538e+14
8.895e+14
8.1229e+14
7.11976e+14
6.19491e+14
4.90328e+14
3.81976e+14
3.54739e+14
3.01128e+14
2.67467e+14
3.7866e+14
5.52048e+14
7.46865e+14
1.07917e+15
1.55018e+15
2.01057e+15
2.27952e+15
2.52279e+15
2.77206e+15
2.7494e+15
2.7099e+15
2.67086e+15
2.40034e+15
1.97607e+15
1.57071e+15
1.20539e+15
8.59571e+14
5.44459e+14
3.11245e+14
1.94101e+14
1.65505e+14
1.32578e+14
1.0981e+14
1.482e+14
2.07056e+14
2.65783e+14
3.43455e+14
4.50768e+14
5.4293e+14
5.43458e+14
4.42698e+14
3.47396e+14
2.60921e+14
1.41429e+14
4.58379e+13
5.2266e+12
9.51073e+13
1.00417e+14
1.15629e+14
1.2117e+14
1.33213e+14
1.73381e+14
1.56207e+14
1.30779e+14
1.20891e+14
1.15935e+14
1.00075e+14
8.61437e+13
7.36315e+13
6.25691e+13
5.29932e+13
4.52936e+13
3.93136e+13
3.48805e+13
2.77891e+13
2.29324e+13
1.97236e+13
1.74017e+13
1.57401e+13
1.48691e+13
1.41157e+13
1.38408e+13
1.74193e+13
1.22133e+13
1.14074e+13
1.07685e+13
9.50537e+12
9.35697e+12
1.05378e+13
1.02579e+13
8.31611e+12
7.39084e+12
7.72732e+12
9.00829e+12
8.39977e+12
6.00427e+12
4.91905e+12
4.97459e+12
6.03571e+12
7.3286e+12
9.12205e+12
1.31148e+13
1.59002e+13
1.82082e+13
2.07972e+13
2.45523e+13
2.94663e+13
3.62762e+13
4.55832e+13
5.51204e+13
6.61116e+13
7.47159e+13
8.13752e+13
9.41846e+13
1.15867e+14
1.43377e+14
1.80994e+14
2.30107e+14
2.78984e+14
3.39408e+14
4.11651e+14
4.97397e+14
5.67991e+14
6.30849e+14
7.31627e+14
8.70907e+14
9.45233e+14
9.75215e+14
1.05929e+15
1.03751e+15
9.22307e+14
8.71451e+14
7.45461e+14
5.95283e+14
5.25198e+14
5.01765e+14
5.09928e+14
5.12444e+14
5.10451e+14
5.62544e+14
6.38641e+14
6.63759e+14
7.27234e+14
8.21526e+14
8.44146e+14
8.89997e+14
9.49546e+14
9.27121e+14
9.06538e+14
8.89531e+14
8.12352e+14
7.12041e+14
6.19572e+14
4.90411e+14
3.82014e+14
3.54781e+14
3.01163e+14
2.67454e+14
3.78662e+14
5.5196e+14
7.46647e+14
1.07887e+15
1.55011e+15
2.01057e+15
2.27943e+15
2.5228e+15
2.77213e+15
2.74943e+15
2.7099e+15
2.67095e+15
2.40061e+15
1.97607e+15
1.5707e+15
1.20548e+15
8.59719e+14
5.4456e+14
3.11287e+14
1.94107e+14
1.65538e+14
1.32591e+14
1.09798e+14
1.48161e+14
2.07056e+14
2.65717e+14
3.43372e+14
4.50769e+14
5.42949e+14
5.43485e+14
4.4271e+14
3.47395e+14
2.61019e+14
1.41471e+14
4.58373e+13
5.23076e+12
9.50972e+13
1.00393e+14
1.15375e+14
1.21029e+14
1.33107e+14
1.73005e+14
1.56089e+14
1.30765e+14
1.20889e+14
1.1593e+14
1.00075e+14
8.61436e+13
7.36318e+13
6.25694e+13
5.29927e+13
4.52924e+13
3.93121e+13
3.48802e+13
2.77886e+13
2.29319e+13
1.97231e+13
1.7401e+13
1.57394e+13
1.48683e+13
1.41145e+13
1.38361e+13
1.73173e+13
1.22132e+13
1.14075e+13
1.07684e+13
9.50472e+12
9.35523e+12
1.05378e+13
1.02577e+13
8.31556e+12
7.3905e+12
7.72556e+12
9.0084e+12
8.40007e+12
6.00389e+12
4.91834e+12
4.97277e+12
6.03427e+12
7.32633e+12
9.11447e+12
1.30929e+13
1.5876e+13
1.81824e+13
2.07697e+13
2.45219e+13
2.94332e+13
3.62395e+13
4.553e+13
5.50611e+13
6.60484e+13
7.46582e+13
8.13458e+13
9.41528e+13
1.15828e+14
1.43333e+14
1.80939e+14
2.30045e+14
2.78917e+14
3.39325e+14
4.11558e+14
4.97338e+14
5.67945e+14
6.30798e+14
7.31558e+14
8.70848e+14
9.45196e+14
9.75172e+14
1.05928e+15
1.0375e+15
9.22305e+14
8.71501e+14
7.45458e+14
5.95279e+14
5.25197e+14
5.01763e+14
5.09928e+14
5.12433e+14
5.10433e+14
5.62545e+14
6.38643e+14
6.63721e+14
7.27178e+14
8.21527e+14
8.44121e+14
8.89958e+14
9.49561e+14
9.27121e+14
9.06538e+14
8.89564e+14
8.12418e+14
7.12109e+14
6.19658e+14
4.90497e+14
3.82056e+14
3.54828e+14
3.01201e+14
2.6744e+14
3.78665e+14
5.51853e+14
7.46411e+14
1.07856e+15
1.54998e+15
2.01057e+15
2.2793e+15
2.52281e+15
2.77222e+15
2.74946e+15
2.70989e+15
2.67105e+15
2.4009e+15
1.97607e+15
1.5707e+15
1.20558e+15
8.59898e+14
5.44692e+14
3.11365e+14
1.94139e+14
1.65575e+14
1.32613e+14
1.09784e+14
1.4812e+14
2.07056e+14
2.65645e+14
3.43283e+14
4.50771e+14
5.42971e+14
5.43518e+14
4.4272e+14
3.47395e+14
2.61122e+14
1.41512e+14
4.58366e+13
5.23554e+12
9.50871e+13
1.00367e+14
1.15115e+14
1.20882e+14
1.32992e+14
1.72107e+14
1.55731e+14
1.30748e+14
1.20886e+14
1.159e+14
1.00075e+14
8.61433e+13
7.36319e+13
6.25698e+13
5.29922e+13
4.52911e+13
3.93104e+13
3.48805e+13
2.77883e+13
2.29314e+13
1.97225e+13
1.74002e+13
1.57384e+13
1.48675e+13
1.41131e+13
1.3831e+13
1.72134e+13
1.22133e+13
1.14073e+13
1.0768e+13
9.50374e+12
9.35282e+12
1.05366e+13
1.0257e+13
8.31506e+12
7.38975e+12
7.72324e+12
9.00812e+12
8.39996e+12
6.00382e+12
4.91732e+12
4.97057e+12
6.03189e+12
7.32313e+12
9.10613e+12
1.30692e+13
1.585e+13
1.81547e+13
2.07401e+13
2.44893e+13
2.93978e+13
3.62005e+13
4.54733e+13
5.4998e+13
6.5981e+13
7.45966e+13
8.13139e+13
9.41187e+13
1.15786e+14
1.43286e+14
1.8088e+14
2.29978e+14
2.78845e+14
3.39235e+14
4.11457e+14
4.97274e+14
5.6789e+14
6.30737e+14
7.31475e+14
8.70774e+14
9.45144e+14
9.75113e+14
1.05926e+15
1.03749e+15
9.22304e+14
8.715e+14
7.45454e+14
5.95275e+14
5.25196e+14
5.01763e+14
5.09929e+14
5.12424e+14
5.10419e+14
5.62545e+14
6.38644e+14
6.63685e+14
7.27124e+14
8.21528e+14
8.44113e+14
8.89947e+14
9.49584e+14
9.2714e+14
9.06554e+14
8.89603e+14
8.12487e+14
7.12182e+14
6.19747e+14
4.90588e+14
3.82095e+14
3.5487e+14
3.01235e+14
2.67418e+14
3.78648e+14
5.51707e+14
7.46159e+14
1.07823e+15
1.54998e+15
2.01058e+15
2.2793e+15
2.52281e+15
2.77233e+15
2.74949e+15
2.70989e+15
2.67116e+15
2.4012e+15
1.97615e+15
1.57078e+15
1.20574e+15
8.60035e+14
5.44787e+14
3.11366e+14
1.9414e+14
1.6561e+14
1.32612e+14
1.09765e+14
1.48076e+14
2.07044e+14
2.65569e+14
3.43192e+14
4.50771e+14
5.43002e+14
5.43559e+14
4.4281e+14
3.47417e+14
2.61234e+14
1.41589e+14
4.58383e+13
5.24122e+12
9.50766e+13
1.00338e+14
1.14849e+14
1.20729e+14
1.32869e+14
1.71162e+14
1.55345e+14
1.30729e+14
1.20882e+14
1.15866e+14
1.00075e+14
8.6143e+13
7.36321e+13
6.25702e+13
5.29916e+13
4.52899e+13
3.93087e+13
3.48815e+13
2.77879e+13
2.29308e+13
1.97219e+13
1.73993e+13
1.57374e+13
1.48665e+13
1.41116e+13
1.38255e+13
1.71074e+13
1.22136e+13
1.14073e+13
1.07675e+13
9.50258e+12
9.35006e+12
1.05353e+13
1.02562e+13
8.31447e+12
7.38878e+12
7.72065e+12
9.0077e+12
8.39972e+12
6.0036e+12
4.91604e+12
4.96809e+12
6.02916e+12
7.31966e+12
9.09719e+12
1.30443e+13
1.58224e+13
1.81253e+13
2.07087e+13
2.44546e+13
2.93602e+13
3.6159e+13
4.54134e+13
5.49314e+13
6.59097e+13
7.45314e+13
8.12796e+13
9.40824e+13
1.15741e+14
1.43235e+14
1.80818e+14
2.29907e+14
2.78768e+14
3.39139e+14
4.11349e+14
4.97207e+14
5.67831e+14
6.30671e+14
7.31386e+14
8.70694e+14
9.45087e+14
9.75048e+14
1.05923e+15
1.03748e+15
9.22302e+14
8.71499e+14
7.45449e+14
5.95271e+14
5.25195e+14
5.01763e+14
5.09929e+14
5.12413e+14
5.10401e+14
5.62545e+14
6.38646e+14
6.63646e+14
7.27066e+14
8.21531e+14
8.44093e+14
8.89915e+14
9.49608e+14
9.27161e+14
9.06571e+14
8.89644e+14
8.12562e+14
7.12259e+14
6.1984e+14
4.90683e+14
3.82138e+14
3.54916e+14
3.0127e+14
2.67395e+14
3.78648e+14
5.51554e+14
7.45888e+14
1.07789e+15
1.54998e+15
2.01058e+15
2.2793e+15
2.52282e+15
2.77246e+15
2.74954e+15
2.70989e+15
2.67128e+15
2.40152e+15
1.97621e+15
1.57085e+15
1.20591e+15
8.60202e+14
5.44917e+14
3.11401e+14
1.9414e+14
1.65649e+14
1.32611e+14
1.09744e+14
1.4803e+14
2.07031e+14
2.65487e+14
3.43095e+14
4.50773e+14
5.43035e+14
5.43606e+14
4.429e+14
3.47427e+14
2.61351e+14
1.41666e+14
4.58405e+13
5.24744e+12
9.50658e+13
1.00308e+14
1.14576e+14
1.20569e+14
1.32737e+14
1.70196e+14
1.54941e+14
1.30708e+14
1.20879e+14
1.15832e+14
1.00074e+14
8.61427e+13
7.36323e+13
6.25706e+13
5.2991e+13
4.52884e+13
3.93068e+13
3.48833e+13
2.77874e+13
2.29301e+13
1.97211e+13
1.73983e+13
1.57362e+13
1.48654e+13
1.41099e+13
1.38196e+13
1.69993e+13
1.22135e+13
1.14072e+13
1.07669e+13
9.50123e+12
9.34705e+12
1.05337e+13
1.02553e+13
8.31375e+12
7.38761e+12
7.71781e+12
9.00716e+12
8.39938e+12
6.00329e+12
4.91456e+12
4.96537e+12
6.026e+12
7.31588e+12
9.08762e+12
1.30181e+13
1.57933e+13
1.80942e+13
2.06754e+13
2.44179e+13
2.93203e+13
3.61152e+13
4.53502e+13
5.48612e+13
6.58343e+13
7.44625e+13
8.1243e+13
9.40437e+13
1.15694e+14
1.43181e+14
1.80751e+14
2.29831e+14
2.78687e+14
3.39037e+14
4.11234e+14
4.97134e+14
5.67767e+14
6.30599e+14
7.31291e+14
8.70609e+14
9.45023e+14
9.74976e+14
1.0592e+15
1.03747e+15
9.22301e+14
8.71498e+14
7.45444e+14
5.95266e+14
5.25193e+14
5.01763e+14
5.09929e+14
5.124e+14
5.1038e+14
5.62546e+14
6.38648e+14
6.63605e+14
7.27005e+14
8.21536e+14
8.44074e+14
8.89879e+14
9.49636e+14
9.27184e+14
9.06589e+14
8.8969e+14
8.12641e+14
7.12341e+14
6.1994e+14
4.90785e+14
3.82185e+14
3.54967e+14
3.01309e+14
2.67371e+14
3.78649e+14
5.51393e+14
7.45596e+14
1.07753e+15
1.54994e+15
2.01059e+15
2.27928e+15
2.52283e+15
2.7726e+15
2.74959e+15
2.70989e+15
2.67141e+15
2.40186e+15
1.97626e+15
1.57094e+15
1.20611e+15
8.60395e+14
5.45079e+14
3.11472e+14
1.9414e+14
1.65692e+14
1.3261e+14
1.0972e+14
1.47982e+14
2.07012e+14
2.65398e+14
3.42992e+14
4.50774e+14
5.43074e+14
5.4366e+14
4.42999e+14
3.47439e+14
2.61474e+14
1.41748e+14
4.58458e+13
5.25449e+12
9.50543e+13
1.00275e+14
1.14297e+14
1.20404e+14
1.32596e+14
1.69209e+14
1.5452e+14
1.30686e+14
1.20875e+14
1.158e+14
1.00073e+14
8.61423e+13
7.36324e+13
6.25711e+13
5.29904e+13
4.52869e+13
3.93047e+13
3.48859e+13
2.77868e+13
2.29293e+13
1.97203e+13
1.73972e+13
1.57349e+13
1.48642e+13
1.41082e+13
1.38132e+13
1.68892e+13
1.2213e+13
1.1407e+13
1.07661e+13
9.49969e+12
9.34375e+12
1.0532e+13
1.02541e+13
8.31281e+12
7.38622e+12
7.7147e+12
9.00646e+12
8.39891e+12
6.00285e+12
4.91286e+12
4.96238e+12
6.02255e+12
7.31176e+12
9.07734e+12
1.29904e+13
1.57626e+13
1.80612e+13
2.06401e+13
2.4379e+13
2.9278e+13
3.60688e+13
4.52835e+13
5.47873e+13
6.57546e+13
7.43895e+13
8.12037e+13
9.40027e+13
1.15643e+14
1.43124e+14
1.80681e+14
2.2975e+14
2.786e+14
3.38928e+14
4.11113e+14
4.97055e+14
5.67698e+14
6.30522e+14
7.31188e+14
8.70515e+14
9.44953e+14
9.74896e+14
1.05917e+15
1.03745e+15
9.22296e+14
8.71496e+14
7.45437e+14
5.9526e+14
5.25188e+14
5.01762e+14
5.0993e+14
5.12384e+14
5.10357e+14
5.62547e+14
6.38651e+14
6.6356e+14
7.2694e+14
8.21543e+14
8.4405e+14
8.89837e+14
9.49666e+14
9.27209e+14
9.06608e+14
8.89739e+14
8.12725e+14
7.12428e+14
6.20045e+14
4.90893e+14
3.82236e+14
3.55022e+14
3.01352e+14
2.67346e+14
3.78653e+14
5.51222e+14
7.45283e+14
1.07714e+15
1.54983e+15
2.01059e+15
2.27922e+15
2.52285e+15
2.77276e+15
2.74964e+15
2.70988e+15
2.67154e+15
2.4022e+15
1.97631e+15
1.57103e+15
1.20633e+15
8.60616e+14
5.4528e+14
3.11591e+14
1.94174e+14
1.65739e+14
1.32609e+14
1.09695e+14
1.47931e+14
2.06988e+14
2.65302e+14
3.42883e+14
4.50776e+14
5.43115e+14
5.43719e+14
4.43103e+14
3.47445e+14
2.61603e+14
1.41833e+14
4.58534e+13
5.2621e+12
9.5042e+13
1.00241e+14
1.14013e+14
1.20231e+14
1.32445e+14
1.68201e+14
1.54081e+14
1.30663e+14
1.20869e+14
1.15768e+14
1.00072e+14
8.6143e+13
7.36326e+13
6.25716e+13
5.29897e+13
4.52852e+13
3.93025e+13
3.48895e+13
2.7786e+13
2.29285e+13
1.97193e+13
1.73961e+13
1.57335e+13
1.48629e+13
1.41062e+13
1.38063e+13
1.67772e+13
1.2212e+13
1.14066e+13
1.07652e+13
9.49788e+12
9.34012e+12
1.053e+13
1.02527e+13
8.31157e+12
7.38455e+12
7.71125e+12
9.00554e+12
8.39825e+12
6.00216e+12
4.91091e+12
4.95907e+12
6.01877e+12
7.30727e+12
9.06633e+12
1.29614e+13
1.57302e+13
1.80263e+13
2.06029e+13
2.43378e+13
2.92331e+13
3.60198e+13
4.52133e+13
5.47097e+13
6.56706e+13
7.43125e+13
8.11617e+13
9.3959e+13
1.15589e+14
1.43063e+14
1.80606e+14
2.29664e+14
2.78508e+14
3.38813e+14
4.10983e+14
4.9697e+14
5.67622e+14
6.30437e+14
7.31076e+14
8.70414e+14
9.44873e+14
9.74807e+14
1.05913e+15
1.03742e+15
9.22286e+14
8.71495e+14
7.4543e+14
5.95254e+14
5.25179e+14
5.01761e+14
5.0993e+14
5.12367e+14
5.1033e+14
5.62548e+14
6.38654e+14
6.63513e+14
7.26872e+14
8.21554e+14
8.4404e+14
8.89795e+14
9.497e+14
9.27235e+14
9.06629e+14
8.89792e+14
8.12814e+14
7.12521e+14
6.20157e+14
4.91007e+14
3.82292e+14
3.55082e+14
3.01397e+14
2.6732e+14
3.78658e+14
5.51041e+14
7.44946e+14
1.07674e+15
1.54968e+15
2.0106e+15
2.27915e+15
2.52286e+15
2.77294e+15
2.74969e+15
2.70987e+15
2.67169e+15
2.40257e+15
1.97635e+15
1.57114e+15
1.20659e+15
8.60862e+14
5.45518e+14
3.11749e+14
1.94233e+14
1.6579e+14
1.32608e+14
1.09666e+14
1.47878e+14
2.06953e+14
2.65199e+14
3.42766e+14
4.50778e+14
5.43162e+14
5.43786e+14
4.43212e+14
3.47457e+14
2.61739e+14
1.41924e+14
4.5867e+13
5.27073e+12
9.5029e+13
1.00203e+14
1.13722e+14
1.20052e+14
1.32284e+14
1.67173e+14
1.53623e+14
1.30639e+14
1.20862e+14
1.15737e+14
1.0007e+14
8.61437e+13
7.36328e+13
6.25721e+13
5.29889e+13
4.52833e+13
3.92999e+13
3.48943e+13
2.77852e+13
2.29275e+13
1.97183e+13
1.73948e+13
1.57319e+13
1.48615e+13
1.41041e+13
1.37988e+13
1.66635e+13
1.22105e+13
1.14062e+13
1.07642e+13
9.49579e+12
9.33612e+12
1.05277e+13
1.0251e+13
8.31001e+12
7.38255e+12
7.70743e+12
9.00437e+12
8.39736e+12
6.00116e+12
4.90868e+12
4.95544e+12
6.01464e+12
7.30233e+12
9.0545e+12
1.29308e+13
1.5696e+13
1.79893e+13
2.05634e+13
2.42941e+13
2.91856e+13
3.59681e+13
4.51393e+13
5.4628e+13
6.55818e+13
7.42312e+13
8.11168e+13
9.39126e+13
1.15531e+14
1.42998e+14
1.80526e+14
2.29572e+14
2.78411e+14
3.38691e+14
4.10845e+14
4.96878e+14
5.67539e+14
6.30344e+14
7.30955e+14
8.70302e+14
9.44784e+14
9.74708e+14
1.05907e+15
1.0374e+15
9.22268e+14
8.71494e+14
7.45422e+14
5.95247e+14
5.25167e+14
5.01759e+14
5.0993e+14
5.12347e+14
5.10301e+14
5.62548e+14
6.38657e+14
6.63463e+14
7.268e+14
8.21568e+14
8.44035e+14
8.8975e+14
9.49737e+14
9.27264e+14
9.06652e+14
8.8985e+14
8.12908e+14
7.12619e+14
6.20274e+14
4.91128e+14
3.82353e+14
3.55146e+14
3.01446e+14
2.67293e+14
3.78665e+14
5.5085e+14
7.44585e+14
1.07632e+15
1.54946e+15
2.01059e+15
2.27903e+15
2.52288e+15
2.77314e+15
2.74975e+15
2.70985e+15
2.67184e+15
2.40294e+15
1.9764e+15
1.57127e+15
1.20687e+15
8.61135e+14
5.45797e+14
3.11929e+14
1.94297e+14
1.65846e+14
1.32606e+14
1.09634e+14
1.47822e+14
2.0691e+14
2.65088e+14
3.42643e+14
4.50781e+14
5.43214e+14
5.43861e+14
4.43326e+14
3.47466e+14
2.61881e+14
1.42021e+14
4.58853e+13
5.27999e+12
9.50151e+13
1.00163e+14
1.13426e+14
1.19865e+14
1.32111e+14
1.66125e+14
1.53147e+14
1.30612e+14
1.20852e+14
1.15708e+14
1.00068e+14
8.61445e+13
7.36332e+13
6.25726e+13
5.29881e+13
4.52813e+13
3.92972e+13
3.49007e+13
2.77842e+13
2.29263e+13
1.97171e+13
1.73934e+13
1.57301e+13
1.48599e+13
1.41017e+13
1.37908e+13
1.6548e+13
1.22084e+13
1.14055e+13
1.0763e+13
9.49333e+12
9.33166e+12
1.05249e+13
1.02489e+13
8.308e+12
7.38014e+12
7.70312e+12
9.00281e+12
8.39611e+12
5.99976e+12
4.90612e+12
4.9514e+12
6.01009e+12
7.2969e+12
9.04179e+12
1.28985e+13
1.566e+13
1.79503e+13
2.05218e+13
2.4248e+13
2.91353e+13
3.59135e+13
4.50614e+13
5.45422e+13
6.54884e+13
7.41454e+13
8.10687e+13
9.38633e+13
1.1547e+14
1.4293e+14
1.80441e+14
2.29475e+14
2.78307e+14
3.3856e+14
4.10698e+14
4.96778e+14
5.67448e+14
6.30242e+14
7.30822e+14
8.70178e+14
9.44683e+14
9.74595e+14
1.05901e+15
1.03736e+15
9.22242e+14
8.71493e+14
7.45413e+14
5.95238e+14
5.25149e+14
5.01757e+14
5.0993e+14
5.12325e+14
5.10269e+14
5.62549e+14
6.38661e+14
6.63412e+14
7.26727e+14
8.21587e+14
8.44036e+14
8.89731e+14
9.4978e+14
9.27297e+14
9.06678e+14
8.89913e+14
8.13008e+14
7.12724e+14
6.20399e+14
4.91256e+14
3.82419e+14
3.55214e+14
3.01497e+14
2.67265e+14
3.78673e+14
5.50646e+14
7.44197e+14
1.07587e+15
1.54919e+15
2.01057e+15
2.27893e+15
2.52289e+15
2.77337e+15
2.74982e+15
2.70984e+15
2.67201e+15
2.40334e+15
1.97645e+15
1.57145e+15
1.2072e+15
8.61428e+14
5.461e+14
3.12119e+14
1.94365e+14
1.65905e+14
1.32604e+14
1.09599e+14
1.47763e+14
2.06847e+14
2.64968e+14
3.42514e+14
4.50784e+14
5.43272e+14
5.43945e+14
4.43447e+14
3.4749e+14
2.62031e+14
1.42129e+14
4.59133e+13
5.29051e+12
9.50003e+13
1.00121e+14
1.13124e+14
1.19671e+14
1.31927e+14
1.65058e+14
1.52654e+14
1.30581e+14
1.20841e+14
1.1568e+14
1.00065e+14
8.6145e+13
7.36336e+13
6.25732e+13
5.29873e+13
4.52791e+13
3.92943e+13
3.49069e+13
2.77831e+13
2.29251e+13
1.97157e+13
1.73918e+13
1.57281e+13
1.48581e+13
1.40989e+13
1.37821e+13
1.64309e+13
1.2206e+13
1.14042e+13
1.07615e+13
9.49046e+12
9.3268e+12
1.05214e+13
1.0246e+13
8.30549e+12
7.37733e+12
7.69832e+12
9.00071e+12
8.39436e+12
5.9981e+12
4.90322e+12
4.94702e+12
6.005e+12
7.29083e+12
9.02793e+12
1.28636e+13
1.5622e+13
1.7909e+13
2.04777e+13
2.41992e+13
2.90821e+13
3.58559e+13
4.49795e+13
5.44522e+13
6.53898e+13
7.40549e+13
8.10173e+13
9.38109e+13
1.15404e+14
1.42856e+14
1.80352e+14
2.29371e+14
2.78197e+14
3.38421e+14
4.10541e+14
4.96669e+14
5.67348e+14
6.3013e+14
7.30677e+14
8.70042e+14
9.44568e+14
9.74468e+14
1.05893e+15
1.03731e+15
9.22205e+14
8.71492e+14
7.45403e+14
5.95229e+14
5.25126e+14
5.01754e+14
5.0993e+14
5.123e+14
5.10235e+14
5.6255e+14
6.38665e+14
6.63357e+14
7.2665e+14
8.21611e+14
8.44036e+14
8.89732e+14
9.49828e+14
9.2733e+14
9.06707e+14
8.89982e+14
8.13112e+14
7.12835e+14
6.2053e+14
4.91391e+14
3.82489e+14
3.55286e+14
3.01552e+14
2.67235e+14
3.78683e+14
5.50428e+14
7.43783e+14