/*--------------------------------*- C++ -*----------------------------------*\
| =========                 |                                                 |
| \\      /  F ield         | OpenFOAM: The Open Source CFD Toolbox           |
|  \\    /   O peration     | Version:  v2012                                 |
|   \\  /    A nd           | Website:  www.openfoam.com                      |
|    \\/     M anipulation  |                                                 |
\*---------------------------------------------------------------------------*/
FoamFile
{
    version     2.0;
    format      ascii;
    class       volScalarField;
    location    "1e-06";
    object      totalP;
}
// * * * * * * * * * * * * * * * * * * * * * * * * * * * * * * * * * * * * * //

dimensions      [1 -1 -2 0 0 0 0];


internalField   nonuniform List<scalar> 
10178
(
447238
453464
463826
464299
468637
473912
476101
485534
490129
493084
499576
514759
520766
530571
546094
557207
570714
587125
607102
642311
665739
681912
715788
770202
810201
839916
896983
950148
1.03756e+06
1.10796e+06
1.16493e+06
1.25688e+06
1.37845e+06
1.48172e+06
1.56552e+06
1.6888e+06
1.80683e+06
1.95936e+06
2.08304e+06
2.18094e+06
2.31242e+06
2.44112e+06
2.57797e+06
2.70235e+06
2.80818e+06
2.9479e+06
3.05396e+06
3.15849e+06
3.25987e+06
3.35679e+06
3.44481e+06
3.5254e+06
3.60312e+06
3.65706e+06
3.71589e+06
3.74465e+06
3.74622e+06
3.73622e+06
3.7143e+06
3.64917e+06
3.56318e+06
3.47394e+06
3.31653e+06
3.16184e+06
2.98126e+06
2.83975e+06
2.64582e+06
2.42639e+06
2.25244e+06
2.19128e+06
2.03036e+06
1.81248e+06
1.86461e+06
1.76374e+06
1.54088e+06
1.63712e+06
1.57893e+06
1.42434e+06
1.43211e+06
1.40626e+06
1.42001e+06
1.39574e+06
1.30472e+06
1.32526e+06
1.39422e+06
1.25997e+06
1.2513e+06
1.35672e+06
1.22171e+06
1.21117e+06
1.29499e+06
1.18846e+06
1.17198e+06
1.21452e+06
1.16584e+06
1.1178e+06
1.1615e+06
1.10192e+06
973273
1.11739e+06
1.05243e+06
816496
1.00056e+06
990738
848448
871507
909951
943853
801165
768726
903781
713811
679497
782052
723749
625594
606662
611560
588890
542021
458525
382013
515452
450038
286103
388190
374746
296290
266301
282953
301812
301254
165827
134372
224416
128166
60929.9
99989.4
447260
453490
463820
464487
468740
473936
476123
485565
490163
493122
499629
514804
520804
530618
546150
557256
570747
587160
607142
642350
665763
681925
715792
770217
810209
839915
896950
950131
1.03754e+06
1.10794e+06
1.1649e+06
1.25683e+06
1.37839e+06
1.48172e+06
1.56547e+06
1.68875e+06
1.80677e+06
1.95932e+06
2.08301e+06
2.18091e+06
2.31238e+06
2.44109e+06
2.57796e+06
2.70236e+06
2.8081e+06
2.94777e+06
3.05385e+06
3.15838e+06
3.25976e+06
3.35668e+06
3.4447e+06
3.52529e+06
3.603e+06
3.65694e+06
3.71577e+06
3.74454e+06
3.74619e+06
3.7362e+06
3.7143e+06
3.64916e+06
3.56316e+06
3.47393e+06
3.31652e+06
3.16183e+06
2.98125e+06
2.83976e+06
2.64584e+06
2.4264e+06
2.25246e+06
2.19133e+06
2.0304e+06
1.81253e+06
1.86471e+06
1.76386e+06
1.541e+06
1.63733e+06
1.57918e+06
1.42456e+06
1.43235e+06
1.40655e+06
1.42024e+06
1.39595e+06
1.30493e+06
1.32542e+06
1.39436e+06
1.26013e+06
1.25143e+06
1.35683e+06
1.22184e+06
1.21127e+06
1.29507e+06
1.18855e+06
1.17205e+06
1.21457e+06
1.16593e+06
1.11785e+06
1.16155e+06
1.102e+06
973337
1.11751e+06
1.05257e+06
816644
1.0008e+06
990979
848652
871720
910131
943986
801312
768858
903886
713941
679634
782149
723836
625685
606735
611608
588958
542127
458593
382118
515631
450185
286258
388387
374956
296471
266454
283134
301943
301380
166002
134509
224510
128271
61048.8
100076
447290
453524
463841
464295
468661
473954
476166
485617
490219
493180
499691
514871
520873
530675
546204
557315
570798
587204
607170
642371
665795
681948
715787
770206
810207
839916
896963
950093
1.03749e+06
1.1079e+06
1.16486e+06
1.25677e+06
1.37832e+06
1.48167e+06
1.5654e+06
1.68869e+06
1.8067e+06
1.95926e+06
2.08297e+06
2.18088e+06
2.31235e+06
2.44106e+06
2.57794e+06
2.70237e+06
2.80816e+06
2.94786e+06
3.05396e+06
3.15849e+06
3.25987e+06
3.35679e+06
3.44481e+06
3.5254e+06
3.60316e+06
3.65711e+06
3.71595e+06
3.7447e+06
3.74627e+06
3.73627e+06
3.71438e+06
3.64926e+06
3.56327e+06
3.47404e+06
3.31664e+06
3.16196e+06
2.98137e+06
2.83985e+06
2.64586e+06
2.42643e+06
2.2525e+06
2.19139e+06
2.03046e+06
1.81262e+06
1.86485e+06
1.76402e+06
1.54122e+06
1.63762e+06
1.5795e+06
1.42495e+06
1.43275e+06
1.40693e+06
1.42063e+06
1.39631e+06
1.30523e+06
1.32571e+06
1.39461e+06
1.26036e+06
1.25165e+06
1.35704e+06
1.22202e+06
1.21144e+06
1.29521e+06
1.18868e+06
1.17217e+06
1.21467e+06
1.16603e+06
1.11794e+06
1.16164e+06
1.1021e+06
973455
1.11771e+06
1.05278e+06
816947
1.00115e+06
991340
849033
872036
910442
944239
801568
769076
904101
714185
679831
782326
724025
625820
606844
611696
589053
542226
458719
382288
515852
450425
286546
388675
375254
296766
266714
283384
302173
301612
166258
134718
224706
128436
61211.9
100236
447290
453528
463884
464478
468743
473946
476168
485611
490220
493182
499687
514872
520877
530669
546206
557309
570786
587203
607149
642367
665787
681937
715757
770194
810187
839909
896978
950055
1.03745e+06
1.10786e+06
1.16483e+06
1.25672e+06
1.37825e+06
1.48164e+06
1.56534e+06
1.68863e+06
1.80663e+06
1.95919e+06
2.08293e+06
2.18084e+06
2.3123e+06
2.44102e+06
2.5779e+06
2.70236e+06
2.80806e+06
2.94771e+06
3.0538e+06
3.15834e+06
3.25972e+06
3.35665e+06
3.44467e+06
3.52528e+06
3.60301e+06
3.65695e+06
3.7158e+06
3.74461e+06
3.74623e+06
3.73625e+06
3.71436e+06
3.64924e+06
3.56324e+06
3.47402e+06
3.31662e+06
3.16194e+06
2.98135e+06
2.83987e+06
2.64586e+06
2.42643e+06
2.2525e+06
2.19139e+06
2.03046e+06
1.81262e+06
1.86485e+06
1.76402e+06
1.54123e+06
1.63763e+06
1.57951e+06
1.42495e+06
1.43276e+06
1.40694e+06
1.42063e+06
1.39631e+06
1.30523e+06
1.32571e+06
1.39462e+06
1.26036e+06
1.25165e+06
1.35704e+06
1.22202e+06
1.21144e+06
1.29522e+06
1.18868e+06
1.17217e+06
1.21467e+06
1.16604e+06
1.11794e+06
1.16164e+06
1.10211e+06
973457
1.11771e+06
1.05279e+06
816962
1.00116e+06
991344
849037
872041
910447
944241
801570
769079
904110
714201
679831
782329
724056
625820
606844
611698
589053
542265
458769
382290
515854
450427
286547
388679
375275
296770
266717
283387
302178
301616
166296
134717
224718
128434
61214
100241
447308
453547
463825
464408
468759
473952
476197
485634
490251
493214
499714
514904
520912
530699
546246
557348
570822
587237
607179
642393
665811
681957
715774
770207
810199
839919
896894
950060
1.03745e+06
1.10786e+06
1.16483e+06
1.25672e+06
1.37825e+06
1.48164e+06
1.56533e+06
1.68864e+06
1.80663e+06
1.9592e+06
2.08294e+06
2.18086e+06
2.31232e+06
2.44104e+06
2.57793e+06
2.70238e+06
2.80808e+06
2.94776e+06
3.05386e+06
3.1584e+06
3.25978e+06
3.3567e+06
3.44472e+06
3.52532e+06
3.60308e+06
3.65703e+06
3.71588e+06
3.74465e+06
3.74627e+06
3.73629e+06
3.71441e+06
3.6493e+06
3.56332e+06
3.4741e+06
3.31671e+06
3.16203e+06
2.98144e+06
2.83988e+06
2.64592e+06
2.4265e+06
2.25255e+06
2.19145e+06
2.03057e+06
1.8127e+06
1.86497e+06
1.76419e+06
1.54141e+06
1.63787e+06
1.5798e+06
1.42528e+06
1.4331e+06
1.40727e+06
1.42097e+06
1.39663e+06
1.30549e+06
1.32594e+06
1.39484e+06
1.26056e+06
1.25184e+06
1.35721e+06
1.22217e+06
1.21158e+06
1.29533e+06
1.18877e+06
1.17225e+06
1.21474e+06
1.16611e+06
1.118e+06
1.1617e+06
1.10223e+06
973556
1.11788e+06
1.05305e+06
817223
1.00148e+06
991682
849379
872317
910713
944468
801770
769275
904298
714374
679994
782466
724162
625904
606920
611763
589147
542383
458925
382438
516053
450716
286809
388942
375559
297033
266952
283603
302379
301819
166481
134891
224878
128562
61343.8
100373
447319
453560
463855
464417
468785
473942
476218
485656
490276
493241
499740
514932
520939
530713
546259
557359
570827
587255
607167
642377
665803
681941
715737
770166
810168
839881
896823
949993
1.03737e+06
1.1078e+06
1.16476e+06
1.25662e+06
1.37814e+06
1.48157e+06
1.56524e+06
1.68854e+06
1.80653e+06
1.95911e+06
2.08288e+06
2.1808e+06
2.31226e+06
2.44098e+06
2.57789e+06
2.7024e+06
2.80801e+06
2.94769e+06
3.0538e+06
3.15833e+06
3.25972e+06
3.35665e+06
3.44468e+06
3.5253e+06
3.60304e+06
3.65699e+06
3.71585e+06
3.74466e+06
3.74628e+06
3.7363e+06
3.71442e+06
3.64931e+06
3.56332e+06
3.47411e+06
3.31672e+06
3.16204e+06
2.98145e+06
2.83989e+06
2.64593e+06
2.42651e+06
2.25258e+06
2.19149e+06
2.03061e+06
1.81275e+06
1.86505e+06
1.76428e+06
1.54154e+06
1.63806e+06
1.58002e+06
1.42554e+06
1.4334e+06
1.40758e+06
1.42128e+06
1.39694e+06
1.30574e+06
1.32617e+06
1.39504e+06
1.26075e+06
1.252e+06
1.35737e+06
1.2223e+06
1.2117e+06
1.29543e+06
1.18887e+06
1.17232e+06
1.2148e+06
1.16619e+06
1.11805e+06
1.16176e+06
1.10229e+06
973625
1.11799e+06
1.05318e+06
817432
1.00177e+06
991977
849701
872603
910994
944695
801997
769464
904469
714569
680137
782591
724302
625994
606983
611817
589201
542441
459005
382549
516217
450897
287032
389186
375826
297283
267180
283823
302579
302010
166692
135047
225028
128667
61454.6
100483
447320
453563
463830
464497
468849
473909
476222
485647
490276
493242
499728
514928
520940
530700
546259
557350
570811
587256
607138
642372
665788
681919
715694
770148
810135
839870
896869
949938
1.03731e+06
1.10774e+06
1.16471e+06
1.25656e+06
1.37805e+06
1.48152e+06
1.56516e+06
1.68848e+06
1.80645e+06
1.95904e+06
2.08283e+06
2.18076e+06
2.31224e+06
2.44098e+06
2.57789e+06
2.7024e+06
2.80802e+06
2.94769e+06
3.05381e+06
3.15834e+06
3.25973e+06
3.35665e+06
3.44468e+06
3.5253e+06
3.60304e+06
3.657e+06
3.71586e+06
3.74467e+06
3.74629e+06
3.73632e+06
3.71445e+06
3.64935e+06
3.56337e+06
3.47416e+06
3.31677e+06
3.16206e+06
2.98146e+06
2.8399e+06
2.64593e+06
2.42651e+06
2.25258e+06
2.19149e+06
2.03061e+06
1.81275e+06
1.86505e+06
1.76429e+06
1.54155e+06
1.63807e+06
1.58003e+06
1.42556e+06
1.4334e+06
1.40758e+06
1.42128e+06
1.39694e+06
1.30574e+06
1.32617e+06
1.39505e+06
1.26075e+06
1.252e+06
1.35737e+06
1.2223e+06
1.21169e+06
1.29543e+06
1.18887e+06
1.17232e+06
1.2148e+06
1.16619e+06
1.11805e+06
1.16176e+06
1.10232e+06
973628
1.118e+06
1.05327e+06
817450
1.00178e+06
991990
849702
872609
910999
944695
802000
769468
904481
714571
680135
782590
724325
625995
606982
611822
589201
542486
459065
382552
516224
450957
287042
389192
375852
297284
267183
283826
302575
302015
166692
135042
225044
128663
61457.7
100492
447327
453575
463817
464422
468838
473863
476200
485650
490290
493249
499732
514940
520953
530701
546265
557351
570806
587247
607117
642361
665773
681897
715650
770109
810100
839849
896719
949872
1.03724e+06
1.10767e+06
1.16465e+06
1.25648e+06
1.37795e+06
1.48147e+06
1.56507e+06
1.68841e+06
1.80636e+06
1.95897e+06
2.08279e+06
2.18072e+06
2.31222e+06
2.44099e+06
2.57791e+06
2.70242e+06
2.80804e+06
2.94768e+06
3.05383e+06
3.15836e+06
3.25974e+06
3.35667e+06
3.4447e+06
3.52532e+06
3.60305e+06
3.65702e+06
3.71587e+06
3.74468e+06
3.74631e+06
3.73634e+06
3.71448e+06
3.6494e+06
3.56343e+06
3.4742e+06
3.31683e+06
3.16209e+06
2.98147e+06
2.83997e+06
2.64595e+06
2.42653e+06
2.2526e+06
2.19153e+06
2.03064e+06
1.8128e+06
1.86512e+06
1.76437e+06
1.54166e+06
1.63823e+06
1.5802e+06
1.42578e+06
1.43367e+06
1.40786e+06
1.42156e+06
1.39721e+06
1.30597e+06
1.32638e+06
1.39523e+06
1.2609e+06
1.25215e+06
1.3575e+06
1.2224e+06
1.21179e+06
1.29551e+06
1.18893e+06
1.17238e+06
1.21484e+06
1.16623e+06
1.11809e+06
1.1618e+06
1.10237e+06
973688
1.1181e+06
1.05339e+06
817629
1.00204e+06
992260
850000
872883
911267
944907
802177
769642
904634
714700
680254
782691
724450
626046
607030
611867
589247
542551
459188
382650
516373
451119
287249
389421
376106
297515
267396
284031
302754
302187
166879
135173
225172
128743
61550.8
100588
447328
453579
463795
464419
468824
473829
476203
485640
490291
493259
499719
514936
520953
530686
546249
557336
570787
587225
607083
642332
665749
681867
715599
770058
810059
839817
896610
949798
1.03715e+06
1.1076e+06
1.16458e+06
1.25639e+06
1.37783e+06
1.48139e+06
1.56498e+06
1.68832e+06
1.80626e+06
1.95888e+06
2.08273e+06
2.18067e+06
2.3122e+06
2.44099e+06
2.57791e+06
2.70242e+06
2.80804e+06
2.94763e+06
3.05383e+06
3.15833e+06
3.25973e+06
3.35667e+06
3.4447e+06
3.52532e+06
3.60305e+06
3.65702e+06
3.71588e+06
3.74469e+06
3.74633e+06
3.73636e+06
3.71451e+06
3.64945e+06
3.56347e+06
3.47424e+06
3.31688e+06
3.16211e+06
2.98147e+06
2.83998e+06
2.64595e+06
2.42653e+06
2.2526e+06
2.19153e+06
2.03064e+06
1.81279e+06
1.86512e+06
1.76437e+06
1.54166e+06
1.63823e+06
1.58021e+06
1.42579e+06
1.43367e+06
1.40786e+06
1.42156e+06
1.39721e+06
1.30597e+06
1.32638e+06
1.39524e+06
1.2609e+06
1.25215e+06
1.35751e+06
1.2224e+06
1.21179e+06
1.29552e+06
1.18893e+06
1.17238e+06
1.21484e+06
1.16626e+06
1.11809e+06
1.1618e+06
1.10237e+06
973688
1.1181e+06
1.05339e+06
817642
1.00206e+06
992264
849998
872892
911273
944908
802179
769649
904648
714702
680251
782697
724509
626047
607029
611874
589245
542571
459250
382649
516377
451150
287249
389428
376135
297516
267401
284035
302753
302195
166913
135166
225195
128732
61555.9
100600
447332
453586
463771
464457
468856
473847
476306
485634
490295
493305
499713
514932
520953
530679
546260
557345
570776
587232
607083
642337
665752
681855
715596
770058
810042
839817
896624
949796
1.03715e+06
1.10754e+06
1.16458e+06
1.25639e+06
1.37776e+06
1.48139e+06
1.56493e+06
1.68832e+06
1.80624e+06
1.95889e+06
2.08274e+06
2.18068e+06
2.31221e+06
2.44101e+06
2.57792e+06
2.70244e+06
2.80806e+06
2.94765e+06
3.05385e+06
3.15835e+06
3.25975e+06
3.35669e+06
3.44472e+06
3.52534e+06
3.60307e+06
3.65704e+06
3.7159e+06
3.7447e+06
3.74635e+06
3.73639e+06
3.71455e+06
3.64951e+06
3.56354e+06
3.47432e+06
3.31697e+06
3.16218e+06
2.98154e+06
2.84e+06
2.64599e+06
2.42659e+06
2.25263e+06
2.19157e+06
2.03074e+06
1.81285e+06
1.8652e+06
1.76452e+06
1.54176e+06
1.63838e+06
1.58043e+06
1.426e+06
1.43391e+06
1.40811e+06
1.42182e+06
1.39745e+06
1.30617e+06
1.32656e+06
1.39541e+06
1.26104e+06
1.25227e+06
1.35763e+06
1.22249e+06
1.21186e+06
1.29558e+06
1.18898e+06
1.17242e+06
1.21488e+06
1.1663e+06
1.11813e+06
1.16185e+06
1.10248e+06
973750
1.1182e+06
1.05359e+06
817807
1.00232e+06
992537
850280
873155
911506
945104
802350
769809
904787
714817
680348
782777
724565
626089
607064
611915
589310
542669
459380
382748
516524
451400
287456
389652
376385
297734
267602
284217
302913
302348
167041
135273
225306
128809
61635.1
100687
447335
453595
463749
464464
468875
473745
476295
485633
490302
493313
499719
514939
520959
530666
546245
557331
570755
587209
607044
642297
665722
681817
715534
769994
809990
839757
896541
949702
1.03704e+06
1.10744e+06
1.16448e+06
1.25626e+06
1.37762e+06
1.48128e+06
1.5648e+06
1.68819e+06
1.80609e+06
1.95876e+06
2.08264e+06
2.18059e+06
2.31212e+06
2.44095e+06
2.57791e+06
2.70245e+06
2.80807e+06
2.94758e+06
3.05386e+06
3.15833e+06
3.25973e+06
3.35671e+06
3.44473e+06
3.52535e+06
3.60308e+06
3.65706e+06
3.71591e+06
3.74472e+06
3.74638e+06
3.73642e+06
3.71459e+06
3.64957e+06
3.5636e+06
3.47435e+06
3.31703e+06
3.16219e+06
2.98155e+06
2.84002e+06
2.646e+06
2.4266e+06
2.25265e+06
2.1916e+06
2.03076e+06
1.81287e+06
1.86524e+06
1.76457e+06
1.54183e+06
1.63849e+06
1.58055e+06
1.42616e+06
1.43412e+06
1.40834e+06
1.42205e+06
1.39772e+06
1.30638e+06
1.32676e+06
1.39559e+06
1.26118e+06
1.2524e+06
1.35775e+06
1.22259e+06
1.21194e+06
1.29565e+06
1.18905e+06
1.17247e+06
1.21492e+06
1.16637e+06
1.11816e+06
1.16188e+06
1.10252e+06
973783
1.11825e+06
1.05367e+06
817917
1.00254e+06
992765
850547
873420
911772
945320
802513
769978
904922
714978
680445
782867
724690
626161
607105
611958
589341
542707
459426
382804
516631
451515
287621
389860
376622
297946
267810
284416
303085
302510
167220
135379
225423
128865
61714.6
100767
447336
453603
463718
464473
468901
473654
476249
485620
490296
493297
499702
514925
520953
530647
546245
557313
570731
587193
607005
642265
665693
681781
715473
769933
809941
839711
896459
949625
1.03694e+06
1.10735e+06
1.16439e+06
1.25615e+06
1.37748e+06
1.48119e+06
1.56469e+06
1.68809e+06
1.80598e+06
1.95868e+06
2.08259e+06
2.18055e+06
2.31212e+06
2.44095e+06
2.57791e+06
2.70246e+06
2.80807e+06
2.94754e+06
3.05386e+06
3.15833e+06
3.25974e+06
3.35671e+06
3.44474e+06
3.52536e+06
3.60308e+06
3.65707e+06
3.71592e+06
3.74473e+06
3.7464e+06
3.73645e+06
3.71463e+06
3.64962e+06
3.56366e+06
3.47443e+06
3.31712e+06
3.16223e+06
2.98156e+06
2.84004e+06
2.646e+06
2.4266e+06
2.25265e+06
2.1916e+06
2.03076e+06
1.81286e+06
1.86524e+06
1.76457e+06
1.54183e+06
1.6385e+06
1.58056e+06
1.42617e+06
1.43412e+06
1.40835e+06
1.42206e+06
1.39773e+06
1.30638e+06
1.32675e+06
1.3956e+06
1.26118e+06
1.25239e+06
1.35776e+06
1.22258e+06
1.21193e+06
1.29566e+06
1.18905e+06
1.17247e+06
1.21492e+06
1.16637e+06
1.11816e+06
1.16188e+06
1.10256e+06
973787
1.11825e+06
1.05377e+06
817930
1.00256e+06
992774
850540
873430
911779
945316
802515
769986
904941
714976
680436
782874
724740
626158
607101
611968
589341
542761
459501
382807
516641
451620
287625
389872
376658
297945
267814
284420
303078
302517
167221
135364
225455
128866
61721.4
100786
447336
453613
463684
464484
468926
473609
476259
485608
490292
493300
499687
514912
520947
530628
546231
557295
570706
587171
606962
642222
665660
681740
715407
769866
809886
839650
896371
949533
1.03683e+06
1.10726e+06
1.16429e+06
1.25603e+06
1.37733e+06
1.48108e+06
1.56457e+06
1.68799e+06
1.80586e+06
1.95858e+06
2.08253e+06
2.18051e+06
2.31213e+06
2.44096e+06
2.57793e+06
2.70247e+06
2.80809e+06
2.9475e+06
3.05388e+06
3.15835e+06
3.25976e+06
3.35673e+06
3.44475e+06
3.52538e+06
3.60309e+06
3.65709e+06
3.71594e+06
3.74475e+06
3.74643e+06
3.73649e+06
3.71468e+06
3.6497e+06
3.56374e+06
3.47452e+06
3.31723e+06
3.16229e+06
2.98159e+06
2.84006e+06
2.64601e+06
2.42662e+06
2.25267e+06
2.19163e+06
2.03078e+06
1.81289e+06
1.86529e+06
1.76463e+06
1.5419e+06
1.6386e+06
1.58067e+06
1.42632e+06
1.43431e+06
1.40856e+06
1.42228e+06
1.39795e+06
1.30657e+06
1.32694e+06
1.39575e+06
1.26131e+06
1.2525e+06
1.35787e+06
1.22266e+06
1.212e+06
1.29572e+06
1.18909e+06
1.17251e+06
1.21496e+06
1.1664e+06
1.11819e+06
1.16191e+06
1.1026e+06
973827
1.11831e+06
1.05394e+06
818030
1.00278e+06
992981
850784
873688
912034
945516
802668
770144
905065
715068
680515
782950
724857
626195
607132
612008
589373
542796
459617
382866
516746
451731
287784
390073
376890
298144
268010
284610
303231
302664
167345
135450
225561
128905
61792.4
100863
447337
453625
463646
464494
468954
473541
476263
485594
490284
493300
499669
514894
520939
530605
546216
557274
570678
587146
606917
642177
665627
681698
715339
769796
809830
839587
896279
949441
1.03672e+06
1.10715e+06
1.16419e+06
1.25589e+06
1.37718e+06
1.48097e+06
1.56444e+06
1.68787e+06
1.80572e+06
1.95849e+06
2.08246e+06
2.18047e+06
2.31213e+06
2.44096e+06
2.57792e+06
2.70247e+06
2.80809e+06
2.94744e+06
3.05388e+06
3.15835e+06
3.25976e+06
3.35673e+06
3.44476e+06
3.52538e+06
3.6031e+06
3.65711e+06
3.71595e+06
3.74476e+06
3.74646e+06
3.73653e+06
3.71473e+06
3.64976e+06
3.56381e+06
3.47461e+06
3.31734e+06
3.16233e+06
2.9816e+06
2.84008e+06
2.64601e+06
2.42661e+06
2.25267e+06
2.19163e+06
2.03078e+06
1.81288e+06
1.86528e+06
1.76463e+06
1.5419e+06
1.6386e+06
1.58068e+06
1.42632e+06
1.43431e+06
1.40856e+06
1.42229e+06
1.39795e+06
1.30656e+06
1.32694e+06
1.39577e+06
1.26131e+06
1.25249e+06
1.35789e+06
1.22265e+06
1.21199e+06
1.29574e+06
1.18909e+06
1.1725e+06
1.21496e+06
1.1664e+06
1.11819e+06
1.16191e+06
1.10261e+06
973830
1.11831e+06
1.05405e+06
818038
1.0028e+06
992988
850774
873701
912042
945513
802671
770155
905088
715070
680504
782961
724927
626192
607126
612022
589372
542812
459699
382866
516756
451762
287784
390087
376931
298142
268016
284617
303224
302675
167346
135432
225603
128905
61802.3
100888
447336
453638
463604
464504
468984
473470
476266
485578
490276
493300
499649
514875
520929
530581
546196
557250
570646
587116
606867
642128
665587
681650
715264
769719
809767
839516
896178
949339
1.03659e+06
1.10704e+06
1.16408e+06
1.25575e+06
1.37701e+06
1.48084e+06
1.5643e+06
1.68775e+06
1.80559e+06
1.95838e+06
2.08239e+06
2.18044e+06
2.31214e+06
2.44097e+06
2.57794e+06
2.70249e+06
2.80811e+06
2.94739e+06
3.0539e+06
3.15836e+06
3.25978e+06
3.35675e+06
3.44478e+06
3.5254e+06
3.60311e+06
3.65713e+06
3.71597e+06
3.74478e+06
3.7465e+06
3.73657e+06
3.71478e+06
3.64984e+06
3.5639e+06
3.47471e+06
3.31746e+06
3.1624e+06
2.98163e+06
2.84012e+06
2.64602e+06
2.42663e+06
2.25268e+06
2.19165e+06
2.0308e+06
1.8129e+06
1.86532e+06
1.76467e+06
1.54196e+06
1.63869e+06
1.58078e+06
1.42646e+06
1.43448e+06
1.40876e+06
1.42249e+06
1.39816e+06
1.30674e+06
1.32713e+06
1.39593e+06
1.26142e+06
1.25259e+06
1.358e+06
1.22272e+06
1.21204e+06
1.2958e+06
1.18913e+06
1.17254e+06
1.21499e+06
1.16643e+06
1.11822e+06
1.16194e+06
1.10264e+06
973866
1.11836e+06
1.05422e+06
818118
1.003e+06
993176
851000
873956
912295
945713
802825
770314
905209
715153
680573
783035
725047
626221
607154
612065
589402
542843
459819
382917
516851
451860
287928
390283
377159
298332
268210
284806
303371
302819
167446
135506
225712
128929
61872.1
100966
447337
453649
463560
464519
469015
473382
476270
485563
490266
493300
499628
514854
520919
530555
546176
557226
570614
587081
606817
642078
665549
681601
715189
769641
809703
839444
896073
949237
1.03646e+06
1.10693e+06
1.16397e+06
1.25559e+06
1.37684e+06
1.4807e+06
1.56415e+06
1.68762e+06
1.80544e+06
1.95827e+06
2.08232e+06
2.18042e+06
2.31214e+06
2.44097e+06
2.57793e+06
2.70249e+06
2.80812e+06
2.94731e+06
3.0539e+06
3.15837e+06
3.25979e+06
3.35676e+06
3.44478e+06
3.52541e+06
3.60311e+06
3.65714e+06
3.71598e+06
3.7448e+06
3.74654e+06
3.73662e+06
3.71484e+06
3.64992e+06
3.56398e+06
3.47481e+06
3.31759e+06
3.16246e+06
2.98166e+06
2.84014e+06
2.64602e+06
2.42662e+06
2.25268e+06
2.19165e+06
2.03079e+06
1.81289e+06
1.86532e+06
1.76467e+06
1.54196e+06
1.63868e+06
1.58078e+06
1.42646e+06
1.43448e+06
1.40877e+06
1.4225e+06
1.39817e+06
1.30674e+06
1.32713e+06
1.39594e+06
1.26142e+06
1.25258e+06
1.35803e+06
1.22272e+06
1.21203e+06
1.29581e+06
1.18913e+06
1.17254e+06
1.215e+06
1.16643e+06
1.11822e+06
1.16194e+06
1.10264e+06
973870
1.11835e+06
1.05434e+06
818123
1.00304e+06
993181
850984
873969
912305
945708
802822
770328
905238
715147
680558
783050
725122
626222
607147
612082
589400
542843
459909
382917
516862
451897
287925
390301
377205
298327
268217
284814
303360
302835
167446
135481
225765
128905
61885.7
100997
447335
453662
463509
464534
469048
473282
476272
485544
490253
493297
499603
514828
520903
530525
546156
557197
570575
587083
606760
642022
665504
681547
715105
769556
809632
839364
895960
949124
1.03632e+06
1.1068e+06
1.16384e+06
1.25542e+06
1.37666e+06
1.48057e+06
1.564e+06
1.68748e+06
1.80529e+06
1.95819e+06
2.08226e+06
2.18042e+06
2.31215e+06
2.44098e+06
2.57795e+06
2.7025e+06
2.80814e+06
2.94732e+06
3.05392e+06
3.15839e+06
3.25981e+06
3.35678e+06
3.4448e+06
3.52543e+06
3.60313e+06
3.65717e+06
3.716e+06
3.74482e+06
3.74659e+06
3.73667e+06
3.7149e+06
3.65002e+06
3.56408e+06
3.47492e+06
3.31772e+06
3.16255e+06
2.9817e+06
2.84018e+06
2.64603e+06
2.42663e+06
2.2527e+06
2.19167e+06
2.0308e+06
1.81291e+06
1.86536e+06
1.76471e+06
1.54201e+06
1.63877e+06
1.58087e+06
1.42658e+06
1.43463e+06
1.40895e+06
1.42269e+06
1.39837e+06
1.30691e+06
1.32731e+06
1.3961e+06
1.26153e+06
1.25267e+06
1.35814e+06
1.22278e+06
1.21208e+06
1.29587e+06
1.18917e+06
1.17257e+06
1.21503e+06
1.16646e+06
1.11825e+06
1.16197e+06
1.1027e+06
973908
1.1184e+06
1.05452e+06
818189
1.00323e+06
993354
851192
874222
912555
945905
802968
770485
905355
715231
680616
783122
725229
626247
607170
612127
589429
542891
460039
382966
516953
452035
288059
390494
377432
298507
268407
285001
303498
302973
167536
135542
225877
128960
61955
101078
447340
453677
463461
464554
469082
473190
476281
485545
490252
493298
499602
514809
520897
530496
546127
557167
570534
587100
606698
641960
665453
681485
715012
769462
809551
839273
895836
948992
1.03617e+06
1.10666e+06
1.1637e+06
1.25523e+06
1.37646e+06
1.48039e+06
1.56381e+06
1.68729e+06
1.80507e+06
1.95798e+06
2.0821e+06
2.18026e+06
2.31205e+06
2.44087e+06
2.57791e+06
2.7025e+06
2.80815e+06
2.94725e+06
3.05392e+06
3.15839e+06
3.25982e+06
3.35679e+06
3.44481e+06
3.52545e+06
3.60313e+06
3.65719e+06
3.71601e+06
3.74484e+06
3.74663e+06
3.73672e+06
3.71496e+06
3.65011e+06
3.56418e+06
3.47503e+06
3.31786e+06
3.16258e+06
2.9817e+06
2.84022e+06
2.64602e+06
2.42662e+06
2.25269e+06
2.19167e+06
2.03078e+06
1.81287e+06
1.86532e+06
1.76469e+06
1.54198e+06
1.63873e+06
1.58085e+06
1.42655e+06
1.43461e+06
1.40895e+06
1.4227e+06
1.39842e+06
1.30692e+06
1.32733e+06
1.39614e+06
1.26154e+06
1.25266e+06
1.35818e+06
1.2228e+06
1.21208e+06
1.29591e+06
1.18921e+06
1.17257e+06
1.21504e+06
1.16651e+06
1.11825e+06
1.16196e+06
1.10269e+06
973888
1.11835e+06
1.0545e+06
818161
1.00324e+06
993343
851164
874247
912569
945926
802969
770524
905405
715312
680614
783163
725333
626290
607174
612152
589418
542889
460029
382928
516927
452021
288022
390502
377471
298498
268430
285020
303506
303021
167626
135530
225958
128947
61984.9
101117
447340
453692
463401
464572
469119
473081
476284
485521
490235
493286
499573
514780
520877
530466
546125
557141
570499
587099
606665
641959
665412
681435
714948
769441
809483
839248
895716
948991
1.03603e+06
1.10653e+06
1.16366e+06
1.25507e+06
1.37638e+06
1.48029e+06
1.56377e+06
1.68725e+06
1.80507e+06
1.95798e+06
2.08211e+06
2.18027e+06
2.31205e+06
2.44087e+06
2.57792e+06
2.70251e+06
2.80816e+06
2.94715e+06
3.05393e+06
3.15839e+06
3.25982e+06
3.35679e+06
3.44481e+06
3.52546e+06
3.60314e+06
3.6572e+06
3.71603e+06
3.74487e+06
3.74668e+06
3.73678e+06
3.71503e+06
3.65021e+06
3.56429e+06
3.47515e+06
3.31801e+06
3.16272e+06
2.9818e+06
2.84028e+06
2.64613e+06
2.42668e+06
2.2527e+06
2.19167e+06
2.03086e+06
1.81288e+06
1.86534e+06
1.76481e+06
1.542e+06
1.63875e+06
1.58096e+06
1.42658e+06
1.43462e+06
1.40895e+06
1.4227e+06
1.39842e+06
1.30689e+06
1.32727e+06
1.39613e+06
1.26152e+06
1.25263e+06
1.3582e+06
1.22279e+06
1.21205e+06
1.29591e+06
1.1892e+06
1.17255e+06
1.21503e+06
1.1665e+06
1.11825e+06
1.16197e+06
1.10279e+06
973919
1.11838e+06
1.05468e+06
818193
1.00331e+06
993390
851134
874259
912522
945883
802930
770518
905424
715281
680570
783159
725314
626267
607149
612171
589416
542972
460160
382965
516976
452197
288042
390535
377531
298479
268418
284993
303462
303016
167603
135474
226014
128931
61994.1
101157
447339
453695
463338
464593
469154
472973
476288
485498
490217
493281
499543
514747
520854
530427
546089
557103
570450
587042
606595
641888
665353
681366
714847
769336
809393
839151
895578
948852
1.03586e+06
1.10638e+06
1.16351e+06
1.25486e+06
1.37617e+06
1.48011e+06
1.56359e+06
1.68707e+06
1.80487e+06
1.95782e+06
2.08199e+06
2.18022e+06
2.31206e+06
2.44088e+06
2.57793e+06
2.70253e+06
2.80819e+06
2.94703e+06
3.05396e+06
3.15841e+06
3.25985e+06
3.35681e+06
3.44484e+06
3.52549e+06
3.60316e+06
3.65724e+06
3.71605e+06
3.7449e+06
3.74675e+06
3.73686e+06
3.71511e+06
3.65033e+06
3.56441e+06
3.47529e+06
3.31818e+06
3.16282e+06
2.98185e+06
2.84028e+06
2.64614e+06
2.42668e+06
2.25272e+06
2.1917e+06
2.03087e+06
1.81288e+06
1.86537e+06
1.76485e+06
1.54204e+06
1.63882e+06
1.58104e+06
1.42668e+06
1.43475e+06
1.40912e+06
1.42289e+06
1.39861e+06
1.30706e+06
1.32745e+06
1.3963e+06
1.26163e+06
1.25271e+06
1.35832e+06
1.22285e+06
1.21209e+06
1.29598e+06
1.18924e+06
1.17259e+06
1.21506e+06
1.16653e+06
1.11827e+06
1.16199e+06
1.10282e+06
973952
1.11841e+06
1.05476e+06
818235
1.00349e+06
993542
851317
874516
912775
946092
803078
770692
905556
715359
680624
783245
725452
626294
607172
612226
589440
543000
460297
382998
517050
452268
288149
390725
377758
298650
268617
285184
303602
303171
167695
135527
226149
128968
62074.7
101249
447341
453716
463275
464618
469193
472857
476294
485477
490203
493279
499515
514717
520833
530392
546058
557070
570404
587001
606529
641822
665298
681298
714747
769233
809305
839053
895436
948714
1.03569e+06
1.10622e+06
1.16336e+06
1.25464e+06
1.37596e+06
1.47992e+06
1.56339e+06
1.68688e+06
1.80467e+06
1.95768e+06
2.08189e+06
2.18017e+06
2.31206e+06
2.44088e+06
2.57793e+06
2.70253e+06
2.8082e+06
2.94694e+06
3.05396e+06
3.15842e+06
3.25986e+06
3.35682e+06
3.44484e+06
3.52551e+06
3.60316e+06
3.65726e+06
3.71607e+06
3.74493e+06
3.74681e+06
3.73693e+06
3.71519e+06
3.65044e+06
3.56453e+06
3.47543e+06
3.31834e+06
3.16293e+06
2.9819e+06
2.84043e+06
2.64614e+06
2.42668e+06
2.25271e+06
2.19169e+06
2.03085e+06
1.81286e+06
1.86535e+06
1.76484e+06
1.54203e+06
1.63881e+06
1.58104e+06
1.42668e+06
1.43474e+06
1.40913e+06
1.4229e+06
1.39862e+06
1.30704e+06
1.32746e+06
1.39633e+06
1.26163e+06
1.25269e+06
1.35837e+06
1.22284e+06
1.21207e+06
1.296e+06
1.18924e+06
1.17258e+06
1.21507e+06
1.16653e+06
1.11827e+06
1.16199e+06
1.10282e+06
973959
1.1184e+06
1.05491e+06
818234
1.00355e+06
993546
851281
874536
912786
946076
803066
770714
905599
715360
680593
783271
725451
626281
607158
612255
589432
542999
460413
382998
517066
452421
288139
390757
377819
298637
268627
285197
303579
303199
167690
135483
226238
128914
62102.5
101300
447339
453729
463204
464642
469228
472725
476295
485448
490182
493271
499480
514679
520805
530347
546016
557025
570347
586950
606451
641744
665231
681220
714634
769117
809204
838944
895281
948561
1.0355e+06
1.10604e+06
1.16319e+06
1.2544e+06
1.37573e+06
1.47973e+06
1.56319e+06
1.68668e+06
1.80446e+06
1.95754e+06
2.08179e+06
2.18014e+06
2.31207e+06
2.44089e+06
2.57794e+06
2.70255e+06
2.80823e+06
2.94685e+06
3.05399e+06
3.15844e+06
3.25989e+06
3.35685e+06
3.44487e+06
3.52555e+06
3.60318e+06
3.6573e+06
3.7161e+06
3.74498e+06
3.74689e+06
3.73702e+06
3.71529e+06
3.65058e+06
3.56467e+06
3.47558e+06
3.31853e+06
3.16307e+06
2.98197e+06
2.84047e+06
2.64615e+06
2.42668e+06
2.25273e+06
2.19172e+06
2.03086e+06
1.81287e+06
1.86538e+06
1.76488e+06
1.54207e+06
1.63887e+06
1.58112e+06
1.42679e+06
1.43487e+06
1.40929e+06
1.42308e+06
1.39881e+06
1.30721e+06
1.32764e+06
1.3965e+06
1.26173e+06
1.25277e+06
1.3585e+06
1.2229e+06
1.21211e+06
1.29608e+06
1.18928e+06
1.17261e+06
1.2151e+06
1.16656e+06
1.1183e+06
1.16202e+06
1.10285e+06
973997
1.11843e+06
1.05511e+06
818270
1.00373e+06
993685
851444
874794
913037
946286
803220
770894
905730
715434
680636
783359
725566
626304
607177
612315
589450
543028
460564
383034
517140
452489
288234
390947
378047
298797
268825
285389
303711
303354
167776
135524
226384
128898
62188.8
101400
447342
453744
463132
464672