/*--------------------------------*- C++ -*----------------------------------*\
| =========                 |                                                 |
| \\      /  F ield         | OpenFOAM: The Open Source CFD Toolbox           |
|  \\    /   O peration     | Version:  v2012                                 |
|   \\  /    A nd           | Website:  www.openfoam.com                      |
|    \\/     M anipulation  |                                                 |
\*---------------------------------------------------------------------------*/
FoamFile
{
    version     2.0;
    format      ascii;
    class       volScalarField;
    location    "1e-06";
    object      totalPMean;
}
// * * * * * * * * * * * * * * * * * * * * * * * * * * * * * * * * * * * * * //

dimensions      [1 -1 -2 0 0 0 0];


internalField   nonuniform List<scalar> 
10178
(
8.0967e+06
7.80734e+06
7.45837e+06
7.16163e+06
6.85531e+06
6.4285e+06
6.16338e+06
5.97034e+06
5.72977e+06
5.48552e+06
5.31966e+06
5.20713e+06
5.08453e+06
4.98206e+06
4.90379e+06
4.8116e+06
4.72499e+06
4.65832e+06
4.67239e+06
4.72666e+06
4.69612e+06
4.5905e+06
4.5526e+06
4.5779e+06
4.49738e+06
4.30698e+06
4.17601e+06
4.21032e+06
4.32308e+06
4.29998e+06
4.16899e+06
4.18272e+06
4.33781e+06
4.33219e+06
4.18041e+06
4.15918e+06
4.25382e+06
4.46649e+06
4.53111e+06
4.43809e+06
4.49892e+06
4.67498e+06
4.96379e+06
5.2501e+06
5.55809e+06
6.04058e+06
6.40373e+06
6.73872e+06
7.0784e+06
7.45592e+06
7.84786e+06
8.27624e+06
8.74592e+06
9.15364e+06
9.56542e+06
9.85461e+06
1.00389e+07
1.03422e+07
1.07815e+07
1.12344e+07
1.17805e+07
1.24361e+07
1.29592e+07
1.35854e+07
1.42669e+07
1.50755e+07
1.56534e+07
1.61218e+07
1.69192e+07
1.80611e+07
1.85875e+07
1.87409e+07
1.95214e+07
1.94268e+07
1.85346e+07
1.83535e+07
1.73945e+07
1.59987e+07
1.53413e+07
1.50231e+07
1.50184e+07
1.49071e+07
1.46722e+07
1.50385e+07
1.56268e+07
1.55545e+07
1.59149e+07
1.65994e+07
1.64923e+07
1.66836e+07
1.70678e+07
1.67044e+07
1.64586e+07
1.63117e+07
1.56525e+07
1.4806e+07
1.40783e+07
1.2849e+07
1.15985e+07
1.14169e+07
1.06661e+07
9.89828e+06
1.12521e+07
1.27219e+07
1.39293e+07
1.59711e+07
1.84236e+07
2.04582e+07
2.12956e+07
2.21154e+07
2.31169e+07
2.27183e+07
2.24492e+07
2.23598e+07
2.11904e+07
1.9265e+07
1.7335e+07
1.54024e+07
1.32556e+07
1.08441e+07
8.49015e+06
6.91656e+06
6.61192e+06
5.94669e+06
5.27583e+06
5.98016e+06
6.74005e+06
7.30073e+06
8.03145e+06
9.00277e+06
9.7461e+06
9.66738e+06
8.55798e+06
7.53811e+06
6.62973e+06
4.83149e+06
2.72851e+06
1.00077e+06
8.09677e+06
7.80741e+06
7.45943e+06
7.16278e+06
6.85666e+06
6.42879e+06
6.16388e+06
5.97039e+06
5.72985e+06
5.48572e+06
5.31972e+06
5.20716e+06
5.08457e+06
4.98211e+06
4.90384e+06
4.81163e+06
4.725e+06
4.65835e+06
4.67241e+06
4.7267e+06
4.69613e+06
4.59049e+06
4.55257e+06
4.5779e+06
4.49735e+06
4.30683e+06
4.17608e+06
4.21027e+06
4.32307e+06
4.29997e+06
4.16897e+06
4.18264e+06
4.33778e+06
4.33218e+06
4.18041e+06
4.15914e+06
4.25371e+06
4.46647e+06
4.5311e+06
4.43808e+06
4.49888e+06
4.67487e+06
4.96376e+06
5.25008e+06
5.55767e+06
6.03958e+06
6.40275e+06
6.73776e+06
7.07744e+06
7.45494e+06
7.84688e+06
8.27525e+06
8.74466e+06
9.15238e+06
9.56421e+06
9.85353e+06
1.00385e+07
1.03417e+07
1.07809e+07
1.12339e+07
1.17799e+07
1.24355e+07
1.29587e+07
1.35848e+07
1.42662e+07
1.50752e+07
1.56532e+07
1.61216e+07
1.69189e+07
1.80609e+07
1.85874e+07
1.87408e+07
1.95215e+07
1.94269e+07
1.85347e+07
1.83537e+07
1.73947e+07
1.5999e+07
1.53416e+07
1.50234e+07
1.50186e+07
1.49073e+07
1.46724e+07
1.50386e+07
1.56269e+07
1.55546e+07
1.5915e+07
1.65995e+07
1.64924e+07
1.66837e+07
1.70679e+07
1.67045e+07
1.64587e+07
1.63118e+07
1.56527e+07
1.48061e+07
1.40784e+07
1.28491e+07
1.15986e+07
1.1417e+07
1.06662e+07
9.89838e+06
1.12521e+07
1.27221e+07
1.3929e+07
1.59712e+07
1.84238e+07
2.04584e+07
2.12958e+07
2.21155e+07
2.3117e+07
2.27184e+07
2.24494e+07
2.236e+07
2.11908e+07
1.92652e+07
1.73353e+07
1.54026e+07
1.32556e+07
1.08442e+07
8.49022e+06
6.91666e+06
6.6121e+06
5.94684e+06
5.27595e+06
5.9802e+06
6.74027e+06
7.30081e+06
8.03148e+06
9.00296e+06
9.7463e+06
9.66757e+06
8.55828e+06
7.53846e+06
6.63027e+06
4.83173e+06
2.72867e+06
1.001e+06
8.09686e+06
7.80767e+06
7.46034e+06
7.16288e+06
6.85714e+06
6.42902e+06
6.1644e+06
5.97046e+06
5.72999e+06
5.48593e+06
5.31979e+06
5.20721e+06
5.08463e+06
4.98215e+06
4.90388e+06
4.81167e+06
4.72502e+06
4.65839e+06
4.67243e+06
4.72673e+06
4.69615e+06
4.59049e+06
4.55252e+06
4.57786e+06
4.49729e+06
4.3067e+06
4.17611e+06
4.2102e+06
4.32304e+06
4.29995e+06
4.16893e+06
4.18254e+06
4.33771e+06
4.33215e+06
4.18039e+06
4.15909e+06
4.25356e+06
4.46642e+06
4.53106e+06
4.43804e+06
4.49884e+06
4.67476e+06
4.9637e+06
5.25002e+06
5.55743e+06
6.03895e+06
6.40214e+06
6.73715e+06
7.07681e+06
7.45431e+06
7.84629e+06
8.27464e+06
8.74386e+06
9.15156e+06
9.56349e+06
9.85297e+06
1.00382e+07
1.03414e+07
1.07806e+07
1.12335e+07
1.17795e+07
1.24351e+07
1.29583e+07
1.35843e+07
1.42657e+07
1.50749e+07
1.56529e+07
1.61213e+07
1.69185e+07
1.80606e+07
1.85873e+07
1.87407e+07
1.95216e+07
1.94271e+07
1.85349e+07
1.8354e+07
1.73951e+07
1.59994e+07
1.5342e+07
1.50238e+07
1.5019e+07
1.49077e+07
1.46727e+07
1.50389e+07
1.56272e+07
1.55547e+07
1.59153e+07
1.65998e+07
1.64925e+07
1.66838e+07
1.70681e+07
1.67047e+07
1.64589e+07
1.6312e+07
1.5653e+07
1.48063e+07
1.40786e+07
1.28492e+07
1.15987e+07
1.14172e+07
1.06664e+07
9.89862e+06
1.12522e+07
1.27222e+07
1.39284e+07
1.59712e+07
1.84242e+07
2.04586e+07
2.1296e+07
2.21157e+07
2.31173e+07
2.27187e+07
2.24497e+07
2.23604e+07
2.11916e+07
1.92656e+07
1.73356e+07
1.54029e+07
1.32558e+07
1.08443e+07
8.49034e+06
6.91683e+06
6.6124e+06
5.94707e+06
5.27618e+06
5.98025e+06
6.74058e+06
7.30073e+06
8.03148e+06
9.00323e+06
9.7466e+06
9.66789e+06
8.55874e+06
7.53888e+06
6.63122e+06
4.83223e+06
2.72884e+06
1.00133e+06
8.09692e+06
7.80807e+06
7.46156e+06
7.16315e+06
6.8577e+06
6.42925e+06
6.1649e+06
5.97048e+06
5.7301e+06
5.48609e+06
5.31979e+06
5.20719e+06
5.0846e+06
4.98211e+06
4.90384e+06
4.81162e+06
4.72496e+06
4.65838e+06
4.67243e+06
4.72674e+06
4.69612e+06
4.59047e+06
4.55246e+06
4.57781e+06
4.49723e+06
4.30657e+06
4.17616e+06
4.21018e+06
4.32303e+06
4.29993e+06
4.1689e+06
4.18246e+06
4.33766e+06
4.33213e+06
4.18039e+06
4.15903e+06
4.25343e+06
4.46637e+06
4.53103e+06
4.438e+06
4.49877e+06
4.67461e+06
4.96361e+06
5.24993e+06
5.55696e+06
6.03797e+06
6.40117e+06
6.73619e+06
7.07585e+06
7.45333e+06
7.84533e+06
8.2737e+06
8.74265e+06
9.15035e+06
9.56233e+06
9.85211e+06
1.00378e+07
1.0341e+07
1.07801e+07
1.1233e+07
1.17789e+07
1.24346e+07
1.29577e+07
1.35837e+07
1.42651e+07
1.50746e+07
1.56527e+07
1.61211e+07
1.69181e+07
1.80603e+07
1.85871e+07
1.87405e+07
1.95216e+07
1.94271e+07
1.85349e+07
1.83542e+07
1.73951e+07
1.59994e+07
1.5342e+07
1.50238e+07
1.5019e+07
1.49076e+07
1.46726e+07
1.50389e+07
1.56272e+07
1.55545e+07
1.59151e+07
1.65998e+07
1.64924e+07
1.66838e+07
1.70681e+07
1.67047e+07
1.64589e+07
1.63122e+07
1.56533e+07
1.48064e+07
1.4079e+07
1.28494e+07
1.15987e+07
1.14175e+07
1.06666e+07
9.89857e+06
1.12521e+07
1.2722e+07
1.39274e+07
1.59705e+07
1.84242e+07
2.04586e+07
2.1296e+07
2.21158e+07
2.31174e+07
2.27188e+07
2.24498e+07
2.23607e+07
2.11923e+07
1.92657e+07
1.73357e+07
1.54031e+07
1.32561e+07
1.08445e+07
8.49039e+06
6.91683e+06
6.61273e+06
5.94708e+06
5.27611e+06
5.97997e+06
6.74061e+06
7.3002e+06
8.03087e+06
9.00324e+06
9.74667e+06
9.66801e+06
8.55891e+06
7.53895e+06
6.63212e+06
4.83259e+06
2.72885e+06
1.00153e+06
8.09701e+06
7.80869e+06
7.4627e+06
7.16338e+06
6.85826e+06
6.42947e+06
6.16544e+06
5.97054e+06
5.73025e+06
5.48627e+06
5.31981e+06
5.20721e+06
5.0846e+06
4.98209e+06
4.90383e+06
4.8116e+06
4.72491e+06
4.6584e+06
4.67246e+06
4.72677e+06
4.69612e+06
4.59047e+06
4.55243e+06
4.57779e+06
4.4972e+06
4.30649e+06
4.17607e+06
4.21019e+06
4.32304e+06
4.29993e+06
4.16888e+06
4.18241e+06
4.33766e+06
4.33213e+06
4.18045e+06
4.15902e+06
4.25335e+06
4.46637e+06
4.53103e+06
4.43798e+06
4.49874e+06
4.6745e+06
4.96356e+06
5.24988e+06
5.55664e+06
6.03712e+06
6.40036e+06
6.73539e+06
7.07505e+06
7.45251e+06
7.84451e+06
8.27286e+06
8.74158e+06
9.14926e+06
9.56129e+06
9.85114e+06
1.00374e+07
1.03406e+07
1.07797e+07
1.12326e+07
1.17784e+07
1.24341e+07
1.29572e+07
1.35831e+07
1.42645e+07
1.50742e+07
1.56524e+07
1.61208e+07
1.69178e+07
1.80601e+07
1.85871e+07
1.87404e+07
1.95217e+07
1.94273e+07
1.85351e+07
1.83547e+07
1.73956e+07
1.59997e+07
1.53423e+07
1.50241e+07
1.50194e+07
1.49079e+07
1.46728e+07
1.50392e+07
1.56274e+07
1.55545e+07
1.5915e+07
1.65999e+07
1.64924e+07
1.66837e+07
1.70682e+07
1.67048e+07
1.6459e+07
1.63124e+07
1.56537e+07
1.48067e+07
1.40796e+07
1.28499e+07
1.15989e+07
1.14179e+07
1.06672e+07
9.89875e+06
1.12524e+07
1.27222e+07
1.39266e+07
1.59694e+07
1.84244e+07
2.04588e+07
2.12961e+07
2.2116e+07
2.31177e+07
2.2719e+07
2.24499e+07
2.2361e+07
2.11932e+07
1.92658e+07
1.73357e+07
1.54035e+07
1.32567e+07
1.08449e+07
8.49056e+06
6.917e+06
6.61329e+06
5.94753e+06
5.27631e+06
5.97991e+06
6.74092e+06
7.29989e+06
8.03044e+06
9.00347e+06
9.74694e+06
9.66833e+06
8.55919e+06
7.53913e+06
6.63324e+06
4.83314e+06
2.72897e+06
1.00189e+06
8.09716e+06
7.80945e+06
7.46401e+06
7.16417e+06
6.85891e+06
6.42989e+06
6.16602e+06
5.97062e+06
5.73041e+06
5.48645e+06
5.31984e+06
5.20723e+06
5.08458e+06
4.98203e+06
4.90377e+06
4.81152e+06
4.72481e+06
4.65839e+06
4.67244e+06
4.72678e+06
4.6961e+06
4.59042e+06
4.55233e+06
4.57772e+06
4.49713e+06
4.30634e+06
4.17635e+06
4.21017e+06
4.323e+06
4.29988e+06
4.1688e+06
4.18223e+06
4.33754e+06
4.33206e+06
4.18039e+06
4.15891e+06
4.25314e+06
4.46628e+06
4.53096e+06
4.4379e+06
4.49863e+06
4.67431e+06
4.96342e+06
5.24972e+06
5.55615e+06
6.03605e+06
6.39929e+06
6.73433e+06
7.07398e+06
7.45144e+06
7.84348e+06
8.27185e+06
8.74026e+06
9.14794e+06
9.56003e+06
9.85007e+06
1.00369e+07
1.03401e+07
1.07791e+07
1.1232e+07
1.17778e+07
1.24334e+07
1.29566e+07
1.35824e+07
1.42637e+07
1.50737e+07
1.56521e+07
1.61205e+07
1.69173e+07
1.80598e+07
1.85869e+07
1.87402e+07
1.95217e+07
1.94273e+07
1.85353e+07
1.83549e+07
1.73958e+07
1.6e+07
1.53426e+07
1.50244e+07
1.50197e+07
1.49082e+07
1.4673e+07
1.50394e+07
1.56276e+07
1.55545e+07
1.5915e+07
1.66001e+07
1.64925e+07
1.66838e+07
1.70684e+07
1.6705e+07
1.64591e+07
1.63126e+07
1.56541e+07
1.48071e+07
1.40802e+07
1.28503e+07
1.1599e+07
1.14183e+07
1.06673e+07
9.89883e+06
1.12524e+07
1.27219e+07
1.39257e+07
1.59684e+07
1.84248e+07
2.04591e+07
2.12964e+07
2.21162e+07
2.3118e+07
2.27193e+07
2.24501e+07
2.23615e+07
2.11944e+07
1.92662e+07
1.7336e+07
1.54039e+07
1.32572e+07
1.08452e+07
8.49063e+06
6.91711e+06
6.61382e+06
5.9477e+06
5.27638e+06
5.97965e+06
6.7412e+06
7.29953e+06
8.03e+06
9.00373e+06
9.74729e+06
9.66873e+06
8.55976e+06
7.53943e+06
6.63443e+06
4.83395e+06
2.72909e+06
1.00227e+06
8.09732e+06
7.81018e+06
7.46535e+06
7.1641e+06
6.85939e+06
6.43024e+06
6.16659e+06
5.97068e+06
5.73055e+06
5.48658e+06
5.31985e+06
5.20723e+06
5.08453e+06
4.98192e+06
4.90368e+06
4.81139e+06
4.72465e+06
4.65836e+06
4.67241e+06
4.72678e+06
4.69606e+06
4.59037e+06
4.55224e+06
4.57766e+06
4.49707e+06
4.30623e+06
4.17605e+06
4.21016e+06
4.32298e+06
4.29983e+06
4.16873e+06
4.18208e+06
4.33745e+06
4.33201e+06
4.18035e+06
4.15882e+06
4.25294e+06
4.4662e+06
4.53089e+06
4.43782e+06
4.49852e+06
4.67411e+06
4.96327e+06
5.24953e+06
5.55569e+06
6.03494e+06
6.39821e+06
6.73329e+06
7.07293e+06
7.45036e+06
7.84241e+06
8.2708e+06
8.73891e+06
9.14659e+06
9.55873e+06
9.84895e+06
1.00364e+07
1.03395e+07
1.07785e+07
1.12314e+07
1.17771e+07
1.24327e+07
1.29559e+07
1.35816e+07
1.42629e+07
1.50733e+07
1.56517e+07
1.61201e+07
1.69168e+07
1.80594e+07
1.85867e+07
1.874e+07
1.95217e+07
1.94273e+07
1.85353e+07
1.83552e+07
1.73958e+07
1.6e+07
1.53427e+07
1.50244e+07
1.50197e+07
1.49082e+07
1.4673e+07
1.50394e+07
1.56277e+07
1.55543e+07
1.59146e+07
1.66001e+07
1.64923e+07
1.66836e+07
1.70685e+07
1.67051e+07
1.64592e+07
1.63128e+07
1.56545e+07
1.48074e+07
1.40807e+07
1.28509e+07
1.15991e+07
1.14187e+07
1.06677e+07
9.89871e+06
1.12524e+07
1.27213e+07
1.39244e+07
1.59669e+07
1.84248e+07
2.04591e+07
2.12964e+07
2.21162e+07
2.31182e+07
2.27195e+07
2.24501e+07
2.23618e+07
2.11954e+07
1.92663e+07
1.73361e+07
1.54044e+07
1.32578e+07
1.08456e+07
8.49069e+06
6.91711e+06
6.61425e+06
5.94772e+06
5.27623e+06
5.9791e+06
6.74125e+06
7.29887e+06
8.02926e+06
9.00376e+06
9.74742e+06
9.66897e+06
8.56008e+06
7.53944e+06
6.63553e+06
4.83464e+06
2.72908e+06
1.00258e+06
8.0975e+06
7.81091e+06
7.46678e+06
7.16527e+06
6.85986e+06
6.43068e+06
6.16717e+06
5.97077e+06
5.73072e+06
5.4867e+06
5.31986e+06
5.20724e+06
5.08449e+06
4.9818e+06
4.90357e+06
4.81124e+06
4.72447e+06
4.65836e+06
4.6724e+06
4.72679e+06
4.69603e+06
4.5903e+06
4.55215e+06
4.5776e+06
4.49701e+06
4.30613e+06
4.17692e+06
4.21015e+06
4.32295e+06
4.29978e+06
4.16864e+06
4.18191e+06
4.33734e+06
4.33195e+06
4.18027e+06
4.15871e+06
4.25273e+06
4.46612e+06
4.53082e+06
4.43772e+06
4.4984e+06
4.67391e+06
4.96311e+06
5.24933e+06
5.5552e+06
6.03378e+06
6.39707e+06
6.73215e+06
7.07181e+06
7.44923e+06
7.84129e+06
8.26969e+06
8.73748e+06
9.14517e+06
9.55736e+06
9.84778e+06
1.00359e+07
1.0339e+07
1.07779e+07
1.12308e+07
1.17764e+07
1.2432e+07
1.29552e+07
1.35808e+07
1.42621e+07
1.50729e+07
1.56514e+07
1.61197e+07
1.69164e+07
1.8059e+07
1.85865e+07
1.87398e+07
1.95218e+07
1.94274e+07
1.85354e+07
1.83557e+07
1.7396e+07
1.60003e+07
1.53429e+07
1.50247e+07
1.502e+07
1.49084e+07
1.46731e+07
1.50397e+07
1.56278e+07
1.55542e+07
1.59144e+07
1.66003e+07
1.64923e+07
1.66835e+07
1.70687e+07
1.67053e+07
1.64593e+07
1.6313e+07
1.5655e+07
1.48079e+07
1.40814e+07
1.28516e+07
1.15995e+07
1.14191e+07
1.06682e+07
9.89874e+06
1.12526e+07
1.27209e+07
1.39232e+07
1.59656e+07
1.8425e+07
2.04593e+07
2.12964e+07
2.21164e+07
2.31186e+07
2.27197e+07
2.24502e+07
2.23622e+07
2.11966e+07
1.92665e+07
1.73362e+07
1.54049e+07
1.32586e+07
1.08463e+07
8.49088e+06
6.91721e+06
6.61486e+06
5.94788e+06
5.27625e+06
5.97875e+06
6.74153e+06
7.29839e+06
8.02869e+06
9.00401e+06
9.74777e+06
9.66942e+06
8.56054e+06
7.5396e+06
6.6368e+06
4.83545e+06
2.72917e+06
1.00303e+06
8.09773e+06
7.81165e+06
7.46827e+06
7.16621e+06
6.86017e+06
6.43135e+06
6.16792e+06
5.97086e+06
5.73089e+06
5.4868e+06
5.31984e+06
5.20725e+06
5.08442e+06
4.98163e+06
4.90342e+06
4.81105e+06
4.72426e+06
4.65833e+06
4.67238e+06
4.72679e+06
4.69598e+06
4.59023e+06
4.55207e+06
4.57754e+06
4.49694e+06
4.30605e+06
4.17732e+06
4.21015e+06
4.32293e+06
4.29972e+06
4.16854e+06
4.18172e+06
4.33723e+06
4.33187e+06
4.18016e+06
4.15861e+06
4.25249e+06
4.46602e+06
4.53074e+06
4.4376e+06
4.49825e+06
4.67367e+06
4.96292e+06
5.2491e+06
5.55464e+06
6.03252e+06
6.39583e+06
6.73091e+06
7.07057e+06
7.44799e+06
7.84007e+06
8.2685e+06
8.73593e+06
9.14364e+06
9.55589e+06
9.84651e+06
1.00353e+07
1.03384e+07
1.07773e+07
1.12302e+07
1.17757e+07
1.24312e+07
1.29544e+07
1.35799e+07
1.42612e+07
1.50723e+07
1.5651e+07
1.61193e+07
1.69158e+07
1.80586e+07
1.85862e+07
1.87395e+07
1.95217e+07
1.94274e+07
1.85354e+07
1.8356e+07
1.7396e+07
1.60003e+07
1.53429e+07
1.50247e+07
1.502e+07
1.49083e+07
1.4673e+07
1.50397e+07
1.56279e+07
1.5554e+07
1.5914e+07
1.66003e+07
1.64921e+07
1.66833e+07
1.70687e+07
1.67053e+07
1.64593e+07
1.63132e+07
1.56554e+07
1.48084e+07
1.4082e+07
1.28523e+07
1.15999e+07
1.14196e+07
1.06686e+07
9.8986e+06
1.12527e+07
1.27202e+07
1.39217e+07
1.59639e+07
1.84247e+07
2.04593e+07
2.1296e+07
2.21165e+07
2.31189e+07
2.27199e+07
2.24502e+07
2.23625e+07
2.11978e+07
1.92665e+07
1.73362e+07
1.54055e+07
1.32596e+07
1.08472e+07
8.49147e+06
6.91732e+06
6.61538e+06
5.94822e+06
5.27603e+06
5.97815e+06
6.74159e+06
7.29762e+06
8.02784e+06
9.00406e+06
9.74795e+06
9.66974e+06
8.56077e+06
7.53962e+06
6.63802e+06
4.83615e+06
2.72917e+06
1.00344e+06
8.09803e+06
7.81241e+06
7.46983e+06
7.16737e+06
6.86058e+06
6.43186e+06
6.1683e+06
5.97096e+06
5.73108e+06
5.48686e+06
5.3198e+06
5.20725e+06
5.08435e+06
4.98146e+06
4.90327e+06
4.81088e+06
4.72405e+06
4.65831e+06
4.67238e+06
4.72682e+06
4.69594e+06
4.59016e+06
4.552e+06
4.57749e+06
4.49689e+06
4.30601e+06
4.17788e+06
4.21018e+06
4.32293e+06
4.29968e+06
4.16846e+06
4.18155e+06
4.33716e+06
4.33184e+06
4.18008e+06
4.15853e+06
4.25228e+06
4.46597e+06
4.53071e+06
4.43751e+06
4.49812e+06
4.67343e+06
4.96273e+06
5.24886e+06
5.55411e+06
6.03122e+06
6.39457e+06
6.72965e+06
7.06933e+06
7.44671e+06
7.83879e+06
8.26724e+06
8.73432e+06
9.14205e+06
9.55435e+06
9.84519e+06
1.00347e+07
1.03378e+07
1.07766e+07
1.12295e+07
1.17749e+07
1.24305e+07
1.29537e+07
1.3579e+07
1.42603e+07
1.50718e+07
1.56506e+07
1.61189e+07
1.69153e+07
1.80582e+07
1.85861e+07
1.87393e+07
1.95218e+07
1.94275e+07
1.85355e+07
1.83565e+07
1.73963e+07
1.60005e+07
1.53432e+07
1.5025e+07
1.50203e+07
1.49085e+07
1.4673e+07
1.50399e+07
1.5628e+07
1.55538e+07
1.59138e+07
1.66004e+07
1.64921e+07
1.66831e+07
1.70689e+07
1.67053e+07
1.64593e+07
1.63135e+07
1.56559e+07
1.48089e+07
1.40827e+07
1.28533e+07
1.16004e+07
1.14202e+07
1.06693e+07
9.89861e+06
1.1253e+07
1.27196e+07
1.39204e+07
1.59623e+07
1.84243e+07
2.04595e+07
2.12957e+07
2.21167e+07
2.31194e+07
2.27201e+07
2.24503e+07
2.2363e+07
2.1199e+07
1.92665e+07
1.73362e+07
1.54062e+07
1.32609e+07
1.08485e+07
8.49252e+06
6.91789e+06
6.61611e+06
5.94892e+06
5.27601e+06
5.97774e+06
6.74188e+06
7.297e+06
8.02713e+06
9.00427e+06
9.74829e+06
9.6702e+06
8.56106e+06
7.53973e+06
6.63939e+06
4.83692e+06
2.72923e+06
1.00397e+06
8.09851e+06
7.81323e+06
7.47149e+06
7.16858e+06
6.86102e+06
6.4337e+06
6.16965e+06
5.9711e+06
5.73131e+06
5.48728e+06
5.31982e+06
5.20727e+06
5.08428e+06
4.98125e+06
4.90307e+06
4.81066e+06
4.72381e+06
4.65824e+06
4.6723e+06
4.72679e+06
4.69587e+06
4.59003e+06
4.55181e+06
4.57738e+06
4.49678e+06
4.30585e+06
4.17838e+06
4.21019e+06
4.32283e+06
4.29956e+06
4.16827e+06
4.18121e+06
4.33694e+06
4.33169e+06
4.17993e+06
4.15833e+06
4.25194e+06
4.4658e+06
4.53056e+06
4.43737e+06
4.49788e+06
4.67309e+06
4.96243e+06
5.24853e+06
5.55345e+06
6.02979e+06
6.39316e+06
6.72823e+06
7.06791e+06
7.44529e+06
7.83742e+06
8.26589e+06
8.73258e+06
9.14032e+06
9.55269e+06
9.84376e+06
1.0034e+07
1.03371e+07
1.07758e+07
1.12287e+07
1.1774e+07
1.24296e+07
1.29528e+07
1.3578e+07
1.42593e+07
1.50712e+07
1.56501e+07
1.61183e+07
1.69146e+07
1.80576e+07
1.85857e+07
1.87389e+07
1.95217e+07
1.94276e+07
1.85356e+07
1.83566e+07
1.73964e+07
1.60007e+07
1.53434e+07
1.50253e+07
1.50206e+07
1.49087e+07
1.46731e+07
1.50401e+07
1.56283e+07
1.55537e+07
1.59135e+07
1.66006e+07
1.64921e+07
1.66831e+07
1.70691e+07
1.67056e+07
1.64595e+07
1.63138e+07
1.56565e+07
1.48095e+07
1.40834e+07
1.28541e+07
1.16008e+07
1.14207e+07
1.06697e+07
9.89845e+06
1.12531e+07
1.27187e+07
1.39189e+07
1.59607e+07
1.84246e+07
2.04598e+07
2.12959e+07
2.21169e+07
2.312e+07
2.27205e+07
2.24504e+07
2.23635e+07
2.12003e+07
1.9267e+07
1.73367e+07
1.54071e+07
1.32619e+07
1.08493e+07
8.49256e+06
6.91795e+06
6.61676e+06
5.94902e+06
5.27584e+06
5.97726e+06
6.742e+06
7.29633e+06
8.02644e+06
9.00453e+06
9.74876e+06
9.67081e+06
8.56215e+06
7.54011e+06
6.64087e+06
4.83825e+06
2.72939e+06
1.00458e+06
8.09909e+06
7.81407e+06
7.47322e+06
7.16987e+06
6.86152e+06
6.43529e+06
6.17077e+06
5.97126e+06
5.73154e+06
5.48763e+06
5.31983e+06
5.20728e+06
5.08419e+06
4.98101e+06
4.90287e+06
4.81044e+06
4.72355e+06
4.65817e+06
4.67222e+06
4.72677e+06
4.69581e+06
4.58989e+06
4.55162e+06
4.57727e+06
4.49667e+06
4.30572e+06
4.1789e+06
4.21024e+06
4.32275e+06
4.29943e+06
4.16807e+06
4.18088e+06
4.33672e+06
4.33153e+06
4.17977e+06
4.15812e+06
4.2516e+06
4.46564e+06
4.53042e+06
4.43722e+06
4.49764e+06
4.67275e+06
4.96209e+06
5.24817e+06
5.55275e+06
6.02827e+06
6.39165e+06
6.72673e+06
7.06642e+06
7.4438e+06
7.83594e+06
8.26445e+06
8.73074e+06
9.1385e+06
9.55091e+06
9.84225e+06
1.00333e+07
1.03364e+07
1.0775e+07
1.12279e+07
1.17731e+07
1.24286e+07
1.29519e+07
1.3577e+07
1.42582e+07
1.50705e+07
1.56495e+07
1.61178e+07
1.69139e+07
1.8057e+07
1.85853e+07
1.87384e+07
1.95216e+07
1.94275e+07
1.85356e+07
1.83566e+07
1.73964e+07
1.60007e+07
1.53435e+07
1.50253e+07
1.50206e+07
1.49086e+07
1.4673e+07
1.50401e+07
1.56283e+07
1.55534e+07
1.59131e+07
1.66006e+07
1.6492e+07
1.66829e+07
1.70693e+07
1.67057e+07
1.64596e+07
1.6314e+07
1.5657e+07
1.481e+07
1.40841e+07
1.28549e+07
1.16013e+07
1.14211e+07
1.06702e+07
9.89819e+06
1.12531e+07
1.27174e+07
1.39169e+07
1.59588e+07
1.84247e+07
2.04598e+07
2.12959e+07
2.2117e+07
2.31205e+07
2.27206e+07
2.24504e+07
2.2364e+07
2.12017e+07
1.92673e+07
1.73371e+07
1.54081e+07
1.3263e+07
1.08505e+07
8.49311e+06
6.91795e+06
6.61737e+06
5.94904e+06
5.27546e+06
5.97656e+06
6.74191e+06
7.29537e+06
8.02546e+06
9.00459e+06
9.74907e+06
9.67129e+06
8.56307e+06
7.54023e+06
6.64233e+06
4.83952e+06
2.72946e+06
1.00517e+06
8.09979e+06
7.81496e+06
7.47503e+06
7.17123e+06
6.86205e+06
6.43705e+06
6.17199e+06
5.97148e+06
5.7318e+06
5.488e+06
5.31984e+06
5.20729e+06
5.08409e+06
4.98075e+06
4.90266e+06
4.8102e+06
4.72328e+06
4.65807e+06
4.67213e+06
4.72674e+06
4.69573e+06
4.58973e+06
4.5514e+06
4.57715e+06
4.49656e+06
4.30558e+06
4.17941e+06
4.21025e+06
4.32264e+06
4.29928e+06
4.16784e+06
4.18052e+06
4.33647e+06
4.33136e+06
4.1796e+06
4.15789e+06
4.25122e+06
4.46546e+06
4.53026e+06
4.43707e+06
4.49738e+06
4.67238e+06
4.96173e+06
5.2478e+06
5.55201e+06
6.02669e+06
6.39008e+06
6.72514e+06
7.06486e+06
7.44223e+06
7.8344e+06
8.26294e+06
8.7288e+06
9.1366e+06
9.54905e+06
9.84066e+06
1.00326e+07
1.03357e+07
1.07742e+07
1.12271e+07
1.17722e+07
1.24276e+07
1.29509e+07
1.35758e+07
1.4257e+07
1.50698e+07
1.56489e+07
1.61171e+07
1.69131e+07
1.80564e+07
1.85849e+07
1.8738e+07
1.95214e+07
1.94275e+07
1.85357e+07
1.83567e+07
1.73965e+07
1.60009e+07
1.53437e+07
1.50255e+07
1.50208e+07
1.49087e+07
1.4673e+07
1.50403e+07
1.56285e+07
1.55532e+07
1.59127e+07
1.66008e+07
1.6492e+07
1.66827e+07
1.70696e+07
1.67059e+07
1.64597e+07
1.63144e+07
1.56576e+07
1.48107e+07
1.4085e+07
1.28559e+07
1.16018e+07
1.14217e+07
1.06708e+07
9.89801e+06
1.12533e+07
1.27163e+07
1.39152e+07
1.5957e+07
1.84247e+07
2.046e+07
2.1296e+07
2.21172e+07
2.31211e+07
2.27209e+07
2.24505e+07
2.23646e+07
2.12032e+07
1.92676e+07
1.73376e+07
1.54093e+07
1.32643e+07
1.0852e+07
8.49407e+06
6.91802e+06
6.61814e+06
5.94914e+06
5.27519e+06
5.97602e+06
6.74193e+06
7.29454e+06
8.02461e+06
9.00485e+06
9.74958e+06
9.67198e+06
8.56421e+06
7.54047e+06
6.64394e+06
4.84091e+06
2.72975e+06
1.0059e+06
8.10054e+06
7.81588e+06
7.47693e+06
7.17263e+06
6.86262e+06
6.43889e+06
6.17326e+06
5.97176e+06
5.73208e+06
5.48838e+06
5.31984e+06
5.2073e+06
5.08398e+06
4.98049e+06
4.90244e+06
4.80995e+06
4.72299e+06
4.65797e+06
4.67204e+06
4.72671e+06
4.69564e+06
4.58955e+06
4.55116e+06
4.57702e+06
4.49643e+06
4.30546e+06
4.17993e+06
4.21024e+06
4.32252e+06
4.29912e+06
4.16759e+06
4.18012e+06
4.3362e+06
4.33116e+06
4.1794e+06
4.15763e+06
4.25081e+06
4.46525e+06
4.53009e+06
4.43689e+06
4.49709e+06
4.67197e+06
4.96131e+06
5.24738e+06
5.55121e+06
6.025e+06
6.38839e+06
6.72344e+06
7.06319e+06
7.44055e+06
7.83274e+06
8.26132e+06
8.72675e+06
9.13457e+06
9.54707e+06
9.83896e+06
1.00318e+07
1.03349e+07
1.07733e+07
1.12262e+07
1.17712e+07
1.24266e+07
1.29499e+07
1.35746e+07
1.42558e+07
1.5069e+07
1.56483e+07
1.61165e+07
1.69123e+07
1.80557e+07
1.85844e+07
1.87374e+07
1.95212e+07
1.94274e+07
1.85357e+07
1.83568e+07
1.73965e+07
1.60009e+07
1.53436e+07
1.50256e+07
1.50209e+07
1.49086e+07
1.46728e+07
1.50403e+07
1.56285e+07
1.55529e+07
1.59123e+07
1.66009e+07
1.64918e+07
1.66824e+07
1.70698e+07
1.6706e+07
1.64598e+07
1.63147e+07
1.56581e+07
1.48113e+07
1.40858e+07
1.28568e+07
1.16023e+07
1.14223e+07
1.06714e+07
9.89772e+06
1.12534e+07
1.27149e+07
1.39129e+07
1.59548e+07
1.84242e+07
2.046e+07
2.12957e+07
2.21173e+07
2.31218e+07
2.27211e+07
2.24505e+07
2.23651e+07
2.12047e+07
1.92678e+07
1.7338e+07
1.54106e+07
1.32658e+07
1.08538e+07
8.49552e+06
6.91852e+06
6.61888e+06
5.94913e+06
5.27472e+06
5.97525e+06
6.7417e+06
7.29342e+06
8.02349e+06
9.00493e+06
9.74996e+06
9.67259e+06
8.56526e+06
7.54054e+06
6.64555e+06
4.84229e+06
2.73004e+06
1.00661e+06
8.10132e+06
7.81684e+06
7.47891e+06
7.1741e+06
6.86324e+06
6.44077e+06
6.17458e+06
5.97212e+06
5.73236e+06
5.48878e+06
5.31983e+06
5.20709e+06
5.08385e+06
4.9802e+06
4.9022e+06
4.80969e+06
4.72268e+06
4.65783e+06
4.67192e+06
4.72668e+06
4.69554e+06
4.58934e+06
4.55088e+06
4.57687e+06
4.49629e+06
4.30534e+06
4.18045e+06
4.21019e+06
4.32237e+06
4.29893e+06
4.16729e+06
4.17968e+06
4.3359e+06
4.33093e+06
4.17918e+06
4.15734e+06
4.25037e+06
4.46502e+06
4.52989e+06
4.4367e+06
4.49676e+06
4.67153e+06
4.96088e+06
5.24693e+06
5.55036e+06
6.02324e+06
6.38663e+06
6.72166e+06
7.06144e+06
7.4388e+06
7.83101e+06
8.25964e+06
8.7246e+06
9.13245e+06
9.54498e+06
9.83719e+06
1.00309e+07
1.0334e+07
1.07723e+07
1.12253e+07
1.17701e+07
1.24254e+07
1.29488e+07
1.35734e+07
1.42544e+07
1.50682e+07
1.56476e+07
1.61157e+07
1.69114e+07
1.8055e+07
1.85838e+07
1.87369e+07
1.95211e+07
1.94273e+07
1.85357e+07
1.83569e+07
1.73966e+07
1.6001e+07
1.53438e+07
1.50258e+07
1.50211e+07
1.49087e+07
1.46727e+07
1.50405e+07
1.56287e+07
1.55526e+07
1.59119e+07
1.66011e+07
1.64918e+07
1.66822e+07
1.70701e+07
1.67062e+07
1.646e+07
1.63151e+07
1.56588e+07
1.4812e+07
1.40867e+07
1.28579e+07
1.16029e+07
1.1423e+07
1.06721e+07
9.89749e+06
1.12537e+07
1.27136e+07
1.39108e+07
1.59528e+07
1.84237e+07
2.04602e+07
2.12956e+07
2.21176e+07
2.31226e+07
2.27215e+07
2.24505e+07
2.23658e+07
2.12063e+07
1.92681e+07
1.73386e+07
1.54121e+07
1.32675e+07
1.08558e+07
8.49744e+06
6.91941e+06
6.61977e+06
5.94921e+06
5.27434e+06
5.97462e+06
6.74152e+06
7.29241e+06
8.02251e+06
9.00519e+06
9.75055e+06
9.67339e+06
8.56648e+06
7.54077e+06
6.64731e+06
4.84381e+06
2.73056e+06
1.00747e+06
8.10214e+06
7.81784e+06
7.48098e+06
7.17567e+06
6.86391e+06
6.44263e+06
6.17595e+06
5.97256e+06
5.73266e+06
5.48918e+06
5.31981e+06
5.20687e+06
5.08372e+06
4.97991e+06
4.90196e+06
4.80941e+06
4.72235e+06
4.65767e+06
4.67181e+06
4.72664e+06
4.69544e+06
4.5891e+06
4.55058e+06
4.57671e+06
4.49613e+06
4.30522e+06
4.18097e+06
4.21011e+06
4.3222e+06
4.29872e+06
4.16697e+06
4.1792e+06
4.33556e+06
4.33067e+06
4.17891e+06
4.15701e+06
4.24988e+06
4.46476e+06
4.52966e+06
4.43646e+06
4.49638e+06
4.67103e+06
4.96039e+06
5.24643e+06
5.54943e+06
6.02136e+06
6.38475e+06
6.71975e+06
7.05957e+06
7.43692e+06
7.82915e+06
8.25784e+06
8.72232e+06
9.1302e+06
9.54276e+06
9.8353e+06
1.003e+07
1.03331e+07
1.07713e+07
1.12243e+07
1.1769e+07
1.24242e+07
1.29477e+07
1.3572e+07
1.4253e+07
1.50673e+07
1.56468e+07
1.61149e+07
1.69104e+07
1.80541e+07
1.85832e+07
1.87362e+07
1.95208e+07
1.94272e+07
1.85356e+07
1.83569e+07
1.73966e+07
1.6001e+07
1.53437e+07
1.50258e+07
1.50211e+07
1.49085e+07
1.46725e+07
1.50405e+07
1.56287e+07
1.55522e+07
1.59113e+07
1.66012e+07
1.64918e+07
1.66819e+07
1.70703e+07
1.67064e+07
1.64601e+07
1.63154e+07
1.56594e+07
1.48127e+07
1.40876e+07
1.28589e+07
1.16035e+07
1.14236e+07
1.06728e+07
9.89717e+06
1.12538e+07
1.27121e+07
1.39083e+07
1.59504e+07
1.84227e+07
2.04602e+07
2.12951e+07
2.21177e+07
2.31234e+07
2.27217e+07
2.24504e+07
2.23664e+07
2.12079e+07
1.92683e+07
1.73393e+07
1.54138e+07
1.32693e+07
1.08582e+07
8.49956e+06
6.92032e+06
6.62064e+06
5.9492e+06
5.27376e+06
5.97379e+06
6.74105e+06
7.2911e+06
8.02125e+06
9.00528e+06
9.75101e+06
9.67414e+06
8.56763e+06
7.54087e+06
6.6491e+06
4.84536e+06
2.73116e+06
1.00834e+06
8.10299e+06
7.81889e+06
7.48315e+06
7.17732e+06
6.86463e+06
6.4445e+06
6.17737e+06
5.97307e+06
5.73296e+06
5.48958e+06
5.31978e+06
5.20665e+06
5.08356e+06
4.97959e+06
4.90169e+06
4.80911e+06
4.722e+06
4.65755e+06
4.67166e+06
4.72659e+06
4.69532e+06
4.58883e+06
4.55021e+06
4.57652e+06
4.49595e+06
4.30506e+06
4.18148e+06
4.20999e+06
4.32199e+06
4.29848e+06
4.16659e+06
4.17866e+06
4.33517e+06
4.33038e+06
4.17861e+06
4.15663e+06
4.24934e+06
4.46448e+06
4.52941e+06
4.4362e+06
4.49597e+06
4.67049e+06
4.95987e+06
5.2459e+06
5.54846e+06
6.01941e+06
6.38278e+06
6.71775e+06
7.05762e+06
7.43495e+06
7.82721e+06
8.25596e+06
8.71993e+06
9.12785e+06
9.54044e+06
9.83332e+06
1.0029e+07
1.03322e+07
1.07702e+07
1.12232e+07
1.17678e+07
1.2423e+07
1.29465e+07
1.35706e+07
1.42516e+07
1.50664e+07
1.5646e+07
1.6114e+07
1.69094e+07
1.80532e+07
1.85826e+07
1.87355e+07
1.95204e+07
1.94271e+07
1.85355e+07
1.8357e+07
1.73967e+07
1.60011e+07
1.53437e+07
1.5026e+07
1.50213e+07
1.49085e+07
1.46724e+07
1.50407e+07
1.56289e+07
1.5552e+07
1.59109e+07
1.66015e+07
1.64918e+07
1.66818e+07
1.70707e+07
1.67067e+07
1.64603e+07
1.63159e+07
1.56601e+07
1.48135e+07
1.40886e+07
1.28601e+07
1.16042e+07
1.14244e+07
1.06736e+07
9.8969e+06
1.12541e+07
1.27106e+07
1.39058e+07
1.59481e+07
1.84217e+07
2.04603e+07
2.12948e+07
2.21179e+07
2.31243e+07
2.27221e+07
2.24504e+07
2.23671e+07
2.12096e+07
1.92686e+07
1.73402e+07
1.54157e+07
1.32713e+07
1.08608e+07
8.50184e+06
6.92133e+06
6.62166e+06
5.94927e+06
5.27325e+06
5.97308e+06
6.74051e+06
7.28989e+06
8.02012e+06
9.00556e+06
9.75168e+06
9.67509e+06
8.56894e+06
7.5412e+06
6.65104e+06
4.84717e+06
2.73209e+06
1.00936e+06
8.10389e+06
7.82e+06
7.48542e+06
7.17907e+06
6.86541e+06
6.44647e+06
6.17885e+06
5.97363e+06
5.73328e+06
5.49e+06
5.31979e+06
5.20641e+06
5.08342e+06
4.97926e+06
4.90141e+06
4.80878e+06
4.72161e+06
4.65722e+06
4.67147e+06
4.72649e+06
4.69518e+06
4.58852e+06
4.54981e+06
4.57629e+06
4.49572e+06
4.30488e+06
4.18197e+06
4.20984e+06
4.32167e+06
4.29818e+06
4.16615e+06
4.17804e+06
4.3347e+06
4.32998e+06
4.17822e+06
4.15618e+06
4.24872e+06
4.46408e+06
4.52905e+06
4.43582e+06
4.49547e+06
4.66984e+06
4.95925e+06
5.24528e+06
5.54737e+06
6.01725e+06
6.38068e+06
6.71561e+06
7.05551e+06
7.43284e+06
7.82513e+06
8.25397e+06
8.7174e+06
9.12537e+06
9.53796e+06
9.83123e+06
1.00279e+07
1.03312e+07
1.07691e+07
1.1222e+07
1.17665e+07
1.24216e+07
1.29451e+07
1.3569e+07
1.42499e+07
1.50654e+07
1.56451e+07
1.6113e+07
1.69082e+07
1.80522e+07
1.85817e+07
1.87347e+07
1.952e+07
1.94268e+07
1.85353e+07
1.8357e+07
1.73966e+07
1.6001e+07
1.53436e+07
1.50261e+07
1.50214e+07
1.49084e+07
1.46721e+07
1.50408e+07
1.56291e+07
1.55516e+07
1.59104e+07
1.66017e+07
1.64919e+07
1.66818e+07
1.70711e+07
1.6707e+07
1.64605e+07
1.63163e+07
1.56609e+07
1.48143e+07
1.40896e+07
1.28613e+07
1.16049e+07
1.14251e+07
1.06742e+07
9.89651e+06
1.12542e+07
1.27088e+07