/*--------------------------------*- C++ -*----------------------------------*\
| =========                 |                                                 |
| \\      /  F ield         | OpenFOAM: The Open Source CFD Toolbox           |
|  \\    /   O peration     | Version:  v2012                                 |
|   \\  /    A nd           | Website:  www.openfoam.com                      |
|    \\/     M anipulation  |                                                 |
\*---------------------------------------------------------------------------*/
FoamFile
{
    version     2.0;
    format      ascii;
    class       volVectorField;
    location    "1e-06";
    object      U;
}
// * * * * * * * * * * * * * * * * * * * * * * * * * * * * * * * * * * * * * //

dimensions      [0 1 -1 0 0 0 0];


internalField   nonuniform List<vector> 
10178
(
(-0.273885 0.0544276 2.57654e-31)
(-0.277128 0.0552065 6.82565e-31)
(-0.296948 0.053298 0)
(-0.302291 0.049103 0)
(-0.349669 0.0544748 -2.87891e-26)
(-0.363722 0.0542138 3.79685e-31)
(-0.396543 0.0591082 0)
(-0.449226 0.0668056 -6.66907e-31)
(-0.482147 0.0716008 -9.56499e-29)
(-0.509066 0.0754516 -8.59291e-28)
(-0.525906 0.0780951 7.72936e-31)
(-0.572584 0.0850317 -5.33027e-29)
(-0.607621 0.0901534 -3.68022e-29)
(-0.622917 0.0922639 4.82914e-29)
(-0.615901 0.0911684 0)
(-0.617162 0.0914344 0)
(-0.628975 0.0931644 -1.05481e-28)
(-0.629645 0.0931547 1.17344e-30)
(-0.608363 0.089912 1.75427e-30)
(-0.566837 0.0837501 -4.15759e-29)
(-0.549865 0.0812755 2.35987e-28)
(-0.524912 0.0775631 -2.29352e-28)
(-0.497366 0.0734145 2.63931e-30)
(-0.445151 0.0656407 3.26214e-35)
(-0.409895 0.0604608 1.88368e-28)
(-0.371658 0.0548487 2.47495e-30)
(-0.341758 0.0501223 3.10091e-30)
(-0.312393 0.0460169 0)
(-0.253752 0.0372767 1.64533e-28)
(-0.217391 0.0319151 0)
(-0.169074 0.0247792 0)
(-0.133256 0.0194377 2.2041e-28)
(-0.0697111 0.00999309 0)
(-0.0239458 0.00326323 0)
(0.0382832 -0.00596851 -3.16992e-28)
(0.0795111 -0.0120814 -5.93111e-30)
(0.123522 -0.0185741 1.73898e-28)
(0.175607 -0.0263005 1.68839e-29)
(0.215859 -0.0322901 -6.43794e-35)
(0.274628 -0.0409467 5.69058e-29)
(0.301986 -0.0449822 4.36517e-28)
(0.317933 -0.0472712 2.15849e-28)
(0.327325 -0.0486683 -2.99664e-29)
(0.338712 -0.0503869 -6.17065e-35)
(0.357428 -0.0511368 5.25511e-30)
(0.361171 -0.0446357 8.6695e-30)
(0.375482 -0.0461821 3.84e-26)
(0.367224 -0.0450895 7.43608e-26)
(0.365609 -0.0449183 0)
(0.371058 -0.04564 3.7624e-26)
(0.363429 -0.0447124 3.74568e-26)
(0.348955 -0.0429068 3.61138e-26)
(0.320766 -0.035548 -2.33377e-34)
(0.314029 -0.03434 -5.03743e-26)
(0.312599 -0.0341651 5.03969e-26)
(0.306408 -0.0328926 1.0887e-30)
(0.287327 -0.0294936 1.70993e-26)
(0.273278 -0.0279126 5.70014e-31)
(0.264252 -0.0270509 1.51531e-30)
(0.244632 -0.0251133 1.48215e-26)
(0.255534 -0.0262525 0)
(0.24391 -0.0250937 1.54041e-26)
(0.250526 -0.0257968 9.9072e-30)
(0.283063 -0.0291796 -3.42188e-26)
(0.28413 -0.0292568 -1.55911e-26)
(0.34429 -0.0344739 3.62292e-27)
(0.384902 -0.0383137 -1.48581e-27)
(0.463893 -0.0459208 -5.79142e-28)
(0.515495 -0.0510166 -3.52908e-30)
(0.632296 -0.0626372 4.85816e-28)
(0.736022 -0.072891 5.91909e-28)
(0.867971 -0.0857862 -9.25006e-28)
(1.00045 -0.09889 0)
(1.12457 -0.111131 -5.53083e-28)
(1.28815 -0.127081 -6.84268e-30)
(1.40384 -0.138447 0)
(1.48572 -0.146482 -5.56524e-29)
(1.57977 -0.155374 -2.34299e-30)
(1.50644 -0.147847 -2.86944e-31)
(1.37834 -0.135288 2.34397e-28)
(1.38713 -0.136221 6.8384e-28)
(1.28318 -0.125643 1.83848e-30)
(1.08804 -0.106487 0)
(1.02823 -0.100805 0)
(0.961914 -0.0943716 -1.04744e-30)
(0.878875 -0.086149 8.2107e-29)
(0.836413 -0.0820947 0)
(0.82549 -0.0811223 -4.797e-31)
(0.769761 -0.0754967 -1.57675e-28)
(0.746245 -0.0732647 0)
(0.729613 -0.07169 2.64432e-28)
(0.690402 -0.0677726 0)
(0.685968 -0.0673757 -2.0787e-31)
(0.662576 -0.0651357 -3.53517e-28)
(0.662913 -0.0652204 0)
(0.681949 -0.0670918 -3.46405e-32)
(0.709541 -0.0699519 -2.58443e-31)
(0.746438 -0.0735744 -3.01135e-30)
(0.78577 -0.0776656 4.5593e-36)
(1.00155 -0.0992399 -1.25361e-30)
(1.08674 -0.107597 1.8494e-28)
(1.30231 -0.128426 -4.13182e-31)
(1.30121 -0.128178 0)
(1.34243 -0.132298 0)
(1.37489 -0.134718 -5.76806e-29)
(1.09468 -0.107099 -4.55029e-28)
(1.08913 -0.106743 1.80474e-35)
(0.943866 -0.0924017 2.90349e-35)
(0.860255 -0.0843217 -4.63922e-35)
(0.837661 -0.0822715 5.70942e-28)
(0.878834 -0.0865432 -2.06147e-28)
(0.864282 -0.0847717 0)
(0.819006 -0.0803955 5.46163e-31)
(0.829039 -0.0815749 3.50865e-31)
(0.837834 -0.0822844 -4.40307e-28)
(0.79288 -0.0778418 -9.36541e-31)
(0.792818 -0.0778678 0)
(0.748994 -0.0736254 0)
(0.778853 -0.0767147 -2.32336e-28)
(0.800724 -0.0789038 5.21347e-31)
(0.845639 -0.0834931 -6.40398e-31)
(0.929672 -0.0917683 2.27414e-31)
(1.03746 -0.102567 2.69528e-31)
(1.13979 -0.112632 -9.19182e-31)
(1.23784 -0.121736 0)
(1.16394 -0.114439 2.75098e-30)
(1.18053 -0.116211 0)
(1.19845 -0.117554 -3.36228e-30)
(1.03394 -0.101197 -4.06385e-31)
(0.980221 -0.0962018 1.03136e-30)
(0.962859 -0.0946769 -3.62193e-32)
(1.00403 -0.0987146 -1.38849e-28)
(0.962244 -0.0944123 -5.68726e-30)
(0.940506 -0.0923617 -1.51141e-28)
(0.937106 -0.0921132 1.31286e-32)
(0.906906 -0.0890609 7.54795e-28)
(0.886536 -0.0870867 2.08974e-28)
(0.895252 -0.0881238 0)
(-0.342342 0.0680769 -5.36279e-29)
(-0.35197 0.0701989 1.02721e-27)
(-0.360069 0.0621383 -4.52035e-27)
(-0.379508 0.0530455 -1.86752e-31)
(-0.351234 0.0502087 -3.28587e-27)
(-0.448057 0.0657975 7.2438e-27)
(-0.47285 0.0702788 0)
(-0.513006 0.0764155 1.24671e-29)
(-0.545482 0.0811341 0)
(-0.589831 0.0875906 -9.36797e-28)
(-0.616809 0.0917361 7.71845e-31)
(-0.648686 0.0964399 2.35664e-29)
(-0.665596 0.0988606 0)
(-0.693094 0.102725 -4.58138e-29)
(-0.699274 0.1035 0)
(-0.697914 0.103403 0)
(-0.692093 0.10254 -2.88787e-28)
(-0.682111 0.100939 0)
(-0.670776 0.0990728 0)
(-0.636682 0.0939106 1.82793e-30)
(-0.608234 0.0897777 4.90374e-28)
(-0.566243 0.0836379 0)
(-0.53811 0.0793551 0)
(-0.490074 0.0720805 -3.97174e-28)
(-0.457998 0.0673841 6.00802e-28)
(-0.405569 0.05982 -4.50828e-28)
(-0.368274 0.0544103 0)
(-0.335946 0.0494444 5.91244e-28)
(-0.275575 0.0402809 0)
(-0.238011 0.034797 3.40599e-30)
(-0.179372 0.0262589 3.91717e-30)
(-0.137005 0.019913 5.67606e-28)
(-0.0675543 0.0094541 -7.9319e-28)
(-0.0227886 0.00288434 4.71804e-30)
(0.047854 -0.00752311 0)
(0.0934914 -0.0142351 0)
(0.147262 -0.0222175 5.15494e-28)
(0.211847 -0.0319067 2.71669e-28)
(0.251815 -0.037866 0)
(0.311369 -0.046482 -4.85807e-28)
(0.337656 -0.0502845 5.04524e-28)
(0.36753 -0.0546167 3.45595e-28)
(0.389407 -0.0578937 3.08405e-29)
(0.393345 -0.0584892 2.47175e-28)
(0.40483 -0.0567012 -5.24762e-30)
(0.406791 -0.0450088 -6.2024e-27)
(0.429703 -0.0475894 0)
(0.426924 -0.047307 -2.56763e-26)
(0.426004 -0.0472479 3.99077e-30)
(0.422665 -0.0467706 -1.28274e-26)
(0.403126 -0.0444119 -3.2933e-30)
(0.390613 -0.0429358 -1.27399e-26)
(0.366527 -0.033747 1.69627e-26)
(0.365087 -0.0330096 0)
(0.353722 -0.0320102 -1.72548e-26)
(0.334428 -0.0306646 1.4181e-26)
(0.317331 -0.0299662 -6.61208e-27)
(0.311383 -0.0296293 -3.68915e-35)
(0.300707 -0.0285848 1.50015e-30)
(0.270336 -0.0256669 -1.19172e-26)
(0.283341 -0.0269103 6.51975e-27)
(0.274947 -0.0261939 -5.82771e-27)
(0.281127 -0.0268309 1.0486e-26)
(0.311929 -0.0297493 5.09438e-27)
(0.313025 -0.0298885 -1.03334e-29)
(0.386496 -0.0381292 -1.61566e-27)
(0.42202 -0.0417611 -2.83025e-27)
(0.498712 -0.0493642 0)
(0.564849 -0.0559535 1.67273e-27)
(0.70782 -0.0703946 -3.26089e-30)
(0.79271 -0.0786948 -1.67084e-27)
(0.928178 -0.0918091 2.03121e-27)
(1.10005 -0.109099 6.78548e-31)
(1.22152 -0.121069 -1.58195e-27)
(1.37888 -0.136106 7.13538e-30)
(1.54054 -0.152281 0)
(1.64219 -0.1622 1.03458e-27)
(1.71633 -0.168572 0)
(1.65781 -0.162372 0)
(1.57163 -0.154095 0)
(1.54341 -0.151499 7.55356e-28)
(1.42678 -0.139364 3.67243e-30)
(1.26162 -0.123009 1.1194e-30)
(1.17844 -0.115386 0)
(1.09095 -0.107055 -8.25479e-28)
(1.04287 -0.10196 0)
(0.978755 -0.0959155 -1.54583e-30)
(0.945397 -0.0930811 6.65712e-28)
(0.919347 -0.0899905 -1.08519e-28)
(0.87288 -0.0855786 -1.17063e-30)
(0.831022 -0.0818284 3.68315e-31)
(0.811553 -0.0795595 -1.96359e-30)
(0.78154 -0.0766777 4.15881e-31)
(0.739967 -0.0728636 -2.0235e-31)
(0.758401 -0.0746738 0)
(0.751287 -0.0739355 3.01525e-29)
(0.781635 -0.0772753 1.29015e-31)
(0.835781 -0.0825594 4.99963e-35)
(0.863892 -0.0855502 -1.06344e-27)
(1.12293 -0.11184 -6.26324e-31)
(1.20904 -0.120174 0)
(1.41208 -0.139052 1.46968e-27)
(1.47644 -0.145564 -1.3873e-30)
(1.50529 -0.148433 1.21762e-30)
(1.51562 -0.147826 -4.36029e-28)
(1.27337 -0.124079 4.93186e-31)
(1.24258 -0.121634 0)
(1.07445 -0.1051 0)
(1.01551 -0.0993665 0)
(0.979761 -0.0962196 9.54024e-28)
(0.989493 -0.0979044 -8.86023e-31)
(1.00341 -0.0983218 -1.79044e-30)
(0.970973 -0.0951826 5.46567e-31)
(0.93732 -0.0925195 7.04033e-31)
(0.935155 -0.0919713 -4.19482e-35)
(0.899277 -0.0881875 9.17683e-29)
(0.879315 -0.0862639 0)
(0.809144 -0.0795675 0)
(0.861408 -0.0849888 -5.3273e-28)
(0.885367 -0.0873637 -3.30908e-28)
(0.922176 -0.0911372 0)
(1.03798 -0.102546 2.27248e-31)
(1.1964 -0.11877 9.3796e-36)
(1.26092 -0.124857 3.0373e-35)
(1.35706 -0.133109 -2.46493e-31)
(1.32134 -0.129865 -2.87365e-30)
(1.33381 -0.131362 0)
(1.31659 -0.128797 3.42515e-28)
(1.17193 -0.114333 -4.47488e-28)
(1.14928 -0.112754 -1.80965e-27)
(1.08906 -0.107295 -3.62138e-32)
(1.12039 -0.110473 -6.34434e-28)
(1.1036 -0.108169 5.07923e-30)
(1.07486 -0.105444 2.0988e-28)
(1.03085 -0.101551 1.34785e-27)
(1.01544 -0.0997202 1.12337e-27)
(1.01031 -0.0991286 -4.83726e-28)
(0.984564 -0.0969687 0)
(-0.417072 0.0831711 -2.97102e-31)
(-0.427103 0.0853735 1.51245e-27)
(-0.43977 0.0786202 4.33942e-27)
(-0.456928 0.0688237 7.33266e-27)
(-0.415946 0.0636236 -1.23396e-30)
(-0.533426 0.0800042 3.29653e-27)
(-0.559857 0.0841454 4.34856e-31)
(-0.604374 0.0904429 0)
(-0.638329 0.0954156 -3.98121e-29)
(-0.682615 0.101919 1.26133e-29)
(-0.708572 0.105755 -1.86541e-29)
(-0.742483 0.110615 -7.47603e-36)
(-0.760427 0.113182 1.08766e-30)
(-0.784277 0.116434 -1.32462e-28)
(-0.786032 0.116332 8.9001e-29)
(-0.784309 0.11612 -8.08958e-31)
(-0.776327 0.114825 -4.26663e-28)
(-0.761084 0.112405 -1.16101e-30)
(-0.743572 0.109521 -5.82704e-28)
(-0.702415 0.103152 -3.43805e-28)
(-0.674291 0.0990244 -1.21146e-30)
(-0.627815 0.0922624 -1.50176e-30)
(-0.592545 0.0868982 -6.82433e-28)
(-0.537301 0.0784691 -4.90101e-28)
(-0.503856 0.0735524 2.00849e-30)
(-0.446504 0.0653139 -3.73543e-28)
(-0.402378 0.0585718 0)
(-0.363299 0.0529142 7.06153e-28)
(-0.295491 0.0425118 -4.27893e-30)
(-0.257056 0.0369178 0)
(-0.191658 0.027408 -7.7944e-28)
(-0.140721 0.01974 -5.5319e-30)
(-0.062684 0.00793192 -9.93873e-28)
(-0.0161793 0.00114417 0)
(0.0629782 -0.0105055 0)
(0.117796 -0.0185505 0)
(0.18115 -0.027948 5.33901e-28)
(0.253478 -0.0387667 0)
(0.294906 -0.0449222 7.66364e-28)
(0.363322 -0.0546793 5.27711e-30)
(0.395853 -0.0593434 0)
(0.431488 -0.0644527 0)
(0.455432 -0.067921 -3.21976e-29)
(0.460657 -0.0686658 1.48791e-28)
(0.475954 -0.067559 -2.55735e-27)
(0.477033 -0.057087 -5.17702e-30)
(0.499401 -0.0593508 0)
(0.494081 -0.058511 -1.94904e-29)
(0.492744 -0.0583638 -3.98899e-30)
(0.488565 -0.0578614 0)
(0.466262 -0.0551747 -1.28231e-26)
(0.450616 -0.0532391 -6.55736e-30)
(0.421645 -0.0438516 1.54765e-26)
(0.419063 -0.0428706 0)
(0.4053 -0.0414519 0)
(0.335805 -0.0340344 4.38475e-26)
(0.359864 -0.0358951 0)
(0.353269 -0.0351622 -5.55517e-31)
(0.342574 -0.0340887 -2.99276e-30)
(0.310024 -0.0309356 -6.75604e-27)
(0.323971 -0.0324027 -6.22013e-30)
(0.314281 -0.0315747 8.61356e-30)
(0.320616 -0.0323502 1.4199e-26)
(0.354311 -0.0358467 -5.37086e-30)
(0.357083 -0.0362062 -4.9955e-27)
(0.435742 -0.0437064 1.62647e-29)
(0.47171 -0.0473616 3.89693e-29)
(0.555832 -0.0556468 5.96063e-30)
(0.632957 -0.0634975 1.61499e-27)
(0.785347 -0.0790688 0)
(0.873158 -0.0876246 -1.81051e-27)
(1.02373 -0.102278 1.81371e-27)
(1.2187 -0.122067 -6.78021e-31)
(1.34419 -0.134369 -1.87258e-27)
(1.53234 -0.152258 -3.21751e-27)
(1.72307 -0.171373 -2.19437e-35)
(1.82738 -0.181325 1.32896e-27)
(1.92728 -0.189396 -1.31968e-27)
(1.88217 -0.18407 2.86514e-31)
(1.79796 -0.17583 -1.91595e-31)
(1.77366 -0.173529 -3.36591e-31)
(1.65432 -0.160674 -1.83628e-30)
(1.47846 -0.143225 0)
(1.39592 -0.135915 4.92483e-28)
(1.30073 -0.127255 -9.55108e-28)
(1.24334 -0.121077 0)
(1.17983 -0.115133 -5.57471e-28)
(1.13805 -0.111901 1.70544e-27)
(1.09608 -0.10687 -2.16848e-29)
(1.0492 -0.102378 0)
(0.988431 -0.0970886 3.67921e-31)
(0.946974 -0.0924658 1.96284e-30)
(0.915782 -0.0894211 3.79963e-29)
(0.854416 -0.0839939 -5.41043e-28)
(0.86068 -0.0846998 0)
(0.853481 -0.0839194 1.88692e-29)
(0.884368 -0.0878463 -8.03434e-36)
(0.94111 -0.0933919 3.00805e-30)
(0.992021 -0.0991963 -1.41286e-27)
(1.28596 -0.129691 0)
(1.37563 -0.138128 0)
(1.61159 -0.15966 1.74814e-30)
(1.69534 -0.167812 1.38684e-30)
(1.72707 -0.170702 5.69234e-28)
(1.7477 -0.169702 0)
(1.49897 -0.145122 0)
(1.47 -0.143009 0)
(1.28586 -0.125 0)
(1.21485 -0.118376 0)
(1.17892 -0.115332 1.65849e-27)
(1.18507 -0.117383 5.91204e-28)
(1.18997 -0.116312 0)
(1.15457 -0.112721 4.39179e-28)
(1.10743 -0.109015 1.21347e-27)
(1.07685 -0.105541 -4.22873e-35)
(1.01683 -0.0992946 -2.12152e-28)
(0.994594 -0.097095 0)
(0.90924 -0.0892884 9.40984e-28)
(0.964727 -0.0955332 -5.45734e-28)
(0.990975 -0.0981344 -4.33479e-28)
(1.04974 -0.10455 -6.38746e-31)
(1.19123 -0.118792 -7.90153e-28)
(1.36872 -0.137009 -9.08073e-36)
(1.43965 -0.143427 -9.18317e-31)
(1.5539 -0.152641 0)
(1.52204 -0.149717 3.98485e-28)
(1.53558 -0.151273 -3.67755e-31)
(1.52332 -0.14844 0)
(1.37367 -0.133361 0)
(1.34782 -0.131772 -9.15644e-28)
(1.28242 -0.126024 0)
(1.30856 -0.128987 2.71885e-31)
(1.28331 -0.125414 2.92687e-28)
(1.25404 -0.122511 1.76214e-31)
(1.20226 -0.118135 2.22315e-27)
(1.16545 -0.114279 -1.63514e-31)
(1.1588 -0.113398 -5.72068e-28)
(1.13374 -0.111638 0)
(-0.418709 0.0835924 -5.91611e-30)
(-0.429131 0.0858817 1.71187e-27)
(-0.442226 0.0771228 0)
(-0.480901 0.0712211 -2.50045e-31)
(-0.501389 0.075113 5.41058e-27)
(-0.535263 0.080397 0)
(-0.561583 0.0844195 -4.34621e-31)
(-0.606375 0.0909127 -3.89697e-28)
(-0.640783 0.0959859 2.67532e-28)
(-0.68458 0.102384 -6.73389e-31)
(-0.710452 0.106196 -2.58042e-28)
(-0.7445 0.111016 -7.41729e-31)
(-0.765382 0.114047 -5.41208e-31)
(-0.786362 0.116839 -1.35373e-28)
(-0.787987 0.116608 -2.19083e-30)
(-0.786227 0.116391 1.25381e-28)
(-0.778324 0.115088 -2.84193e-28)
(-0.763978 0.112814 0)
(-0.745305 0.109707 -1.33948e-28)
(-0.704018 0.103234 3.44593e-28)
(-0.675864 0.0990976 1.21539e-30)
(-0.629626 0.0924265 1.50627e-30)
(-0.593955 0.0869884 -1.42597e-28)
(-0.538483 0.0784671 0)
(-0.504983 0.0735407 2.56356e-28)
(-0.447475 0.0653693 -2.46338e-30)
(-0.408364 0.0600688 0)
(-0.363835 0.0528971 0)
(-0.29596 0.0423929 0)
(-0.257455 0.0368228 3.41029e-30)
(-0.19188 0.027341 -5.69057e-29)
(-0.140759 0.0196085 0)
(-0.0625607 0.0077201 2.83804e-28)
(-0.0160223 0.000953436 -4.71971e-30)
(0.0633415 -0.0107073 -5.13668e-30)
(0.118795 -0.0188353 5.90685e-30)
(0.181888 -0.0282074 -3.40684e-28)
(0.254308 -0.0390628 5.26399e-28)
(0.295787 -0.0452217 -3.0304e-29)
(0.3644 -0.0549025 1.05802e-29)
(0.398838 -0.0598354 1.18342e-29)
(0.432713 -0.0646519 0)
(0.456661 -0.0680986 7.39584e-28)
(0.461941 -0.0688345 0)
(0.477604 -0.067288 2.07061e-27)
(0.479189 -0.0550971 0)
(0.500976 -0.0574251 1.73166e-26)
(0.495599 -0.056642 -1.62506e-26)
(0.49423 -0.0565077 0)
(0.490083 -0.0558572 0)
(0.468272 -0.0530965 -1.08441e-29)
(0.452209 -0.0511185 -1.75317e-26)
(0.423081 -0.0411679 -4.95558e-30)
(0.420443 -0.0402143 -2.16819e-26)
(0.40667 -0.0386356 -6.40277e-30)
(0.383648 -0.0369026 -2.81514e-26)
(0.360994 -0.034938 0)
(0.354356 -0.0343111 0)
(0.343674 -0.0331966 0)
(0.311132 -0.0301112 5.14573e-30)
(0.325124 -0.0316299 1.10276e-26)
(0.315365 -0.030827 -1.30614e-29)
(0.321693 -0.0315919 -6.32648e-27)
(0.355556 -0.034979 5.3742e-30)
(0.358348 -0.03549 5.0948e-30)
(0.471883 -0.0476993 -1.15323e-29)
(0.472986 -0.0474585 6.84289e-28)
(0.55765 -0.0558947 0)
(0.63462 -0.0637966 1.26827e-28)
(0.787171 -0.0795198 3.25134e-30)
(0.875087 -0.0880261 0)
(1.02632 -0.102733 -2.38678e-30)
(1.22122 -0.122714 -3.15163e-35)
(1.34674 -0.134977 1.72959e-27)
(1.53646 -0.152885 -7.33388e-35)
(1.72601 -0.172106 -8.92337e-31)
(1.83033 -0.181912 -8.4663e-28)
(1.93058 -0.189619 9.28225e-28)
(1.88537 -0.184069 0)
(1.80097 -0.175959 8.76984e-28)
(1.7767 -0.173677 0)
(1.65721 -0.160526 1.63406e-27)
(1.48092 -0.142934 2.06891e-27)
(1.39832 -0.135908 -2.32315e-27)
(1.30304 -0.127451 2.76051e-28)
(1.24533 -0.120973 1.51698e-27)
(1.18182 -0.115088 -1.77484e-27)
(1.14002 -0.112148 0)
(1.09777 -0.106831 1.34018e-27)
(1.05088 -0.102323 0)
(0.990011 -0.0972485 0)
(0.948385 -0.0924673 0)
(0.917159 -0.0893933 9.20539e-31)
(0.855671 -0.0841241 0)
(0.861866 -0.0848594 3.17072e-28)
(0.854603 -0.0840329 -4.38775e-28)
(0.88543 -0.0881993 0)
(0.942156 -0.093728 -6.03948e-28)
(0.993336 -0.0997082 5.5026e-31)
(1.28751 -0.130628 0)
(1.37725 -0.138857 0)
(1.62143 -0.160699 1.56664e-27)
(1.69795 -0.168319 -2.82561e-27)
(1.72987 -0.171074 -7.93561e-28)
(1.75105 -0.169248 1.98687e-27)
(1.50198 -0.144852 0)
(1.47281 -0.142992 0)
(1.28809 -0.124998 0)
(1.21675 -0.118355 0)
(1.18069 -0.115441 4.45265e-30)
(1.19148 -0.118502 3.73005e-28)
(1.19148 -0.116361 1.13661e-27)
(1.15602 -0.112645 1.81783e-27)
(1.10873 -0.109211 -1.51292e-27)
(1.07797 -0.1056 0)
(1.01796 -0.0992526 -3.38988e-27)
(0.995657 -0.0970183 1.12982e-31)
(0.910344 -0.0893814 1.45589e-27)
(0.965439 -0.0957836 0)
(0.991675 -0.0983728 1.03525e-30)
(1.05078 -0.104934 -1.92728e-27)
(1.19251 -0.119251 3.39428e-27)
(1.37015 -0.137744 -2.15782e-27)
(1.44122 -0.143883 1.52099e-27)
(1.55607 -0.152645 -2.45348e-31)
(1.52413 -0.149925 8.72492e-28)
(1.53773 -0.151523 3.67546e-31)
(1.52631 -0.148292 -2.18044e-27)
(1.37578 -0.133176 0)
(1.34975 -0.131887 -3.01619e-28)
(1.2841 -0.126241 -1.49858e-27)
(1.31016 -0.129469 0)
(1.28473 -0.125434 -3.33136e-31)
(1.25536 -0.122446 1.17174e-31)
(1.20829 -0.118777 -6.56478e-33)
(1.1665 -0.114338 -3.53344e-27)
(1.1598 -0.113359 1.20963e-28)
(1.13479 -0.111768 0)
(-0.458371 0.0916899 1.1919e-28)
(-0.469366 0.0940785 1.98911e-27)
(-0.485719 0.086225 -4.28627e-31)
(-0.521294 0.0766949 -1.06441e-26)
(-0.548942 0.0824579 -3.62708e-31)
(-0.584112 0.087686 -2.76861e-31)
(-0.610899 0.0922965 -4.33254e-31)
(-0.658018 0.0990404 -5.3935e-28)
(-0.693363 0.104252 -1.01919e-29)
(-0.737468 0.110669 0)
(-0.7629 0.114364 0)
(-0.797676 0.119184 -5.04494e-29)
(-0.817535 0.12202 0)
(-0.837273 0.124505 0)
(-0.836113 0.123703 -4.1025e-29)
(-0.834027 0.123412 3.72868e-28)
(-0.824218 0.121725 1.93815e-30)
(-0.806057 0.118808 -5.51968e-29)
(-0.784002 0.115095 0)
(-0.738737 0.107903 -6.75144e-28)
(-0.710458 0.103734 1.20802e-30)
(-0.661043 0.0966238 1.49912e-30)
(-0.621294 0.0905377 0)
(-0.56183 0.0813481 0)
(-0.527559 0.0763036 1.01721e-27)
(-0.466919 0.0677572 4.81281e-28)
(-0.421874 0.059331 0)
(-0.375005 0.0539993 -7.69954e-30)
(-0.302759 0.0427325 -9.43146e-28)
(-0.263574 0.037094 0)
(-0.193753 0.0270179 0)
(-0.13758 0.0184786 6.63075e-28)
(-0.0543911 0.00577559 1.29452e-27)
(-0.00678198 -0.00112018 -9.39926e-30)
(0.0776389 -0.0135014 -1.02345e-29)
(0.138342 -0.0223876 -4.61649e-28)
(0.207159 -0.0325981 1.30028e-29)
(0.284277 -0.0441447 -2.96578e-28)
(0.326699 -0.0504304 -3.08837e-28)
(0.400368 -0.0606934 4.18912e-28)
(0.438023 -0.0660255 0)
(0.475996 -0.0713465 0)
(0.501512 -0.074941 1.15237e-29)
(0.507486 -0.0757305 -9.7088e-28)
(0.525225 -0.074219 -2.09645e-29)
(0.526421 -0.0617904 -6.10791e-27)
(0.548073 -0.0639455 -1.48749e-26)
(0.541336 -0.062833 0)
(0.539721 -0.0626562 1.17139e-26)
(0.534786 -0.0619472 -1.41043e-26)
(0.510944 -0.0589186 1.52707e-26)
(0.493108 -0.0566271 0)
(0.461152 -0.0461853 -1.98585e-26)
(0.457884 -0.0450918 1.94966e-26)
(0.442423 -0.043391 0)
(0.416865 -0.040588 -1.15636e-26)
(0.391348 -0.0382219 -8.30545e-27)
(0.384334 -0.0375544 -7.51145e-27)
(0.373605 -0.0363719 0)
(0.340007 -0.0332743 0)
(0.354507 -0.0348922 -8.12813e-27)
(0.344548 -0.0341348 -1.61661e-26)
(0.35103 -0.0349434 6.32519e-27)
(0.386617 -0.0385769 -1.07238e-29)
(0.391224 -0.0393798 -1.01692e-29)
(0.473271 -0.0478569 -4.96563e-28)
(0.510156 -0.0515608 0)
(0.600011 -0.0606394 -1.20069e-27)
(0.684612 -0.0694567 -2.11654e-27)
(0.844011 -0.0860678 0)
(0.933833 -0.0947228 -2.12719e-27)
(1.09613 -0.110576 2.38577e-27)
(1.30671 -0.132331 -6.73973e-31)
(1.43514 -0.144839 -3.94314e-27)
(1.64545 -0.164606 3.81232e-27)
(1.85927 -0.186293 0)
(1.96695 -0.196223 7.65878e-30)
(2.08908 -0.205193 -2.33637e-30)
(2.05836 -0.200725 -1.25569e-27)
(1.97887 -0.192981 6.33836e-31)
(1.95652 -0.19084 1.84571e-28)
(1.83574 -0.177063 2.40699e-30)
(1.65122 -0.158603 9.6633e-28)
(1.56779 -0.151808 3.55153e-28)
(1.46297 -0.142794 -1.31245e-27)
(1.3964 -0.135237 5.26605e-30)
(1.33207 -0.129341 -1.31766e-27)
(1.27986 -0.125852 0)
(1.22354 -0.118699 5.57419e-28)
(1.17511 -0.114016 0)
(1.0975 -0.107604 1.65746e-27)
(1.04029 -0.101085 -7.77046e-29)
(1.00741 -0.09782 3.44483e-28)
(0.932645 -0.0915662 -9.98785e-32)
(0.932199 -0.0917411 5.10744e-30)
(0.924505 -0.0908742 -4.67768e-28)
(0.957506 -0.0957375 -1.6888e-28)
(1.01639 -0.101534 2.40042e-28)
(1.08365 -0.109646 5.04446e-28)
(1.40428 -0.143868 -9.80515e-28)
(1.49808 -0.152279 -2.22786e-30)
(1.77107 -0.176293 -1.58029e-27)
(1.87202 -0.186085 -3.6408e-30)
(1.90662 -0.188865 -2.43373e-30)
(1.93784 -0.186648 4.38798e-30)
(1.68612 -0.161845 1.80019e-27)
(1.65728 -0.160226 1.00792e-27)
(1.45718 -0.140792 -6.60942e-28)
(1.37383 -0.133227 1.39607e-30)
(1.33627 -0.130366 -2.97456e-30)
(1.33894 -0.1333 1.40069e-27)
(1.32966 -0.12959 9.55761e-28)
(1.29139 -0.125445 0)
(1.22831 -0.120836 1.63677e-27)
(1.17347 -0.114594 8.31964e-28)
(1.09647 -0.106506 -8.80894e-28)
(1.07195 -0.104038 -6.4907e-28)
(0.977479 -0.0958601 2.98424e-27)
(1.0369 -0.103177 -5.53743e-31)
(1.06513 -0.106011 -3.31875e-28)
(1.14159 -0.114736 -1.23386e-28)
(1.30563 -0.131476 2.10566e-30)
(1.50314 -0.152097 -3.45459e-28)
(1.5792 -0.158398 -5.59182e-28)
(1.71132 -0.167917 1.07315e-27)
(1.68558 -0.16588 7.00051e-28)
(1.70003 -0.167567 -3.67497e-31)
(1.6915 -0.16387 -2.4687e-27)
(1.53781 -0.148306 0)
(1.50976 -0.147166 1.30489e-30)
(1.43695 -0.141091 -9.64423e-28)
(1.45622 -0.1439 0)
(1.42131 -0.13846 3.32978e-31)
(1.39056 -0.135255 -1.17178e-31)
(1.33337 -0.130863 0)
(1.27407 -0.124674 -3.66466e-27)
(1.26649 -0.123551 7.69623e-28)
(1.24156 -0.122277 1.42074e-32)
(-0.481934 0.0966637 2.32254e-28)
(-0.49347 0.0991789 0)
(-0.512099 0.0906327 -2.0081e-28)
(-0.544185 0.0821402 -8.49363e-27)
(-0.550028 0.0842428 0)
(-0.614377 0.0923641 -5.84713e-27)
(-0.641456 0.0974269 1.29502e-27)
(-0.689814 0.104311 -1.99998e-28)
(-0.725736 0.109585 -2.73829e-31)
(-0.77005 0.115993 0)
(-0.79526 0.119609 6.54106e-29)
(-0.830169 0.124311 1.78322e-29)
(-0.849147 0.126948 0)
(-0.867917 0.129146 -2.16218e-28)
(-0.864956 0.127884 -1.16275e-28)
(-0.862601 0.127528 1.60549e-30)
(-0.851325 0.125498 1.92919e-30)
(-0.830623 0.122243 -4.99302e-28)
(-0.80641 0.117963 0)
(-0.758689 0.110283 -7.37738e-28)
(-0.730187 0.10607 0)
(-0.678591 0.0986518 -2.97447e-30)
(-0.636207 0.0921202 -5.19401e-30)
(-0.574213 0.0824879 0)
(-0.539433 0.0773665 0)
(-0.476842 0.0685949 1.02313e-27)
(-0.428601 0.0623305 1.41335e-26)
(-0.379196 0.0539222 -7.67964e-30)
(-0.303868 0.0420903 -1.64298e-27)
(-0.264156 0.0364078 2.46695e-27)
(-0.191369 0.0259064 7.76207e-30)
(-0.131783 0.0167921 2.68928e-27)
(-0.0451384 0.00351115 0)
(0.00323757 -0.00347663 0)
(0.0911324 -0.0163641 0)
(0.155299 -0.0257198 -1.08325e-27)
(0.228131 -0.0365347 1.09005e-27)
(0.308496 -0.0485212 -6.76125e-28)
(0.351578 -0.0548899 0)
(0.428533 -0.0654704 1.42119e-27)
(0.46808 -0.0709614 0)
(0.509096 -0.0766346 -1.18499e-29)
(0.535836 -0.0802846 -3.56479e-28)
(0.542263 -0.0811112 -6.64293e-28)
(0.561306 -0.0792867 0)
(0.562369 -0.0659977 -1.07147e-29)
(0.584017 -0.0678725 -8.69409e-30)
(0.576474 -0.0666065 -4.19241e-27)
(0.574694 -0.0664126 -3.45462e-27)
(0.56908 -0.0655429 -1.36369e-29)
(0.543726 -0.0623644 6.55687e-30)
(0.524723 -0.0599593 4.87694e-28)
(0.490943 -0.0487134 -6.30236e-30)
(0.487256 -0.047536 -7.33083e-27)
(0.470476 -0.0457115 0)
(0.442703 -0.0430316 -9.67689e-28)
(0.415746 -0.040443 3.60968e-31)
(0.408442 -0.0398285 -5.31332e-27)
(0.39767 -0.0386072 0)
(0.363553 -0.0354829 -2.27634e-27)
(0.378267 -0.0371254 0)
(0.368545 -0.0365027 -6.55576e-28)
(0.375155 -0.0374499 1.48817e-27)
(0.411785 -0.041264 0)
(0.41807 -0.042342 -1.01703e-29)
(0.502072 -0.0515395 -1.67385e-28)
(0.540162 -0.0551434 0)
(0.633759 -0.0646947 -2.59468e-27)
(0.724051 -0.0742747 -3.88546e-27)
(0.888734 -0.0916345 0)
(0.979892 -0.10039 -8.25721e-27)
(1.15049 -0.117178 4.44829e-27)
(1.37258 -0.14033 -3.05275e-27)
(1.50314 -0.153022 -4.08607e-27)
(1.72843 -0.174158 1.51067e-26)
(1.96217 -0.19785 4.94763e-27)
(2.07299 -0.207876 -2.85923e-27)
(2.21492 -0.217926 1.19475e-27)
(2.19943 -0.214354 -1.25307e-27)
(2.12592 -0.206963 4.90915e-28)
(2.1054 -0.204915 9.95001e-28)
(1.98495 -0.190541 -4.42963e-30)
(1.79297 -0.171254 1.1188e-30)
(1.70862 -0.164691 -1.43931e-27)
(1.5933 -0.155024 -1.04509e-30)
(1.51723 -0.146361 -7.65862e-28)
(1.45172 -0.140419 6.81911e-30)
(1.38844 -0.13624 -4.78267e-31)
(1.31921 -0.127405 -2.52441e-28)
(1.26914 -0.122525 0)
(1.17718 -0.11496 2.53203e-27)
(1.10819 -0.107157 3.60594e-28)
(1.07387 -0.103736 -5.71551e-29)
(0.989625 -0.0968932 0)
(0.985009 -0.0968492 1.41404e-28)
(0.976888 -0.0959793 -9.90157e-32)
(1.01205 -0.10165 -5.80377e-28)
(1.07237 -0.10771 -6.41707e-28)
(1.15034 -0.117627 -2.4659e-31)
(1.4918 -0.154675 1.78215e-30)
(1.58944 -0.163253 -1.6872e-27)
(1.88994 -0.189301 -1.98312e-30)
(2.01798 -0.201391 2.07701e-27)
(2.0555 -0.204133 -1.14976e-27)
(2.09807 -0.201414 -2.70621e-27)
(1.84521 -0.176222 3.26361e-27)
(1.81681 -0.174794 4.66256e-27)
(1.60182 -0.153874 2.21853e-28)
(1.50509 -0.145363 1.49336e-27)
(1.46559 -0.142545 2.29928e-27)
(1.45736 -0.145119 -2.58187e-30)
(1.43809 -0.139713 1.1329e-28)
(1.39707 -0.135112 1.17912e-27)
(1.31823 -0.129177 -3.53265e-31)
(1.24335 -0.120742 1.47713e-27)
(1.15388 -0.111491 6.01037e-28)
(1.12756 -0.108871 -2.51692e-28)
(1.02704 -0.100569 4.19573e-27)
(1.0902 -0.108892 -1.63356e-35)
(1.11986 -0.111983 -1.43638e-27)
(1.2092 -0.122617 1.27631e-30)
(1.39368 -0.141674 2.25282e-27)
(1.61099 -0.164339 1.84185e-35)
(1.69177 -0.170739 1.83236e-30)
(1.84166 -0.181056 1.25085e-27)
(1.82317 -0.179573 0)
(1.83853 -0.181327 3.67337e-31)
(1.83275 -0.17702 4.32778e-31)
(1.67644 -0.160994 -5.27874e-32)
(1.64642 -0.160008 -1.22624e-30)
(1.56572 -0.153429 0)
(1.57667 -0.155646 -2.71698e-31)
(1.53099 -0.148673 -1.03729e-35)
(1.49866 -0.145223 -1.17076e-31)
(1.43077 -0.139988 6.13132e-27)
(1.35646 -0.132373 0)
(1.34813 -0.13119 0)
(1.3226 -0.130264 0)
(-0.483051 0.0969823 2.15206e-28)
(-0.494706 0.0994862 0)
(-0.512263 0.0907325 -4.18517e-27)
(-0.548567 0.0822488 -1.06359e-27)
(-0.57672 0.0878558 0)
(-0.615142 0.0931682 -8.48842e-27)
(-0.642725 0.0980707 -4.39559e-27)
(-0.691271 0.1047 -4.68589e-28)
(-0.727496 0.110051 0)
(-0.771533 0.116419 -3.33149e-28)
(-0.79669 0.119972 2.51694e-28)
(-0.831666 0.124636 -1.24342e-28)
(-0.852076 0.127513 -1.16958e-28)
(-0.869375 0.129448 -2.7861e-28)
(-0.866308 0.128092 -9.92556e-29)
(-0.863915 0.127727 -4.82378e-28)
(-0.852654 0.125671 0)
(-0.832328 0.122385 -8.96454e-29)
(-0.80751 0.118063 8.56282e-28)
(-0.759696 0.11031 0)
(-0.731145 0.10609 0)
(-0.679579 0.0987037 0)
(-0.636973 0.0921273 1.09725e-27)
(-0.574842 0.0824429 0)
(-0.540023 0.0773196 0)
(-0.476833 0.0685386 5.65726e-28)
(-0.42883 0.0614055 1.3052e-27)
(-0.378858 0.0538053 -7.65712e-30)
(-0.303853 0.0419566 -1.05944e-34)
(-0.264078 0.0363048 2.18873e-27)
(-0.191103 0.0258033 0)
(-0.131326 0.0166143 7.57604e-28)
(-0.0445964 0.00330867 1.70078e-27)
(0.00381195 -0.0036625 6.58652e-28)
(0.0919126 -0.0165725 -1.53537e-27)
(0.156723 -0.0260437 1.17125e-29)
(0.229202 -0.0367976 4.62591e-28)
(0.309618 -0.0487907 -1.56989e-34)
(0.352733 -0.0551619 1.14565e-28)
(0.429849 -0.0656804 3.74374e-28)
(0.470977 -0.0714226 5.47908e-29)
(0.510503 -0.0768201 -2.65798e-28)
(0.537258 -0.0804449 3.64443e-28)
(0.54372 -0.0812539 1.33299e-27)
(0.563008 -0.0794228 0)
(0.564405 -0.0660067 -1.87144e-28)
(0.585516 -0.0678782 0)
(0.577931 -0.0666311 6.90005e-27)
(0.576124 -0.0664369 -7.5502e-27)
(0.570538 -0.0654291 2.53457e-27)
(0.545608 -0.0622164 0)
(0.526248 -0.0597381 -3.24689e-27)
(0.492309 -0.0485362 1.93329e-27)
(0.48855 -0.0473717 8.91049e-27)
(0.471736 -0.0454904 0)
(0.444525 -0.0428097 -2.2732e-27)
(0.416924 -0.0402944 5.18284e-27)
(0.409615 -0.0397572 -4.73016e-27)
(0.398854 -0.0384846 0)
(0.364765 -0.0354084 -4.76528e-27)
(0.379509 -0.0371458 0)
(0.36976 -0.0364808 -3.89817e-27)
(0.376355 -0.0374483 -1.01161e-29)
(0.413125 -0.041249 -1.87817e-27)
(0.419458 -0.0423494 0)
(0.503491 -0.0516897 -1.84601e-27)
(0.541617 -0.0552768 -4.41643e-28)
(0.635754 -0.0649072 1.1866e-29)
(0.725913 -0.0745248 -8.83319e-30)
(0.89075 -0.0919944 0)
(0.981993 -0.10071 -2.65919e-27)
(1.15316 -0.117575 -1.5764e-34)
(1.37517 -0.140851 -1.00848e-27)
(1.50577 -0.153517 -8.91874e-30)
(1.73239 -0.174724 8.84544e-30)
(1.96518 -0.19849 3.47381e-27)
(2.07604 -0.208378 -6.62256e-30)
(2.21831 -0.218158 -9.74992e-29)
(2.20275 -0.214377 0)
(2.12905 -0.20715 -1.11108e-27)
(2.10858 -0.205098 3.36138e-31)
(1.98805 -0.19043 9.03409e-28)
(1.79564 -0.171015 0)
(1.71122 -0.16476 -7.18964e-29)
(1.59575 -0.155248 1.50051e-27)
(1.5193 -0.146282 -2.27588e-30)
(1.45373 -0.140385 2.32936e-27)
(1.39039 -0.136478 9.56529e-31)
(1.32092 -0.127392 -2.61029e-27)
(1.27082 -0.122478 0)
(1.17876 -0.115121 3.67234e-31)
(1.10962 -0.107178 5.85329e-28)
(1.07527 -0.103733 -1.04648e-30)
(0.99095 -0.0970347 0)
(0.986296 -0.0970135 1.542e-30)
(0.97814 -0.0961396 1.27844e-27)
(1.01333 -0.102008 0)
(1.07357 -0.108097 5.47824e-29)
(1.15174 -0.118237 -1.75617e-28)
(1.49345 -0.155597 4.88444e-28)
(1.59116 -0.163995 1.00772e-27)
(1.89885 -0.190388 1.11056e-27)
(2.0206 -0.201933 -3.78555e-27)
(2.05833 -0.204443 -3.47392e-28)
(2.10131 -0.20091 0)
(1.84804 -0.175975 -2.44613e-27)