/*--------------------------------*- C++ -*----------------------------------*\
| =========                 |                                                 |
| \\      /  F ield         | OpenFOAM: The Open Source CFD Toolbox           |
|  \\    /   O peration     | Version:  v2012                                 |
|   \\  /    A nd           | Website:  www.openfoam.com                      |
|    \\/     M anipulation  |                                                 |
\*---------------------------------------------------------------------------*/
FoamFile
{
    version     2.0;
    format      ascii;
    class       volVectorField;
    location    "1e-06";
    object      UMean;
}
// * * * * * * * * * * * * * * * * * * * * * * * * * * * * * * * * * * * * * //

dimensions      [0 1 -1 0 0 0 0];


internalField   nonuniform List<vector> 
10178
(
(-0.264284 0.0525132 -1.87952e-29)
(-0.25967 0.0516943 -1.95378e-29)
(-0.288318 0.0391392 0)
(-0.303641 0.0528666 0)
(-0.344159 0.0558147 -1.31692e-25)
(-0.369774 0.0537215 -2.56154e-29)
(-0.418648 0.060657 0)
(-0.468759 0.0696601 1.55238e-29)
(-0.497102 0.073809 -6.93001e-28)
(-0.524421 0.0773848 5.91275e-27)
(-0.540969 0.0803251 -7.43566e-30)
(-0.586285 0.0870562 -1.58157e-28)
(-0.621492 0.0922073 -7.63004e-29)
(-0.635533 0.0941354 4.89328e-28)
(-0.627514 0.0928904 0)
(-0.627949 0.0930246 0)
(-0.6386 0.0945804 -1.1541e-27)
(-0.64142 0.0949229 -1.18747e-30)
(-0.620953 0.0917706 1.8e-30)
(-0.577573 0.0853329 -3.25701e-28)
(-0.560461 0.0828311 1.16436e-27)
(-0.533936 0.0788879 -1.87989e-27)
(-0.503138 0.074261 -3.36234e-32)
(-0.449208 0.0662345 -1.00562e-35)
(-0.413693 0.0610105 8.8682e-28)
(-0.370731 0.0546793 -6.69533e-30)
(-0.344472 0.0506319 -1.73152e-30)
(-0.318322 0.0468666 0)
(-0.25522 0.0374849 1.06164e-27)
(-0.219606 0.0322329 0)
(-0.169548 0.0248375 0)
(-0.129262 0.0188359 2.60717e-27)
(-0.0645846 0.00922522 0)
(-0.0205815 0.00275899 0)
(0.0432864 -0.00672186 -2.14617e-27)
(0.0872085 -0.0132332 -2.29932e-30)
(0.133713 -0.0200948 1.98303e-27)
(0.187173 -0.0280218 1.57536e-29)
(0.226029 -0.033803 -7.64698e-36)
(0.286258 -0.0426749 -2.34877e-27)
(0.315961 -0.0470633 7.76071e-27)
(0.332713 -0.0494728 4.08406e-27)
(0.342222 -0.0508809 -2.18531e-27)
(0.352568 -0.0524414 -1.33918e-34)
(0.372308 -0.0534741 1.36664e-29)
(0.376286 -0.0474941 2.39918e-29)
(0.389037 -0.0488689 2.76948e-25)
(0.379957 -0.0476475 5.42609e-25)
(0.377326 -0.047349 0)
(0.381417 -0.0479357 2.71796e-25)
(0.372191 -0.0468175 2.66223e-25)
(0.356248 -0.044815 2.61157e-25)
(0.32598 -0.0375366 -1.51893e-33)
(0.317588 -0.0361641 -3.66993e-25)
(0.314535 -0.0358123 3.55246e-25)
(0.305764 -0.0342437 1.18261e-29)
(0.285148 -0.0297982 1.278e-25)
(0.270532 -0.028098 -9.28465e-30)
(0.260071 -0.0270917 -1.10434e-29)
(0.239072 -0.0250085 1.07404e-25)
(0.250264 -0.0262189 0)
(0.237566 -0.0249296 1.11984e-25)
(0.24337 -0.0255503 -2.60265e-29)
(0.276591 -0.0290684 -2.55344e-25)
(0.279358 -0.0292931 -1.25038e-25)
(0.340112 -0.0341636 2.82568e-26)
(0.379145 -0.0377871 -1.27811e-26)
(0.459578 -0.0455082 -6.0379e-27)
(0.516332 -0.0511125 2.15142e-29)
(0.633227 -0.0627339 4.0051e-27)
(0.732015 -0.072504 5.03456e-27)
(0.869511 -0.0859508 -8.13e-27)
(1.00431 -0.0992717 0)
(1.11953 -0.110634 -5.06887e-27)
(1.28716 -0.126989 -4.31648e-29)
(1.4058 -0.138643 0)
(1.47885 -0.145803 -7.57049e-28)
(1.57406 -0.154807 -2.48501e-29)
(1.50448 -0.147657 -1.16987e-29)
(1.37618 -0.135071 1.86358e-27)
(1.38467 -0.135962 5.52929e-27)
(1.27713 -0.125043 4.43044e-30)
(1.08328 -0.106017 0)
(1.02855 -0.100822 0)
(0.957306 -0.0939144 5.95838e-30)
(0.871825 -0.0854578 1.11942e-27)
(0.836975 -0.0821434 0)
(0.822105 -0.080788 6.75456e-30)
(0.762699 -0.0748048 -4.36864e-28)
(0.746096 -0.0732459 0)
(0.726492 -0.0713902 -3.09903e-27)
(0.684063 -0.0671518 0)
(0.684426 -0.0672215 2.36759e-30)
(0.660102 -0.0648986 2.07606e-27)
(0.657557 -0.0646944 0)
(0.679578 -0.0668563 -9.47377e-30)
(0.706661 -0.0696708 -2.35798e-29)
(0.738157 -0.0727598 -3.01992e-29)
(0.78423 -0.0775189 -2.80515e-34)
(1.00186 -0.0992818 1.11074e-29)
(1.07489 -0.106434 3.03261e-27)
(1.29872 -0.128094 3.4356e-30)
(1.30488 -0.128544 0)
(1.33572 -0.131637 0)
(1.36908 -0.134152 -1.35139e-26)
(1.09483 -0.107107 7.25224e-28)
(1.08985 -0.106795 8.89499e-34)
(0.938503 -0.0918695 -5.54652e-34)
(0.8528 -0.0835905 3.22238e-34)
(0.839121 -0.0823996 5.11549e-27)
(0.875312 -0.0861927 -7.92663e-27)
(0.855358 -0.0838985 0)
(0.819496 -0.0804411 -2.09718e-30)
(0.828946 -0.0815574 -7.52439e-30)
(0.831105 -0.081628 3.44993e-27)
(0.787289 -0.077295 -2.32637e-29)
(0.790755 -0.0776608 0)
(0.746969 -0.0734239 0)
(0.775019 -0.0763414 -3.37269e-28)
(0.79466 -0.078306 1.43784e-29)
(0.838954 -0.0828406 -1.18753e-29)
(0.930308 -0.091849 -5.60918e-30)
(1.03826 -0.102648 -2.88517e-30)
(1.13102 -0.111771 -4.13814e-30)
(1.23444 -0.121413 0)
(1.1654 -0.114585 3.44391e-29)
(1.17629 -0.115785 0)
(1.19359 -0.117075 2.96183e-29)
(1.03214 -0.101022 3.95994e-29)
(0.980174 -0.0961902 3.75292e-29)
(0.962108 -0.0945907 -9.97473e-31)
(0.99811 -0.0981297 -6.46876e-27)
(0.955463 -0.093746 -5.52599e-29)
(0.941009 -0.0924048 -3.23233e-27)
(0.935604 -0.0919554 4.06239e-30)
(0.900189 -0.0884132 -3.05753e-28)
(0.883941 -0.0868278 4.63133e-28)
(0.893044 -0.0878966 0)
(-0.332461 0.0660781 -8.90021e-28)
(-0.334565 0.0666137 3.44782e-28)
(-0.351982 0.0353285 2.02373e-25)
(-0.380692 0.0566728 1.75926e-29)
(-0.345374 0.0509215 -1.52538e-25)
(-0.453977 0.0635242 -8.60847e-26)
(-0.494747 0.0698378 0)
(-0.532055 0.0791215 1.25185e-27)
(-0.559854 0.0832264 0)
(-0.604703 0.0891191 9.94302e-27)
(-0.631414 0.0938954 -7.44012e-30)
(-0.661792 0.0983766 6.65371e-29)
(-0.678742 0.100803 0)
(-0.705059 0.104486 3.53456e-28)
(-0.710347 0.105125 0)
(-0.708154 0.104901 0)
(-0.70107 0.103847 -2.66716e-27)
(-0.693198 0.102649 0)
(-0.682795 0.10082 0)
(-0.646972 0.0954077 7.35761e-31)
(-0.618334 0.0912428 2.34106e-27)
(-0.574721 0.0848676 0)
(-0.543404 0.0801107 0)
(-0.49377 0.072601 -1.67422e-27)
(-0.461507 0.0678646 2.2719e-27)
(-0.404316 0.0595468 -5.09703e-27)
(-0.370659 0.055036 0)
(-0.34161 0.050196 5.35782e-27)
(-0.276872 0.0404413 0)
(-0.240084 0.0350745 -2.69966e-30)
(-0.179725 0.0262834 -1.86584e-30)
(-0.132936 0.0192866 6.66612e-27)
(-0.0624178 0.00866624 -4.09652e-27)
(-0.0194644 0.00236952 -2.29047e-30)
(0.0527665 -0.00828327 0)
(0.10104 -0.0153787 0)
(0.15727 -0.0237286 5.3109e-27)
(0.223216 -0.0336158 2.49036e-27)
(0.261754 -0.0393632 0)
(0.322698 -0.0481805 -8.03207e-27)
(0.351288 -0.0523229 1.00973e-26)
(0.381998 -0.0567776 9.96605e-27)
(0.404038 -0.0600717 5.72993e-29)
(0.406902 -0.0605057 -5.3396e-27)
(0.41939 -0.0587912 -1.35548e-29)
(0.421633 -0.0469308 2.08799e-25)
(0.443031 -0.0493106 0)
(0.439474 -0.0489367 8.43143e-25)
(0.437549 -0.0487594 1.0976e-29)
(0.432819 -0.0481206 4.18561e-25)
(0.411647 -0.0455663 -1.18581e-29)
(0.397701 -0.0439263 3.97124e-25)
(0.371614 -0.0345018 -5.52686e-25)
(0.368564 -0.0335994 0)
(0.355541 -0.0324117 5.38713e-25)
(0.333825 -0.0308416 -4.64144e-25)
(0.314988 -0.0298215 1.92987e-25)
(0.308522 -0.0294215 8.8567e-34)
(0.296411 -0.0282439 -1.09794e-29)
(0.264628 -0.0251721 3.24602e-25)
(0.277929 -0.0264483 -1.7528e-25)
(0.268494 -0.0256362 1.70468e-25)
(0.273855 -0.0262038 -3.43038e-25)
(0.305302 -0.0292042 -1.94243e-25)
(0.308084 -0.0295361 3.47705e-29)
(0.382156 -0.0377241 8.84845e-26)
(0.416024 -0.0412087 -4.94059e-26)
(0.494055 -0.0489266 0)
(0.565361 -0.0560277 1.69255e-26)
(0.708493 -0.0704789 1.8216e-29)
(0.788244 -0.0782724 -1.31674e-26)
(0.929142 -0.0919275 1.95825e-26)
(1.10341 -0.10944 -7.41073e-30)
(1.21587 -0.120523 -8.05533e-27)
(1.37705 -0.135941 4.50287e-29)
(1.54176 -0.152408 0)
(1.63463 -0.161462 3.25522e-27)
(1.70971 -0.167925 0)
(1.65503 -0.162099 0)
(1.5689 -0.153818 0)
(1.5402 -0.151165 1.0399e-26)
(1.42 -0.138685 8.84934e-30)
(1.25637 -0.122487 -1.38627e-30)
(1.17821 -0.115345 0)
(1.08578 -0.106534 -9.96194e-27)
(1.03543 -0.101229 0)
(0.97888 -0.0959229 -1.26309e-29)
(0.941535 -0.0926881 1.21317e-26)
(0.911944 -0.0892607 4.7165e-28)
(0.872339 -0.0855204 -6.95735e-30)
(0.827484 -0.0814695 -1.02662e-31)
(0.804907 -0.0789018 -7.62834e-30)
(0.779626 -0.0764831 -4.71853e-30)
(0.73712 -0.0725792 -1.97598e-29)
(0.752756 -0.0741167 0)
(0.748535 -0.0736634 2.97892e-27)
(0.77837 -0.0769588 1.17729e-29)
(0.827149 -0.0817162 5.0679e-34)
(0.861912 -0.0853712 -1.00763e-26)
(1.12277 -0.111853 5.55136e-30)
(1.19668 -0.118978 0)
(1.40776 -0.138657 3.11073e-26)
(1.47964 -0.145882 -1.7038e-29)
(1.49803 -0.147727 -1.57927e-29)
(1.50913 -0.147193 -2.14528e-26)
(1.27313 -0.124037 2.69283e-29)
(1.24281 -0.121632 0)
(1.06861 -0.104518 0)
(1.00773 -0.0986014 0)
(0.980855 -0.0963046 1.06732e-26)
(0.985508 -0.0975059 7.04407e-30)
(0.994128 -0.0974074 -4.25181e-30)
(0.971149 -0.0951958 -2.08582e-30)
(0.936824 -0.0924526 -1.49987e-29)
(0.928041 -0.0912587 -6.37269e-34)
(0.893369 -0.0876046 4.24685e-27)
(0.876887 -0.0860189 0)
(0.806737 -0.0793204 0)
(0.85723 -0.0845859 4.16754e-28)
(0.87895 -0.0867384 -8.94174e-28)
(0.915075 -0.090453 0)
(1.03821 -0.102597 -5.60666e-30)
(1.19688 -0.118831 -9.41573e-35)
(1.25167 -0.123962 1.35073e-34)
(1.35309 -0.132734 5.87707e-32)
(1.32239 -0.12997 -3.59387e-29)
(1.32914 -0.130894 0)
(1.31116 -0.128266 6.64516e-27)
(1.16972 -0.114111 4.63108e-27)
(1.14895 -0.112706 -2.06252e-26)
(1.0879 -0.107173 -9.9782e-31)
(1.11403 -0.10984 -1.90352e-26)
(1.09648 -0.107463 4.93578e-29)
(1.07501 -0.105458 -5.54372e-27)
(1.02891 -0.101332 1.71687e-26)
(1.00836 -0.0990416 -3.28067e-27)
(1.00739 -0.0988333 -5.10256e-28)
(0.981953 -0.0966938 0)
(-0.407701 0.0812393 2.15571e-29)
(-0.410292 0.0818079 7.79397e-28)
(-0.432172 0.0530639 2.03003e-25)
(-0.45852 0.0715737 1.60893e-26)
(-0.410344 0.0629983 7.2753e-29)
(-0.539976 0.0779811 -3.78389e-26)
(-0.582342 0.0836449 -1.32561e-29)
(-0.62408 0.0931648 0)
(-0.653378 0.0975733 -5.00879e-28)
(-0.698143 0.103589 3.50759e-27)
(-0.72381 0.107991 1.25606e-28)
(-0.75628 0.112655 6.32362e-35)
(-0.774295 0.115224 -1.16829e-29)
(-0.796963 0.118283 -4.7034e-28)
(-0.797765 0.11804 2.18278e-28)
(-0.795205 0.117704 4.42041e-30)
(-0.78599 0.116222 -2.81988e-27)
(-0.772836 0.114257 1.19276e-30)
(-0.756192 0.111331 -2.57566e-27)
(-0.713222 0.104706 -4.61636e-28)
(-0.684933 0.100555 3.06868e-30)
(-0.636833 0.093561 3.18098e-30)
(-0.598322 0.0877068 -4.27742e-27)
(-0.5414 0.0790284 -1.20431e-27)
(-0.507743 0.074063 -5.76521e-30)
(-0.445607 0.065041 -5.31611e-27)
(-0.405016 0.0589426 0)
(-0.369213 0.0536447 6.25122e-27)
(-0.296953 0.0426744 -2.3591e-30)
(-0.259282 0.0371995 0)
(-0.192113 0.0274364 -8.31208e-27)
(-0.136684 0.0191083 -4.02352e-30)
(-0.0575105 0.00712129 -4.06898e-27)
(-0.0128005 0.000602945 0)
(0.0680055 -0.0112975 0)
(0.125523 -0.0197304 0)
(0.191397 -0.0295083 5.99824e-27)
(0.265117 -0.0405317 0)
(0.305125 -0.0464791 3.79741e-27)
(0.374988 -0.0564412 5.13309e-31)
(0.409856 -0.0614415 0)
(0.446356 -0.0666731 0)
(0.47045 -0.0701594 -5.97707e-29)
(0.47462 -0.070743 -8.0587e-27)
(0.490977 -0.0696102 9.21121e-26)
(0.492382 -0.058497 -1.40786e-29)
(0.513227 -0.0605801 0)
(0.507105 -0.0596532 -5.03397e-29)
(0.504759 -0.059387 -1.09927e-29)
(0.499202 -0.058707 0)
(0.475266 -0.0558182 3.63786e-25)
(0.458176 -0.0537006 -2.81228e-29)
(0.427178 -0.0438867 -4.9543e-25)
(0.422965 -0.0427298 0)
(0.407545 -0.0411539 0)
(0.335006 -0.0333056 -7.65492e-25)
(0.357876 -0.0354736 0)
(0.35074 -0.0347269 9.2319e-30)
(0.33861 -0.0335114 2.1962e-29)
(0.304656 -0.030242 1.44182e-25)
(0.31891 -0.0317388 3.08427e-29)
(0.308164 -0.0308217 -2.96617e-29)
(0.313685 -0.031496 -3.0044e-25)
(0.348063 -0.0350397 1.50034e-29)
(0.352534 -0.035593 1.68642e-25)
(0.431493 -0.0432551 -4.88791e-29)
(0.466121 -0.046827 -4.77189e-26)
(0.551665 -0.0552616 -1.3766e-29)
(0.634014 -0.0636282 1.84032e-26)
(0.786584 -0.0792183 0)
(0.869339 -0.0872734 -1.40324e-26)
(1.02547 -0.10247 2.06231e-26)
(1.22286 -0.122487 7.40926e-30)
(1.33937 -0.13391 -6.8153e-27)
(1.53148 -0.152186 -3.65408e-26)
(1.72526 -0.17159 4.9571e-34)
(1.82076 -0.180681 1.28157e-27)
(1.92172 -0.188863 -2.1428e-26)
(1.88042 -0.183899 1.16912e-29)
(1.79615 -0.175643 -3.88306e-30)
(1.77143 -0.173302 -2.87272e-30)
(1.64845 -0.16009 -4.42696e-30)
(1.47397 -0.14278 0)
(1.39647 -0.135958 7.63125e-27)
(1.29626 -0.126801 -1.23028e-26)
(1.23649 -0.120406 0)
(1.18056 -0.115211 -1.77272e-27)
(1.13476 -0.111549 1.79744e-26)
(1.08916 -0.106189 2.687e-27)
(1.04916 -0.102378 0)
(0.985369 -0.0967675 -1.00639e-31)
(0.940733 -0.0918463 7.62909e-30)
(0.914297 -0.0892732 2.40285e-27)
(0.85198 -0.0837425 -1.22952e-26)
(0.855401 -0.084178 0)
(0.851129 -0.0836886 3.56786e-27)
(0.881516 -0.0875697 -8.13426e-34)
(0.932875 -0.0925898 3.01361e-29)
(0.990519 -0.0990598 -1.39754e-26)
(1.28638 -0.129756 0)
(1.36388 -0.136992 0)
(1.6081 -0.159329 -1.45894e-29)
(1.69941 -0.168198 1.70369e-29)
(1.72072 -0.170089 5.65856e-27)
(1.74221 -0.169179 0)
(1.49956 -0.145156 0)
(1.47111 -0.143103 0)
(1.28075 -0.124498 0)
(1.20764 -0.117673 0)
(1.18058 -0.115477 2.08069e-26)
(1.18162 -0.117036 3.52719e-26)
(1.18114 -0.115441 0)
(1.15518 -0.112785 -2.25266e-29)
(1.10735 -0.108989 2.73969e-26)
(1.07009 -0.104859 -6.41943e-34)
(1.01121 -0.098743 8.05843e-27)
(0.992468 -0.096887 0)
(0.907131 -0.0890662 5.33378e-27)
(0.960846 -0.095159 3.46625e-27)
(0.984863 -0.0975414 3.13253e-28)
(1.043 -0.103895 -1.18663e-29)
(1.19192 -0.118873 -1.68545e-26)
(1.3697 -0.137116 9.8555e-35)
(1.43097 -0.14259 -4.13151e-30)
(1.55063 -0.152331 0)
(1.52376 -0.149881 -5.90299e-27)
(1.53158 -0.150871 3.88815e-30)
(1.51862 -0.147995 0)
(1.37209 -0.133199 0)
(1.34805 -0.131779 -1.16739e-26)
(1.28181 -0.125955 0)
(1.30271 -0.1284 1.82026e-30)
(1.2766 -0.124747 2.94102e-27)
(1.25459 -0.122582 -4.29868e-30)
(1.20071 -0.117944 2.21935e-26)
(1.1587 -0.113639 -2.94297e-30)
(1.15618 -0.113132 1.62546e-27)
(1.13146 -0.111391 0)
(-0.408792 0.0815142 1.48209e-28)
(-0.411894 0.0821102 1.0259e-27)
(-0.433944 0.0517004 0)
(-0.481896 0.0750736 2.58401e-29)
(-0.495895 0.0755844 3.33667e-26)
(-0.541044 0.0784809 0)
(-0.58332 0.0838504 1.32457e-29)
(-0.625319 0.0934143 7.75124e-28)
(-0.655037 0.0979782 1.06231e-27)
(-0.699283 0.103968 2.24035e-29)
(-0.724876 0.108271 -7.61542e-28)
(-0.757459 0.112914 6.15863e-30)
(-0.778454 0.11596 5.84376e-30)
(-0.798201 0.118554 -1.01076e-27)
(-0.79889 0.118195 1.04336e-29)
(-0.796306 0.117848 7.1817e-28)
(-0.787186 0.116367 -2.5302e-27)
(-0.774977 0.114621 0)
(-0.757203 0.111413 -1.78038e-27)
(-0.714155 0.104697 3.11357e-27)
(-0.68585 0.100538 -3.06218e-30)
(-0.638045 0.0936508 -3.17267e-30)
(-0.599186 0.0877316 -3.09988e-27)
(-0.542102 0.0789707 0)
(-0.508414 0.0739914 -6.99301e-28)
(-0.446212 0.0650191 6.70046e-30)
(-0.410877 0.0594188 0)
(-0.36952 0.0535749 0)
(-0.297236 0.0425485 0)
(-0.25951 0.0371016 -2.68986e-30)
(-0.192238 0.0273835 -7.58808e-27)
(-0.136706 0.0190066 0)
(-0.057452 0.00694804 1.72345e-27)
(-0.0127269 0.000453449 2.27381e-30)
(0.0682094 -0.0114423 2.44683e-30)
(0.126305 -0.0199534 2.28206e-30)
(0.191834 -0.0296956 4.5445e-27)
(0.265585 -0.0407488 -2.67048e-28)
(0.30563 -0.0466994 -3.16273e-30)
(0.375637 -0.0565756 1.03973e-30)
(0.412395 -0.061848 1.04583e-29)
(0.447073 -0.066779 0)
(0.471153 -0.0702427 -8.44516e-27)
(0.475372 -0.0708138 0)
(0.49206 -0.069355 1.05502e-25)
(0.493938 -0.057086 0)
(0.514191 -0.0591559 4.44588e-25)
(0.508021 -0.0582704 -4.42381e-25)
(0.505648 -0.0580117 0)
(0.500129 -0.057214 0)
(0.47671 -0.0543128 -3.99549e-29)
(0.459203 -0.0521662 -4.15366e-25)
(0.428063 -0.0419481 -2.40763e-29)
(0.423799 -0.04081 -5.81677e-25)
(0.408384 -0.0391187 -3.65075e-29)
(0.382938 -0.0372293 -4.82911e-25)
(0.35856 -0.0347861 0)
(0.351382 -0.0341047 0)
(0.339266 -0.0328545 0)
(0.305337 -0.0296372 -2.41534e-29)
(0.31962 -0.0311755 3.58978e-25)
(0.308805 -0.0302753 4.48867e-29)
(0.314313 -0.0309608 -1.73856e-25)
(0.348824 -0.0344326 -1.49788e-29)
(0.353296 -0.035098 -1.70311e-29)
(0.467951 -0.0473555 3.46635e-29)
(0.466857 -0.0468539 -2.4888e-26)
(0.552878 -0.0554166 0)
(0.63497 -0.0638168 -1.55703e-26)
(0.787594 -0.0795404 -1.82116e-29)
(0.870439 -0.0875427 0)
(1.0271 -0.102776 9.85128e-30)
(1.22429 -0.122964 2.69112e-34)
(1.34083 -0.134346 2.8339e-27)
(1.53442 -0.152634 -3.80044e-34)
(1.7269 -0.172145 2.42603e-29)
(1.82241 -0.181094 -5.88758e-27)
(1.92369 -0.1889 -2.35334e-26)
(1.88231 -0.183771 0)
(1.79789 -0.175664 1.56096e-27)
(1.77322 -0.173343 0)
(1.65019 -0.159863 1.36724e-26)
(1.4754 -0.142424 2.34891e-26)
(1.39787 -0.135884 3.62662e-27)
(1.2977 -0.126935 -1.15488e-26)
(1.23768 -0.120247 1.50039e-26)
(1.18177 -0.11511 -7.57389e-27)
(1.13601 -0.111758 0)
(1.09017 -0.106107 7.67943e-27)
(1.05018 -0.102283 0)
(0.986345 -0.0969019 0)
(0.941574 -0.0918157 0)
(0.915117 -0.0892129 -1.04689e-29)
(0.852711 -0.0838502 0)
(0.856063 -0.0842947 -7.54091e-27)
(0.851735 -0.0837603 3.65407e-27)
(0.882047 -0.0878592 0)
(0.933386 -0.0928541 -7.9074e-27)
(0.991234 -0.0994687 -3.79302e-29)
(1.28717 -0.13056 0)
(1.36471 -0.137581 0)
(1.61698 -0.160225 -3.50399e-26)
(1.70085 -0.168554 -1.314e-27)
(1.72234 -0.170319 3.35235e-27)
(1.74434 -0.168622 5.71737e-26)
(1.50145 -0.1448 0)
(1.47281 -0.143008 0)
(1.28207 -0.124451 0)
(1.20877 -0.117607 0)
(1.18162 -0.115527 5.97081e-29)
(1.1874 -0.118099 4.72369e-26)
(1.18204 -0.115453 3.69452e-28)
(1.15604 -0.112674 5.29906e-27)
(1.10811 -0.109179 5.74769e-26)
(1.07075 -0.10491 0)
(1.01192 -0.098688 8.03961e-28)
(0.993128 -0.0967933 2.31755e-29)
(0.907869 -0.0891291 1.00488e-26)
(0.961181 -0.0953634 0)
(0.985193 -0.0977265 2.86926e-29)
(1.04363 -0.104197 2.44875e-27)
(1.19261 -0.119227 -1.75949e-26)
(1.37043 -0.137736 -2.14994e-26)
(1.43183 -0.142935 2.37125e-27)
(1.55197 -0.152207 5.89337e-32)
(1.52497 -0.149992 -5.92572e-27)
(1.53285 -0.151026 -3.88534e-30)
(1.52073 -0.147781 -2.62553e-26)
(1.3734 -0.132958 0)
(1.3492 -0.131837 9.68253e-27)
(1.2828 -0.126149 2.62021e-26)
(1.30369 -0.12884 0)
(1.27747 -0.124733 -3.23678e-30)
(1.25537 -0.12249 -2.86667e-30)
(1.20628 -0.11856 -2.02167e-30)
(1.15931 -0.11369 4.26068e-27)
(1.15675 -0.113058 -4.71311e-27)
(1.1321 -0.111468 0)
(-0.44878 0.08965 5.31076e-28)
(-0.452608 0.0902981 1.77749e-27)
(-0.477748 0.0607161 1.88578e-29)
(-0.522325 0.0804753 1.63759e-26)
(-0.543732 0.083156 2.13161e-29)
(-0.5903 0.0843172 2.00818e-29)
(-0.632994 0.0917418 1.32368e-29)
(-0.677343 0.10152 3.30026e-27)
(-0.708011 0.106278 3.15052e-28)
(-0.752582 0.11237 0)
(-0.777735 0.116499 0)
(-0.811052 0.121146 -1.94487e-28)
(-0.831012 0.12399 0)
(-0.849543 0.126274 0)
(-0.847442 0.125333 -4.00995e-28)
(-0.844529 0.124912 1.59276e-27)
(-0.833489 0.12304 -7.43212e-30)
(-0.817433 0.120726 9.18121e-27)
(-0.796268 0.11682 0)
(-0.749218 0.109386 4.42199e-28)
(-0.720781 0.105193 -3.06166e-30)
(-0.669773 0.097865 -3.17392e-30)
(-0.626813 0.0912902 0)
(-0.565709 0.0818563 0)
(-0.531242 0.0767502 1.18727e-27)
(-0.465869 0.0673606 7.32809e-27)
(-0.424463 0.0592271 0)
(-0.380824 0.0546173 -6.97463e-30)
(-0.304157 0.0428668 -3.10795e-27)
(-0.265742 0.0373519 0)
(-0.194193 0.0270371 0)
(-0.133572 0.0178507 1.0888e-26)
(-0.0492867 0.00496649 5.16382e-27)
(-0.00348451 -0.00166075 4.56099e-30)
(0.0825446 -0.0142747 4.91051e-30)
(0.145923 -0.0235495 -1.06527e-26)
(0.217216 -0.0341373 1.32426e-29)
(0.295692 -0.0458833 -6.38518e-27)
(0.336684 -0.0519622 -5.27757e-27)
(0.411772 -0.0624188 1.82021e-26)
(0.451762 -0.0680861 0)
(0.490565 -0.0735209 0)
(0.516225 -0.0771313 2.133e-29)
(0.521148 -0.0777607 1.37746e-26)
(0.539942 -0.0762629 -5.3902e-29)
(0.541449 -0.0634494 2.20053e-25)
(0.561572 -0.0653469 4.49724e-25)
(0.554037 -0.0641717 0)
(0.551417 -0.063872 -4.47716e-25)
(0.54511 -0.0629695 4.4381e-25)
(0.519651 -0.0597682 -4.28027e-25)
(0.50037 -0.0573244 0)
(0.466394 -0.0464929 5.71227e-25)
(0.461494 -0.0452229 -5.81858e-25)
(0.444377 -0.0433693 0)
(0.416184 -0.0404605 4.95177e-25)
(0.389104 -0.0379177 1.99091e-25)
(0.381553 -0.0372121 1.81089e-25)
(0.36939 -0.0359111 0)
(0.334397 -0.0326599 0)
(0.349195 -0.0343048 1.81696e-25)
(0.338178 -0.0334577 3.56325e-25)
(0.34384 -0.0342025 -1.77102e-25)
(0.38009 -0.0379221 2.9911e-29)
(0.386381 -0.0389037 3.4019e-29)
(0.468749 -0.0474146 5.41473e-26)
(0.504263 -0.0510083 0)
(0.595508 -0.0602189 -2.59652e-26)
(0.685274 -0.0695429 -2.58349e-26)
(0.844797 -0.0861593 0)
(0.929556 -0.0943118 -1.99603e-26)
(1.09734 -0.110702 2.91979e-26)
(1.31027 -0.132662 7.40259e-30)
(1.42971 -0.144293 -1.72287e-26)
(1.64394 -0.164447 5.33743e-26)
(1.86075 -0.186416 0)
(1.95962 -0.19549 6.36105e-29)
(2.08276 -0.204577 -2.48082e-29)
(2.05584 -0.20048 -3.32749e-26)
(1.97631 -0.192728 1.28604e-29)
(1.95356 -0.190541 7.44103e-27)
(1.8292 -0.176425 5.78868e-30)
(1.64611 -0.158117 2.6186e-26)
(1.56774 -0.1518 6.46761e-27)
(1.45799 -0.142287 -1.88925e-26)
(1.38908 -0.134536 -7.02693e-30)
(1.33234 -0.129389 -7.83033e-27)
(1.27617 -0.125444 0)
(1.21625 -0.117994 6.04094e-27)
(1.1747 -0.113993 0)
(1.09411 -0.107248 2.62444e-26)
(1.03374 -0.100445 1.96541e-27)
(1.00562 -0.0976515 -9.78281e-28)
(0.92992 -0.0912934 -9.69967e-30)
(0.926631 -0.0911942 6.03853e-29)
(0.921868 -0.0906187 1.16412e-26)
(0.954363 -0.0954292 1.54166e-26)
(1.00787 -0.100696 -8.22243e-27)
(1.08181 -0.109463 1.50996e-27)
(1.40428 -0.143878 2.40577e-26)
(1.4859 -0.151079 5.26294e-27)
(1.76705 -0.175911 -5.17025e-26)
(1.87541 -0.186382 -4.4763e-29)
(1.89958 -0.188183 3.14898e-29)
(1.93164 -0.186073 -8.87116e-29)
(1.68605 -0.161813 -3.05617e-26)
(1.65772 -0.160256 6.48801e-27)
(1.45153 -0.140255 1.26978e-26)
(1.36617 -0.1325 -9.72051e-30)
(1.3375 -0.13046 -3.98822e-29)
(1.33512 -0.132908 6.3478e-26)
(1.32049 -0.128695 -6.08161e-27)
(1.29166 -0.12549 0)
(1.22793 -0.120775 4.26524e-26)
(1.16645 -0.113892 2.37884e-26)
(1.09062 -0.105948 3.52302e-27)
(1.0696 -0.103819 6.71626e-28)
(0.975167 -0.0956123 1.47272e-26)
(1.03281 -0.102784 -2.73518e-29)
(1.0588 -0.105393 3.98814e-27)
(1.13462 -0.114043 7.1178e-27)
(1.306 -0.131517 -5.17405e-29)
(1.50373 -0.152148 -2.24317e-26)
(1.57012 -0.157514 -3.9443e-27)
(1.70757 -0.167564 5.50553e-26)
(1.68679 -0.165987 -8.25469e-27)
(1.69551 -0.167106 3.88172e-30)
(1.68628 -0.163391 -3.35985e-26)
(1.53575 -0.148104 0)
(1.50952 -0.147127 4.75942e-29)
(1.43593 -0.141007 3.74449e-26)
(1.45001 -0.143275 0)
(1.41427 -0.137767 3.23374e-30)
(1.3908 -0.135315 2.86256e-30)
(1.33155 -0.130619 0)
(1.26707 -0.124047 7.48518e-27)
(1.26363 -0.123258 -4.19215e-27)
(1.23905 -0.121986 1.3513e-30)
(-0.472597 0.0946513 7.74842e-28)
(-0.477104 0.0953634 0)
(-0.504269 0.0657844 2.15164e-25)
(-0.545048 0.0874198 -1.87594e-26)
(-0.544265 0.0848679 0)
(-0.620926 0.0877882 6.09859e-26)
(-0.663831 0.0969009 3.00481e-26)
(-0.709445 0.10676 2.50657e-27)
(-0.74069 0.111638 1.33452e-29)
(-0.78548 0.117808 0)
(-0.810415 0.121795 3.24543e-28)
(-0.843864 0.126326 8.89544e-29)
(-0.862909 0.12896 0)
(-0.880501 0.130951 -1.8833e-27)
(-0.876588 0.129544 -6.92114e-28)
(-0.873406 0.129054 -8.88124e-30)
(-0.860875 0.126829 -7.44071e-30)
(-0.84224 0.124197 1.2967e-26)
(-0.818911 0.119682 0)
(-0.769379 0.111757 -1.07451e-27)
(-0.740715 0.107519 0)
(-0.687499 0.0998805 6.355e-30)
(-0.64188 0.0928533 1.25332e-31)
(-0.578215 0.0829695 0)
(-0.543235 0.0777771 0)
(-0.4758 0.0681092 1.05037e-26)
(-0.430995 0.0640476 -1.75367e-26)
(-0.384971 0.0544397 -7.03347e-30)
(-0.30526 0.0421712 -5.8424e-27)
(-0.266311 0.0366135 9.19469e-27)
(-0.191763 0.0258718 -3.75266e-30)
(-0.127694 0.016108 3.08763e-26)
(-0.0399177 0.00263315 0)
(0.00666006 -0.00408904 0)
(0.0961939 -0.0172069 0)
(0.163049 -0.0269494 -1.50521e-26)
(0.238401 -0.0381513 1.28599e-26)
(0.320156 -0.0503375 -6.15436e-27)
(0.361816 -0.0565012 0)
(0.440212 -0.0672723 2.69615e-26)
(0.482084 -0.0730872 0)
(0.523979 -0.0788772 -1.79084e-29)
(0.550877 -0.0825382 -1.85597e-26)
(0.556247 -0.0831962 1.90085e-26)
(0.576336 -0.0814331 0)
(0.577702 -0.0678751 -2.95637e-29)
(0.597828 -0.0695411 -2.25153e-29)
(0.58949 -0.0681677 -4.83876e-25)
(0.586704 -0.0678441 -4.80736e-25)
(0.579712 -0.0668146 -4.3497e-29)
(0.552726 -0.0634081 2.35883e-29)
(0.53228 -0.0608 4.40221e-25)
(0.49646 -0.0493207 -3.11269e-29)
(0.491138 -0.0479626 -6.19271e-25)
(0.472697 -0.04596 0)
(0.442274 -0.0429764 1.03227e-24)
(0.413769 -0.0402017 -1.45324e-29)
(0.405926 -0.0395516 3.8383e-25)
(0.393717 -0.0382033 0)
(0.358201 -0.0349497 1.82895e-25)
(0.373213 -0.0366522 0)
(0.362439 -0.0359385 3.85749e-25)
(0.368231 -0.0367894 -1.89112e-25)
(0.405532 -0.0406992 0)
(0.413527 -0.0419622 3.39608e-29)
(0.498139 -0.0511838 5.64834e-26)
(0.534608 -0.0546553 0)
(0.629625 -0.0643493 -3.56744e-26)
(0.725138 -0.0744472 -3.59745e-26)
(0.889998 -0.0918211 0)
(0.976098 -0.100074 -6.12018e-26)
(1.15225 -0.117407 4.10524e-26)
(1.37675 -0.140766 -1.44941e-26)
(1.49833 -0.152583 -1.82803e-26)
(1.72757 -0.174104 1.52475e-25)
(1.96436 -0.198074 -1.01118e-26)
(2.06637 -0.207242 -7.0057e-27)
(2.20934 -0.217401 4.98378e-26)
(2.19766 -0.214186 -4.01231e-26)
(2.12408 -0.206764 3.19461e-27)
(2.10314 -0.204668 1.02162e-26)
(1.97906 -0.189947 -1.06641e-29)
(1.78846 -0.17081 -1.38425e-30)
(1.70916 -0.164718 -1.05996e-26)
(1.58882 -0.154546 5.93414e-30)
(1.51037 -0.145699 -1.83954e-26)
(1.45245 -0.140506 5.55794e-29)
(1.38515 -0.135848 6.7286e-30)
(1.3123 -0.126728 -5.28883e-27)
(1.2691 -0.122531 0)
(1.17412 -0.114615 3.31677e-26)
(1.10195 -0.106536 4.29153e-27)
(1.07239 -0.103587 -2.7418e-27)
(0.987199 -0.0966356 0)
(0.979743 -0.0963276 1.32186e-26)
(0.97455 -0.0957493 -2.66414e-29)
(1.00923 -0.101383 1.7433e-26)
(1.06416 -0.106914 9.86063e-27)
(1.14886 -0.117507 1.70943e-29)
(1.49224 -0.154771 -1.5652e-29)
(1.5777 -0.162138 1.91688e-27)
(1.8864 -0.189002 1.66721e-29)
(2.02198 -0.201751 -1.5643e-27)
(2.04908 -0.203524 -1.41957e-26)
(2.09251 -0.20091 -9.08807e-26)
(1.84576 -0.176224 -3.45705e-26)
(1.81788 -0.17486 1.90264e-26)
(1.59669 -0.15337 1.70337e-26)
(1.49786 -0.144674 1.71989e-28)
(1.46724 -0.142663 1.88824e-26)
(1.4539 -0.144748 2.04398e-29)
(1.42925 -0.138843 -5.83626e-27)
(1.39766 -0.135183 5.60901e-27)
(1.31815 -0.12912 7.45716e-30)
(1.23659 -0.12005 2.87178e-26)
(1.14826 -0.110947 -5.57683e-27)
(1.12544 -0.108664 2.1506e-27)
(1.02495 -0.100331 1.89018e-26)
(1.08634 -0.108532 -9.11301e-34)
(1.11377 -0.111398 9.40506e-27)
(1.20248 -0.121969 2.37024e-29)
(1.39437 -0.141777 1.94765e-26)
(1.61195 -0.164449 -2.20751e-34)
(1.68307 -0.169918 8.25844e-30)
(1.83835 -0.180757 6.81047e-26)
(1.82485 -0.179728 0)
(1.83449 -0.180908 -3.87794e-30)
(1.82801 -0.176595 -3.76097e-30)
(1.67484 -0.160824 5.05661e-30)
(1.64664 -0.159991 -4.46834e-29)
(1.56509 -0.153361 0)
(1.5708 -0.155041 -1.81688e-30)
(1.52425 -0.148 -1.01102e-34)
(1.49919 -0.14531 2.8595e-30)
(1.4292 -0.139731 4.31502e-26)
(1.3497 -0.131776 0)
(1.34552 -0.130912 0)
(1.32032 -0.129984 0)
(-0.47334 0.0948501 5.31187e-28)
(-0.478111 0.0954918 0)
(-0.504154 0.0658955 2.11301e-25)
(-0.549759 0.0804641 -1.22808e-25)
(-0.57178 0.0852874 0)
(-0.621247 0.0876972 6.01526e-26)
(-0.664531 0.0972693 5.37771e-26)
(-0.710328 0.106938 2.21613e-27)
(-0.741852 0.111955 0)
(-0.78634 0.118159 1.56526e-28)
(-0.811233 0.122024 1.04573e-27)
(-0.844742 0.126539 -3.5769e-28)
(-0.865285 0.129428 -2.3553e-27)
(-0.881361 0.131151 -2.38448e-27)
(-0.877366 0.129665 -7.75317e-28)
(-0.874158 0.129164 -2.82711e-27)
(-0.861668 0.126922 0)
(-0.843476 0.124066 1.00318e-26)
(-0.819557 0.119718 5.82036e-27)
(-0.769973 0.111735 0)
(-0.741273 0.107493 0)
(-0.688145 0.099882 0)
(-0.642351 0.0928274 7.98955e-27)
(-0.578601 0.0829104 0)
(-0.5436 0.0777102 0)
(-0.475686 0.0680128 1.03136e-26)
(-0.431561 0.0563538 5.81897e-26)
(-0.384681 0.0543124 -6.87148e-30)
(-0.305264 0.0420683 -7.21282e-35)
(-0.266266 0.0365461 8.63537e-27)
(-0.191591 0.0258121 0)
(-0.127405 0.0159925 1.58749e-26)
(-0.0396193 0.00250381 7.78728e-27)
(0.00697672 -0.00420115 9.85245e-27)
(0.0966528 -0.0173266 -1.58037e-26)
(0.164113 -0.0272009 4.46892e-30)
(0.23903 -0.038318 1.3062e-26)
(0.320788 -0.0505037 -1.64111e-34)
(0.362477 -0.0566723 9.32022e-27)
(0.440999 -0.0673774 2.91828e-26)
(0.484472 -0.0734526 -2.9818e-26)
(0.524803 -0.0789559 2.86766e-26)
(0.551697 -0.0825928 -2.00785e-26)
(0.55711 -0.0832357 -2.11851e-26)
(0.577452 -0.0814238 0)
(0.57916 -0.067731 -4.75426e-25)
(0.598742 -0.0693373 0)
(0.590371 -0.0679677 -4.86513e-25)
(0.587564 -0.0676454 4.83309e-25)
(0.580604 -0.0665187 -4.83327e-25)
(0.554068 -0.0631216 0)
(0.533261 -0.0604534 4.48535e-25)
(0.497305 -0.0489633 -6.15848e-25)
(0.491919 -0.0476061 -1.24789e-24)
(0.473458 -0.0455836 0)
(0.44364 -0.0426705 5.26269e-25)
(0.414472 -0.039969 -2.18353e-25)
(0.40662 -0.0394026 1.96236e-25)
(0.394427 -0.0380092 0)
(0.358946 -0.0347974 1.87461e-25)
(0.373978 -0.0365638 0)
(0.363162 -0.0358192 1.9636e-25)
(0.368935 -0.0367007 2.6389e-29)
(0.406356 -0.0405916 2.20023e-25)
(0.414363 -0.0418714 0)
(0.498951 -0.0512336 5.70165e-26)
(0.535451 -0.054694 -4.45574e-26)
(0.630946 -0.0644539 -2.74061e-29)
(0.726228 -0.0745712 5.3847e-29)
(0.891145 -0.0920388 0)
(0.977317 -0.100247 -2.95546e-26)
(1.15392 -0.117639 1.05594e-33)
(1.37823 -0.141104 -9.86409e-27)
(1.49985 -0.152895 -2.11331e-29)
(1.73035 -0.174484 5.57036e-29)
(1.96607 -0.19853 -4.86546e-26)
(2.06812 -0.207566 -5.49908e-29)
(2.21138 -0.217448 1.04627e-25)
(2.19962 -0.214071 0)
(2.12589 -0.206837 -2.13737e-27)
(2.10503 -0.204741 2.87323e-30)
(1.98094 -0.189748 2.34573e-26)
(1.79003 -0.170495 0)
(1.71068 -0.164711 -6.54187e-27)
(1.59035 -0.154699 2.48681e-26)
(1.5116 -0.145559 3.01341e-30)
(1.45364 -0.140412 1.41743e-26)
(1.38636 -0.136049 -1.34469e-29)
(1.31331 -0.126669 -1.88089e-26)
(1.27011 -0.122443 0)
(1.17508 -0.114741 -9.67604e-32)
(1.1028 -0.106522 -1.73368e-27)
(1.07322 -0.10355 1.18917e-29)
(0.987977 -0.0967489 0)
(0.980475 -0.0964471 1.81885e-29)
(0.975254 -0.0958657 -1.82605e-26)
(1.00993 -0.101672 0)
(1.06478 -0.107225 1.58509e-26)
(1.14962 -0.118009 -8.32908e-27)
(1.49311 -0.155557 -4.26509e-26)
(1.57862 -0.162738 1.46539e-26)
(1.89442 -0.18995 6.30111e-26)
(2.02345 -0.202143 -4.85285e-27)
(2.05075 -0.203701 -1.37096e-26)
(2.09453 -0.200301 0)
(1.84742 -0.175881 4.67908e-26)
(1.81952 -0.174762 2.91571e-27)
(1.59816 -0.1533 0)
(1.49909 -0.144619 -4.90638e-29)
(1.46835 -0.142766 -1.84046e-26)