/*--------------------------------*- C++ -*----------------------------------*\
| =========                 |                                                 |
| \\      /  F ield         | OpenFOAM: The Open Source CFD Toolbox           |
|  \\    /   O peration     | Version:  v2012                                 |
|   \\  /    A nd           | Website:  www.openfoam.com                      |
|    \\/     M anipulation  |                                                 |
\*---------------------------------------------------------------------------*/
FoamFile
{
    version     2.0;
    format      ascii;
    class       volSymmTensorField;
    location    "1e-06";
    object      UPrime2Mean;
}
// * * * * * * * * * * * * * * * * * * * * * * * * * * * * * * * * * * * * * //

dimensions      [0 2 -2 0 0 0 0];


internalField   nonuniform List<symmTensor> 
10178
(
(0.00024702 -4.93189e-05 -7.31967e-31 9.84704e-06 1.47061e-31 5.34559e-57)
(0.000918688 -0.000186934 -2.45893e-30 3.80449e-05 5.06248e-31 1.13162e-56)
(0.000303025 -0.000107849 0 0.000994496 0 0)
(0.00168177 -0.000362968 0 9.40614e-05 0 0)
(0.00332299 -0.00057904 -1.19981e-26 0.000108009 1.77965e-27 5.80932e-50)
(0.00135228 -0.000315021 -1.84266e-30 8.44411e-05 7.21924e-31 1.125e-56)
(0.00153548 -9.38164e-05 0 1.59539e-05 0 0)
(0.0011831 -0.000172604 6.96657e-31 2.51863e-05 -1.01122e-31 3.20479e-57)
(0.000684455 -0.000101032 5.61949e-29 1.49138e-05 -8.2783e-30 7.04732e-54)
(0.000678573 -8.70589e-05 -2.0887e-27 1.17139e-05 2.11736e-28 1.90424e-50)
(0.000775896 -0.00011473 -6.367e-31 1.6965e-05 9.40279e-32 1.96704e-57)
(0.000664861 -9.83303e-05 -3.50308e-30 1.45427e-05 5.18397e-31 1.68266e-55)
(0.000637415 -9.43141e-05 3.10469e-30 1.3955e-05 -4.58902e-31 1.03864e-55)
(0.000567275 -8.39888e-05 -1.06534e-29 1.24351e-05 1.58068e-30 9.82883e-55)
(0.000501351 -7.41852e-05 0 1.09772e-05 0 0)
(0.000443255 -6.54802e-05 0 9.67317e-06 0 0)
(0.000384129 -5.6714e-05 1.0168e-29 8.37351e-06 -1.485e-30 3.45815e-54)
(0.000422806 -6.32019e-05 -3.70228e-31 9.45174e-06 5.60325e-32 1.11541e-57)
(0.000517717 -7.6366e-05 -5.50279e-31 1.12644e-05 8.09616e-32 1.75864e-57)
(0.000385265 -5.68167e-05 1.94698e-30 8.37903e-06 -2.92985e-31 1.08131e-54)
(0.000319727 -4.70686e-05 -2.06658e-29 6.92927e-06 3.03826e-30 1.77208e-54)
(0.000247911 -3.65296e-05 3.16151e-29 5.38264e-06 -4.65281e-30 1.38095e-53)
(0.000162988 -2.40106e-05 -1.38091e-31 3.53713e-06 2.03195e-32 4.30859e-58)
(0.000111507 -1.64185e-05 -1.05404e-36 2.41757e-06 1.54967e-37 3.82804e-68)
(8.8256e-05 -1.29864e-05 -1.16107e-29 1.91122e-06 1.71355e-30 1.65937e-54)
(0.000124868 -1.89356e-05 -4.07115e-31 2.8741e-06 6.20961e-32 1.55992e-57)
(7.96727e-05 -1.37127e-05 -3.06391e-32 2.37763e-06 5.8328e-33 1.15865e-58)
(0.000421713 -6.12422e-05 0 8.89386e-06 0 0)
(0.000142298 -2.09067e-05 -1.40632e-29 3.07167e-06 2.065e-30 1.84946e-54)
(0.000115872 -1.70651e-05 0 2.51328e-06 0 0)
(8.49184e-05 -1.249e-05 0 1.83712e-06 0 0)
(4.52186e-05 -6.65641e-06 -2.98853e-29 9.79941e-07 4.37358e-30 3.07985e-53)
(3.68146e-05 -5.44082e-06 0 8.0415e-07 0 0)
(3.77539e-05 -5.5397e-06 0 8.12923e-07 0 0)
(3.01961e-05 -4.50074e-06 1.68151e-29 6.70902e-07 -2.49925e-30 2.63492e-53)
(3.05179e-05 -4.54108e-06 2.42258e-32 6.75794e-07 -3.62828e-33 5.06398e-59)
(4.26829e-05 -6.36285e-06 1.39184e-30 9.48581e-07 -2.34949e-31 1.68316e-53)
(5.52773e-05 -8.23121e-06 -6.26734e-32 1.22572e-06 9.29565e-33 3.2768e-58)
(4.61491e-05 -6.87041e-06 4.53536e-37 1.02285e-06 -6.80509e-38 1.9064e-68)
(6.51919e-05 -9.6981e-06 -1.59984e-29 1.44272e-06 2.39091e-30 2.78278e-53)
(0.000103056 -1.53631e-05 7.81047e-29 2.29026e-06 -1.16865e-29 2.97581e-52)
(0.000125564 -1.87276e-05 4.84321e-29 2.79321e-06 -7.25294e-30 7.65915e-53)
(0.000138298 -2.05607e-05 -3.03984e-29 3.05675e-06 4.52417e-30 2.68396e-53)
(0.00013316 -1.97711e-05 -3.98822e-37 2.93556e-06 5.92504e-38 1.85467e-68)
(0.000166229 -2.63801e-05 8.37552e-32 4.20143e-06 -1.47849e-32 2.44209e-58)
(0.00018765 -3.65913e-05 1.85229e-31 7.39777e-06 -4.62588e-32 7.03991e-58)
(0.000173186 -3.47036e-05 4.32677e-27 7.16888e-06 -1.00589e-27 2.0472e-49)
(0.000168758 -3.38439e-05 8.82617e-27 6.94538e-06 -1.98721e-27 7.94542e-49)
(0.000158357 -3.22595e-05 0 6.695e-06 0 0)
(0.00013948 -2.95687e-05 4.31537e-27 6.375e-06 -9.85428e-28 1.97319e-49)
(0.000115239 -2.55288e-05 3.96081e-27 5.74529e-06 -9.27418e-28 1.86207e-49)
(9.30707e-05 -2.15342e-05 3.62945e-27 5.06253e-06 -8.72092e-28 1.79677e-49)
(6.62613e-05 -1.89528e-05 -1.85139e-35 5.63544e-06 5.51306e-36 6.13895e-66)
(4.79369e-05 -1.49277e-05 -3.90837e-27 5.0097e-06 1.26871e-27 3.5952e-49)
(3.38891e-05 -1.11112e-05 3.14936e-27 4.30346e-06 -1.14105e-27 3.30623e-49)
(2.16615e-05 -6.39696e-06 8.31958e-32 3.35278e-06 -4.66773e-32 7.0151e-58)
(1.96247e-05 -2.79423e-06 5.78701e-28 6.78872e-07 -1.65613e-28 4.28858e-50)
(2.01027e-05 -2.43299e-06 -5.3766e-32 5.28034e-07 1.65371e-32 5.93786e-58)
(2.26054e-05 -2.08752e-06 -4.41474e-32 4.33081e-07 1.83131e-32 9.59347e-58)
(2.75015e-05 -2.06391e-06 9.38963e-29 3.66664e-07 -8.57811e-29 3.01757e-50)
(2.6175e-05 -2.00067e-06 0 4.10674e-07 0 0)
(3.04166e-05 -2.14689e-06 4.86737e-29 3.73694e-07 -8.80109e-29 3.29145e-50)
(3.38787e-05 -2.30659e-06 -1.63711e-32 3.73356e-07 3.7372e-32 6.30794e-57)
(2.98867e-05 -2.19338e-06 -2.55732e-28 4.67017e-07 2.43068e-28 1.70069e-49)
(2.42733e-05 -2.49847e-06 -3.77583e-28 5.63998e-07 1.41751e-28 4.12876e-50)
(2.33613e-05 -2.42317e-06 1.20125e-28 2.63279e-07 -1.69826e-29 2.34737e-51)
(2.61978e-05 -2.55293e-06 -4.95231e-29 2.50264e-07 5.67063e-30 6.0624e-52)
(2.37401e-05 -2.33448e-06 -4.16593e-29 2.29665e-07 4.19611e-30 1.81479e-52)
(3.54087e-05 -3.5278e-06 2.79506e-31 3.51552e-07 -2.79439e-32 2.44612e-57)
(3.36712e-05 -3.32627e-06 5.15548e-29 3.28601e-07 -5.09614e-30 8.48367e-53)
(2.03448e-05 -1.99738e-06 3.52466e-29 1.96123e-07 -3.5046e-30 1.40009e-52)
(2.81392e-05 -2.80473e-06 -9.59703e-29 2.79617e-07 9.57205e-30 3.41481e-52)
(3.35669e-05 -3.30018e-06 0 3.24463e-07 0 0)
(1.52814e-05 -1.504e-06 -6.65993e-30 1.48036e-07 6.1225e-31 1.96444e-52)
(3.34064e-06 -3.24621e-07 -1.03363e-31 3.15511e-08 1.02176e-32 1.29098e-56)
(2.33957e-06 -2.30727e-07 0 2.27581e-08 0 0)
(4.04072e-05 -3.99496e-06 9.66667e-30 3.94975e-07 -9.59208e-31 7.38834e-54)
(3.54642e-05 -3.51468e-06 2.49291e-31 3.48324e-07 -2.4713e-32 2.93156e-57)
(1.2273e-05 -1.20238e-06 7.6574e-32 1.17799e-07 -7.51135e-33 5.98617e-58)
(1.3734e-05 -1.36332e-06 -1.26425e-29 1.35334e-07 1.25441e-30 1.46524e-53)
(1.63208e-05 -1.66722e-06 -3.92126e-29 1.70335e-07 3.99751e-30 1.1398e-52)
(4.27164e-05 -4.2273e-06 -5.85438e-33 4.18343e-07 5.81332e-34 1.37736e-59)
(3.03675e-05 -2.99037e-06 0 2.9447e-07 0 0)
(5.26704e-06 -5.36326e-07 0 5.46937e-08 0 0)
(2.72925e-05 -2.69847e-06 -1.05839e-31 2.66805e-07 1.04499e-32 7.03484e-58)
(4.68105e-05 -4.59256e-06 -1.4622e-29 4.50575e-07 1.43515e-30 7.29809e-54)
(3.67169e-06 -3.68503e-07 0 3.70072e-08 0 0)
(1.69793e-05 -1.67417e-06 -8.68688e-32 1.65075e-07 8.56286e-33 6.961e-58)
(4.46143e-05 -4.37593e-06 3.9494e-30 4.29208e-07 -3.8759e-31 5.9188e-55)
(4.20035e-06 -4.2007e-07 0 4.20165e-08 0 0)
(1.45126e-05 -1.40487e-06 3.14276e-29 1.36003e-07 -3.0552e-30 9.28555e-53)
(3.70476e-05 -3.63288e-06 0 3.5624e-07 0 0)
(7.52751e-06 -7.4724e-07 -1.02616e-32 7.41776e-08 1.01864e-33 1.4314e-59)
(1.09882e-05 -1.0665e-06 -1.93922e-29 1.0352e-07 1.88835e-30 4.43018e-53)
(2.86407e-05 -2.81437e-06 0 2.76554e-07 0 0)
(1.09009e-05 -1.0787e-06 6.56054e-32 1.06743e-07 -6.48792e-33 4.7584e-58)
(1.38812e-05 -1.3585e-06 1.83288e-31 1.32952e-07 -1.79489e-32 3.03097e-57)
(5.72733e-05 -5.6325e-06 3.87977e-31 5.53923e-07 -3.81546e-32 4.19823e-57)
(7.54492e-06 -7.31805e-07 1.7001e-36 7.09833e-08 -1.6512e-37 4.29486e-67)
(3.54834e-06 -3.37015e-07 -4.67978e-32 3.20731e-08 4.39124e-33 7.1132e-58)
(0.000105876 -1.03804e-05 -5.46159e-29 1.01773e-06 5.35463e-30 4.99099e-53)
(1.80247e-05 -1.67608e-06 -4.63181e-32 1.5586e-07 4.31813e-33 1.82775e-58)
(5.32907e-06 -5.31084e-07 0 5.29539e-08 0 0)
(4.04544e-05 -3.98238e-06 0 3.92031e-07 0 0)
(3.39018e-05 -3.31554e-06 1.6927e-28 3.24256e-07 -1.65766e-29 1.26227e-51)
(3.35463e-06 -3.34372e-07 -5.8637e-30 3.33421e-08 5.8628e-31 1.11573e-53)
(2.49109e-06 -2.55479e-07 -3.34856e-36 2.64196e-08 3.5703e-37 5.70975e-66)
(2.8843e-05 -2.85813e-06 7.16582e-36 2.8322e-07 -7.09415e-37 2.71165e-66)
(4.72401e-05 -4.63919e-06 -5.68141e-36 4.5559e-07 5.58355e-37 1.16974e-66)
(2.66802e-06 -2.68504e-07 -1.10524e-29 2.72458e-08 1.21591e-30 9.77112e-53)
(1.63231e-05 -1.61532e-06 7.22049e-29 1.59853e-07 -7.13284e-30 4.19454e-52)
(6.27355e-05 -6.14476e-06 0 6.01863e-07 0 0)
(2.85449e-06 -2.83904e-07 6.84411e-33 2.82417e-08 -6.8577e-34 2.17258e-59)
(3.38351e-06 -3.42416e-07 3.3101e-32 3.4682e-08 -3.36409e-33 3.40603e-58)
(3.99753e-05 -3.91203e-06 -5.11423e-29 3.82839e-07 5.01358e-30 1.00641e-52)
(3.07128e-05 -3.00974e-06 2.5931e-31 2.94945e-07 -2.5433e-32 3.14006e-57)
(9.16128e-06 -9.13793e-07 0 9.11476e-08 0 0)
(8.62799e-06 -8.53211e-07 0 8.43738e-08 0 0)
(1.78654e-05 -1.74517e-06 5.63031e-31 1.70476e-07 -5.50293e-32 1.96272e-56)
(3.55792e-05 -3.50382e-06 -1.74212e-31 3.45055e-07 1.71489e-32 1.23052e-57)
(3.95737e-05 -3.86245e-06 1.45942e-31 3.76981e-07 -1.42506e-32 7.98951e-58)
(2.52546e-06 -2.35868e-07 2.03499e-32 2.2264e-08 -1.80459e-33 2.07573e-58)
(2.63836e-06 -2.57865e-07 1.00448e-32 2.52065e-08 -9.7484e-34 5.30266e-59)
(6.07473e-05 -5.96354e-06 4.59019e-32 5.85439e-07 -4.50607e-33 5.01944e-59)
(1.58768e-05 -1.5216e-06 0 1.45832e-07 0 0)
(2.76963e-06 -2.6996e-07 -1.13057e-31 2.6332e-08 1.07614e-32 8.5641e-57)
(1.98362e-05 -1.97865e-06 0 1.97373e-07 0 0)
(2.50429e-05 -2.47123e-06 -4.06558e-31 2.4386e-07 4.01268e-32 9.60616e-57)
(8.60392e-06 -8.44014e-07 -3.21648e-31 8.27952e-08 3.15713e-32 1.33442e-56)
(3.63999e-06 -3.64797e-07 -1.9494e-31 3.65834e-08 1.96031e-32 1.08783e-56)
(5.5173e-06 -5.72005e-07 7.19681e-33 5.93403e-08 -7.43422e-34 9.94658e-60)
(3.44047e-05 -3.39443e-06 8.24223e-29 3.34901e-07 -8.12575e-30 2.79789e-52)
(4.09257e-05 -4.02471e-06 6.44418e-31 3.95797e-07 -6.33879e-32 1.42233e-56)
(3.51541e-06 -3.54677e-07 1.16589e-29 3.58167e-08 -1.19136e-30 4.66297e-53)
(7.49015e-06 -7.64025e-07 -2.71064e-32 7.79425e-08 2.76009e-33 1.0241e-58)
(4.04255e-05 -3.91516e-06 1.64032e-29 3.79185e-07 -1.59383e-30 1.02584e-53)
(1.28141e-05 -1.26961e-06 -1.66136e-30 1.25793e-07 1.64426e-31 2.3708e-55)
(9.4058e-06 -9.46427e-07 0 9.52474e-08 0 0)
(0.000250421 -5.07619e-05 -3.03038e-29 1.02925e-05 6.53552e-30 5.98649e-53)
(0.000884347 -0.000188241 3.35485e-28 4.01346e-05 -7.99396e-29 1.26762e-51)
(0.000300026 -2.95297e-05 -5.31761e-26 0.00407559 -2.39661e-25 2.41531e-47)
(0.00164588 -0.000522156 2.13934e-30 0.000197837 -3.09485e-31 8.39159e-57)
(0.00327965 -0.000701118 -2.27467e-26 0.000160205 4.01336e-27 2.365e-49)
(0.00133176 -0.000414446 -1.86478e-26 0.000178938 1.33356e-26 2.09677e-48)
(0.00154857 6.36201e-05 0 4.62099e-05 0 0)
(0.00117128 -0.00016563 -5.46176e-28 2.34659e-05 7.52609e-29 5.40688e-52)
(0.000668124 -9.7596e-05 0 1.42626e-05 0 0)
(0.000667124 -7.1077e-05 -4.03752e-27 9.58737e-06 2.19058e-28 7.32287e-50)
(0.000764542 -0.000112668 -6.36903e-31 1.66045e-05 9.3553e-32 1.96374e-57)
(0.000650828 -9.6139e-05 -9.45872e-30 1.42015e-05 1.39664e-30 2.97107e-55)
(0.000620457 -9.16056e-05 0 1.35249e-05 0 0)
(0.00055323 -8.15567e-05 -1.18743e-29 1.20231e-05 1.7399e-30 2.65074e-54)
(0.000490675 -7.2234e-05 0 1.06341e-05 0 0)
(0.000433411 -6.37439e-05 0 9.37558e-06 0 0)
(0.000373857 -5.49179e-05 1.46454e-29 8.06772e-06 -2.06812e-30 1.71649e-53)
(0.000408297 -6.21228e-05 0 9.49052e-06 0 0)
(0.000503705 -7.34956e-05 0 1.07242e-05 0 0)
(0.000375886 -5.48839e-05 -3.66571e-31 8.0141e-06 5.31571e-32 1.15457e-57)
(0.000310178 -4.52365e-05 -3.60729e-29 6.5977e-06 5.26476e-30 5.88243e-54)
(0.00023882 -3.49272e-05 0 5.10812e-06 0 0)
(0.000157019 -2.28529e-05 0 3.32631e-06 0 0)
(0.000108075 -1.56901e-05 1.71152e-29 2.27875e-06 -2.52477e-30 5.93551e-54)
(8.59609e-05 -1.24821e-05 -3.22742e-29 1.81554e-06 4.79438e-30 1.67684e-53)
(0.000124284 -1.97713e-05 1.87203e-28 3.16661e-06 -2.89671e-29 3.20015e-52)
(7.64977e-05 -1.51034e-05 0 3.00753e-06 0 0)
(0.000416921 -5.80776e-05 6.0672e-29 8.09156e-06 -8.06249e-30 2.68545e-52)
(0.000140635 -2.03059e-05 0 2.93215e-06 0 0)
(0.000114469 -1.66714e-05 -4.13642e-32 2.42825e-06 6.13826e-33 1.78634e-58)
(8.39807e-05 -1.22262e-05 -3.34091e-32 1.7802e-06 4.98137e-33 1.43972e-58)
(4.50235e-05 -6.55821e-06 -7.44464e-29 9.55759e-07 1.06802e-29 1.93715e-52)
(3.67502e-05 -5.3988e-06 3.07815e-29 7.93674e-07 -4.40885e-30 5.3136e-53)
(3.77181e-05 -5.40216e-06 9.50809e-33 7.74485e-07 -1.24123e-33 7.77057e-59)
(3.00525e-05 -4.50175e-06 0 6.74907e-07 0 0)
(2.99238e-05 -4.46497e-06 0 6.6676e-07 0 0)
(4.14059e-05 -6.2299e-06 3.66716e-30 9.37917e-07 -7.78932e-31 1.08744e-52)
(5.3497e-05 -8.05433e-06 9.28571e-30 1.21307e-06 -1.45849e-30 1.09737e-53)
(4.42464e-05 -6.67653e-06 0 1.00784e-06 0 0)
(6.20586e-05 -9.33415e-06 -4.83359e-29 1.40411e-06 7.42873e-30 2.6813e-52)
(9.83865e-05 -1.47613e-05 9.9158e-29 2.2148e-06 -1.50238e-29 5.02967e-52)
(0.000120815 -1.81071e-05 1.19324e-28 2.71389e-06 -1.80297e-29 5.00524e-52)
(0.00013399 -2.00041e-05 1.08175e-31 2.98656e-06 -1.61885e-32 2.76883e-57)
(0.000128432 -1.91684e-05 -7.77531e-29 2.86096e-06 1.16694e-29 1.56168e-52)
(0.000160613 -2.37127e-05 -8.00849e-32 3.51657e-06 1.32405e-32 2.36827e-58)
(0.000182654 -2.68223e-05 4.10886e-27 4.21251e-06 -7.98594e-28 2.35813e-49)
(0.00016925 -2.52098e-05 0 4.01709e-06 0 0)
(0.000165567 -2.4963e-05 1.78982e-26 3.98827e-06 -3.35207e-27 3.89382e-48)
(0.00015545 -2.38854e-05 9.02786e-32 3.86702e-06 -1.54584e-32 1.05945e-58)
(0.000136346 -2.15681e-05 8.82574e-27 3.58575e-06 -1.65129e-27 9.60006e-49)
(0.00011204 -1.83401e-05 -1.33756e-31 3.13831e-06 2.41078e-32 2.39299e-58)
(9.06675e-05 -1.55284e-05 7.47892e-27 2.76255e-06 -1.4352e-27 8.62192e-49)
(6.50486e-05 -1.28079e-05 -9.23453e-27 2.66116e-06 2.03312e-27 1.66582e-48)
(4.73009e-05 -1.03475e-05 0 2.35345e-06 0 0)
(3.33079e-05 -7.89391e-06 6.8019e-27 1.92171e-06 -1.70903e-27 1.58982e-48)
(2.17301e-05 -5.26034e-06 -4.26644e-27 1.40001e-06 1.23091e-27 1.15819e-48)
(1.96742e-05 -2.89629e-06 1.3317e-27 4.72292e-07 -2.67075e-28 2.02382e-49)
(2.01984e-05 -2.72131e-06 5.24695e-36 4.10172e-07 -1.0795e-36 4.57232e-66)
(2.28798e-05 -2.73277e-06 -4.21077e-32 3.8706e-07 1.22702e-32 9.46258e-58)
(2.8081e-05 -3.04828e-06 6.83861e-28 3.91401e-07 -2.5677e-28 5.75833e-49)
(2.66647e-05 -2.99471e-06 -4.4689e-28 4.06584e-07 1.55406e-28 1.67453e-49)
(3.08742e-05 -3.26146e-06 2.62438e-28 4.15896e-07 -1.32119e-28 1.57399e-49)
(3.44355e-05 -3.51097e-06 -3.17079e-28 4.33683e-07 2.48806e-28 6.31723e-49)
(3.05012e-05 -3.31495e-06 -4.4637e-28 4.56343e-07 1.84133e-28 2.00955e-49)
(2.46149e-05 -3.04704e-06 1.83967e-31 4.61966e-07 -4.79611e-32 8.9561e-57)
(2.35644e-05 -2.50324e-06 5.4618e-28 2.68961e-07 -6.74308e-29 4.19715e-50)
(2.68808e-05 -2.62077e-06 -2.24945e-28 2.57095e-07 2.57808e-29 1.2055e-50)
(2.41442e-05 -2.3709e-06 0 2.33152e-07 0 0)
(3.39368e-05 -3.41254e-06 2.15452e-28 3.434e-07 -2.17576e-29 1.50181e-51)
(3.24877e-05 -3.24469e-06 2.20179e-31 3.24196e-07 -2.2116e-32 1.6698e-57)
(2.09284e-05 -2.04591e-06 -8.50188e-29 2.00154e-07 8.60331e-30 9.32229e-52)
(2.58091e-05 -2.59158e-06 2.27714e-28 2.60446e-07 -2.29362e-29 2.11249e-51)
(3.06696e-05 -3.02576e-06 -5.48365e-32 2.98545e-07 5.41998e-33 1.3065e-58)
(1.7919e-05 -1.73586e-06 -4.73328e-30 1.68169e-07 4.0921e-31 3.8886e-52)
(4.37961e-06 -4.13104e-07 7.08089e-32 3.89978e-08 -7.05982e-33 1.40495e-56)
(1.57591e-06 -1.54214e-07 0 1.51265e-08 0 0)
(4.64631e-05 -4.55547e-06 -3.12453e-29 4.46666e-07 3.09547e-30 6.5805e-53)
(4.28574e-05 -4.19119e-06 0 4.09877e-07 0 0)
(1.57884e-05 -1.55501e-06 0 1.53158e-07 0 0)
(1.61938e-05 -1.62068e-06 0 1.62205e-07 0 0)
(1.99429e-05 -2.03975e-06 -8.94142e-29 2.08643e-07 9.12528e-30 5.18963e-52)
(4.89847e-05 -4.87927e-06 -1.34798e-32 4.86018e-07 1.35062e-33 5.50309e-59)
(3.37904e-05 -3.3464e-06 5.90026e-32 3.3141e-07 -5.83357e-33 2.24898e-58)
(6.21511e-06 -6.41631e-07 0 6.63549e-08 0 0)
(3.10794e-05 -3.10501e-06 1.08834e-28 3.10221e-07 -1.08359e-29 5.65554e-52)
(5.03564e-05 -4.94671e-06 0 4.85935e-07 0 0)
(4.19651e-06 -4.21124e-07 6.90366e-32 4.22712e-08 -6.93143e-33 1.31582e-57)
(1.94647e-05 -1.96808e-06 -1.08511e-28 1.98996e-07 1.09535e-29 8.28455e-52)
(4.76284e-05 -4.69413e-06 -9.34286e-30 4.62641e-07 9.20752e-31 3.3466e-54)
(4.90035e-06 -4.92156e-07 4.43054e-32 4.9435e-08 -4.43919e-33 4.87959e-58)
(1.65067e-05 -1.67978e-06 2.19273e-32 1.70946e-07 -2.24573e-33 7.10159e-59)
(3.94835e-05 -3.90692e-06 4.85613e-32 3.86592e-07 -4.80485e-33 6.95985e-59)
(8.69212e-06 -8.71507e-07 2.19268e-32 8.73844e-08 -2.19768e-33 5.67499e-59)
(1.249e-05 -1.24936e-06 1.26993e-31 1.24972e-07 -1.27143e-32 1.52694e-57)
(3.06454e-05 -3.02414e-06 0 2.98427e-07 0 0)
(1.24261e-05 -1.22736e-06 -2.31623e-29 1.2123e-07 2.28709e-30 5.59881e-53)
(1.56586e-05 -1.52427e-06 -9.59564e-32 1.4838e-07 9.3522e-33 7.554e-58)
(6.08131e-05 -5.9419e-06 -6.67972e-36 5.80568e-07 6.5304e-37 1.1864e-66)
(8.92924e-06 -8.42324e-07 6.24158e-29 7.9489e-08 -5.92374e-30 5.25103e-52)
(4.17169e-06 -3.73822e-07 -2.61385e-32 3.38019e-08 2.31556e-33 1.77677e-58)
(0.000112938 -1.09315e-05 0 1.05809e-06 0 0)
(2.19911e-05 -2.02259e-06 -2.98384e-28 1.86028e-07 2.74902e-29 5.53108e-51)
(4.26141e-06 -4.21959e-07 1.45949e-32 4.181e-08 -1.23066e-33 1.93636e-57)
(4.51689e-05 -4.39558e-06 2.49145e-31 4.27755e-07 -2.42744e-32 2.32806e-57)
(3.92493e-05 -3.83048e-06 2.7974e-28 3.73832e-07 -2.73433e-29 3.08348e-51)
(3.82874e-06 -3.94796e-07 -1.37551e-31 4.0843e-08 1.42111e-32 5.27037e-57)
(2.80129e-06 -2.96968e-07 0 3.18002e-08 0 0)
(3.21599e-05 -3.20242e-06 0 3.18892e-07 0 0)
(5.02199e-05 -4.94512e-06 0 4.86943e-07 0 0)
(2.63849e-06 -2.72465e-07 -2.95944e-29 2.85645e-08 3.31674e-30 5.16559e-52)
(1.86764e-05 -1.85266e-06 -9.36218e-32 1.83786e-07 9.25263e-33 7.21545e-58)
(6.65276e-05 -6.55394e-06 2.74884e-32 6.45658e-07 -2.70847e-33 1.31794e-59)
(3.10017e-06 -3.11752e-07 7.51731e-33 3.13613e-08 -7.61923e-34 2.15201e-59)
(3.93501e-06 -4.12058e-07 7.20705e-32 4.32557e-08 -7.55379e-33 1.35434e-57)
(4.31074e-05 -4.33719e-06 7.80973e-36 4.36386e-07 -7.87494e-37 2.16597e-66)
(3.29048e-05 -3.24964e-06 -4.95574e-29 3.20931e-07 4.89455e-30 1.09785e-52)
(1.03924e-05 -1.04333e-06 0 1.04745e-07 0 0)
(9.88572e-06 -9.96244e-07 0 1.0041e-07 0 0)
(1.96509e-05 -1.90717e-06 -1.00407e-29 1.85101e-07 9.77339e-31 7.00721e-54)
(3.83112e-05 -3.73621e-06 5.73203e-30 3.64367e-07 -5.59403e-31 1.10271e-54)
(4.30359e-05 -4.14963e-06 0 4.0012e-07 0 0)
(2.75734e-06 -2.46667e-07 2.27286e-32 2.25029e-08 -1.94797e-33 2.07396e-58)
(2.76727e-06 -2.6329e-07 3.63086e-37 2.51597e-08 -3.35491e-38 5.74901e-68)
(6.58584e-05 -6.37646e-06 -1.53813e-36 6.17376e-07 1.49114e-37 5.26214e-68)
(1.87247e-05 -1.77983e-06 -6.80085e-33 1.69183e-07 6.50295e-34 5.08308e-60)
(2.70625e-06 -2.59615e-07 1.32294e-31 2.49156e-08 -1.25285e-32 9.32574e-57)
(2.22285e-05 -2.21676e-06 0 2.21072e-07 0 0)
(2.87457e-05 -2.8222e-06 -7.66682e-29 2.77081e-07 7.54376e-30 2.94909e-52)
(9.93261e-06 -9.87291e-07 -4.04585e-29 9.814e-08 4.0132e-30 1.83683e-52)
(3.98015e-06 -4.08919e-07 9.35645e-29 4.2118e-08 -9.65773e-30 2.2454e-51)
(6.3641e-06 -6.61585e-07 7.62367e-33 6.87798e-08 -7.9075e-34 9.93844e-60)
(3.76149e-05 -3.73767e-06 2.47505e-28 3.71406e-07 -2.45354e-29 2.3659e-51)
(4.36581e-05 -4.32953e-06 -5.89624e-31 4.29356e-07 5.8425e-32 1.13543e-56)
(3.77922e-06 -3.80671e-07 2.54623e-29 3.8348e-08 -2.56945e-30 1.86214e-52)
(8.70181e-06 -9.37055e-07 -1.09181e-28 1.00959e-07 1.16957e-29 1.45454e-51)
(4.33362e-05 -4.1843e-06 6.27278e-29 4.04033e-07 -6.08761e-30 1.35529e-52)
(1.41256e-05 -1.41043e-06 -8.119e-31 1.4084e-07 8.06009e-32 7.02231e-56)
(1.08456e-05 -1.10647e-06 0 1.12934e-07 0 0)
(0.000240642 -4.96943e-05 8.26261e-31 1.02705e-05 -1.76322e-31 7.02823e-57)
(0.000849895 -0.000188989 5.51204e-28 4.21898e-05 -1.44467e-28 3.3307e-51)
(0.000296161 1.39966e-05 -5.54749e-26 0.00412542 -2.44938e-25 2.46316e-47)
(0.00162787 -0.000569198 -5.34015e-28 0.000221214 3.27448e-29 1.93143e-51)
(0.00326956 -0.000770611 2.04159e-29 0.000186079 -4.17547e-30 2.45038e-55)
(0.00134519 -0.000399097 -8.68816e-27 0.000165514 6.05472e-27 4.69532e-49)
(0.00157428 8.24629e-05 -8.32972e-31 5.12229e-05 -9.25356e-32 2.80841e-57)
(0.00119499 -0.000163544 0 2.25119e-05 0 0)
(0.000686446 -9.90766e-05 1.60969e-28 1.43187e-05 -2.23641e-29 1.37752e-52)
(0.000685298 -7.3631e-05 -1.84246e-27 9.56875e-06 1.07938e-28 1.57593e-50)
(0.000781283 -0.000114404 -6.66969e-29 1.67528e-05 9.73581e-30 1.15675e-53)
(0.000667078 -9.84194e-05 6.30851e-36 1.45206e-05 -9.29226e-37 1.95225e-67)
(0.000637305 -9.3849e-05 -1.17321e-30 1.38202e-05 1.72564e-31 7.10205e-57)
(0.000568793 -8.33979e-05 3.38288e-30 1.22286e-05 -5.14528e-31 1.55397e-54)
(0.000503727 -7.3786e-05 -3.66483e-30 1.08092e-05 5.9559e-31 4.60457e-54)
(0.000445163 -6.51845e-05 4.92579e-31 9.54604e-06 -7.21872e-32 1.50054e-57)
(0.00038459 -5.62543e-05 1.1782e-29 8.22922e-06 -1.63815e-30 1.61015e-53)
(0.000422056 -6.5282e-05 3.68903e-31 1.01985e-05 -6.04964e-32 1.11013e-57)
(0.000518232 -7.48149e-05 2.38714e-29 1.08021e-05 -3.64823e-30 3.74581e-53)
(0.000386632 -5.59049e-05 -3.21265e-29 8.08468e-06 4.38724e-30 6.66556e-53)
(0.000320549 -4.63829e-05 1.96435e-31 6.71251e-06 -2.81437e-32 5.80216e-58)
(0.000247727 -3.60318e-05 1.40348e-31 5.24088e-06 -2.04348e-32 4.28263e-58)
(0.000163066 -2.34809e-05 4.74693e-29 3.38178e-06 -6.74168e-30 3.22971e-53)
(0.000112014 -1.60371e-05 1.34847e-29 2.29852e-06 -2.21088e-30 3.91801e-53)
(8.89082e-05 -1.27396e-05 -7.16444e-32 1.83362e-06 1.14502e-32 4.01606e-58)
(0.00012371 -2.05698e-05 3.70612e-28 3.47913e-06 -6.06855e-29 1.14377e-51)
(7.93667e-05 -9.15124e-06 0 1.33586e-06 0 0)
(0.000422043 -5.63026e-05 2.29662e-28 7.51472e-06 -2.93438e-29 9.61126e-52)
(0.000142214 -2.01934e-05 2.09422e-31 2.868e-06 -2.9754e-32 6.4709e-58)
(0.000115866 -1.67078e-05 0 2.40977e-06 0 0)
(8.46876e-05 -1.22525e-05 1.4935e-28 1.77319e-06 -2.15479e-29 3.0848e-52)
(4.5066e-05 -6.51306e-06 8.31217e-32 9.42224e-07 -1.19774e-32 2.77175e-58)
(3.67332e-05 -5.37417e-06 2.48409e-29 7.87716e-07 -3.47623e-30 3.56144e-53)
(3.75768e-05 -5.28119e-06 0 7.44301e-07 0 0)
(3.00419e-05 -4.5168e-06 0 6.80236e-07 0 0)
(3.05553e-05 -4.57433e-06 0 6.85834e-07 0 0)
(4.30226e-05 -6.52059e-06 6.69492e-30 9.89579e-07 -1.38182e-30 1.20614e-52)
(5.58896e-05 -8.49547e-06 0 1.2925e-06 0 0)
(4.64906e-05 -7.10424e-06 1.44526e-29 1.08672e-06 -2.20117e-30 6.94257e-54)
(6.55027e-05 -9.94276e-06 -5.68275e-32 1.5097e-06 8.85654e-33 1.87333e-58)
(0.000103346 -1.55616e-05 0 2.34344e-06 0 0)
(0.000126746 -1.90194e-05 0 2.85424e-06 0 0)
(0.000139996 -2.09614e-05 -1.18074e-31 3.1387e-06 1.77375e-32 3.01189e-57)
(0.000134589 -2.01338e-05 -1.19132e-28 3.0121e-06 1.79674e-29 3.35724e-52)
(0.000168865 -2.31183e-05 1.72261e-27 3.16522e-06 -2.37619e-28 6.53423e-50)
(0.000192978 -1.77068e-05 -1.07632e-31 1.62926e-06 9.88151e-33 2.32444e-58)
(0.000179173 -1.61664e-05 0 1.46384e-06 0 0)
(0.000174956 -1.58437e-05 -3.53089e-31 1.44152e-06 3.22868e-32 1.83139e-57)
(0.000164431 -1.4777e-05 -9.32664e-32 1.33704e-06 8.42931e-33 1.05e-58)
(0.000144896 -1.25162e-05 0 1.09308e-06 0 0)
(0.000119692 -9.87775e-06 8.54305e-27 8.29674e-07 -7.62275e-28 1.09184e-48)
(9.73409e-05 -7.62246e-06 -3.66739e-31 6.18043e-07 2.95495e-32 1.85219e-57)
(7.03647e-05 -3.37604e-06 -9.98349e-27 2.24219e-07 6.04403e-28 2.00876e-48)
(5.14259e-05 -2.17571e-06 0 1.89025e-07 0 0)
(3.6343e-05 -1.49879e-06 0 1.94193e-07 0 0)
(2.21156e-05 -1.01124e-06 -9.30443e-27 3.83323e-07 1.51483e-30 5.3e-48)
(1.98779e-05 -1.87171e-06 0 2.23646e-07 0 0)
(2.00302e-05 -2.02766e-06 5.63722e-32 2.3697e-07 -2.22928e-33 5.82743e-58)
(2.20921e-05 -2.46344e-06 9.51829e-32 3.02611e-07 -1.3925e-33 3.77382e-57)
(2.6708e-05 -3.04573e-06 6.21543e-28 3.66337e-07 -2.16405e-29 1.73354e-49)
(2.53925e-05 -2.89231e-06 9.66808e-32 3.48831e-07 1.3327e-34 7.74451e-57)
(2.9332e-05 -3.33193e-06 -5.5679e-32 3.92709e-07 -3.30144e-33 7.71069e-57)
(3.26555e-05 -3.79158e-06 -9.03571e-28 4.56481e-07 7.8503e-30 7.50425e-49)
(2.89372e-05 -3.36559e-06 4.23957e-32 4.16479e-07 1.40396e-33 1.91709e-57)
(2.3846e-05 -2.56272e-06 1.27779e-27 3.01517e-07 -7.99521e-29 2.32021e-49)
(2.34748e-05 -2.34449e-06 -3.17605e-31 2.34694e-07 2.92928e-32 1.69817e-56)
(2.56822e-05 -2.50952e-06 -2.83629e-28 2.45411e-07 2.91439e-29 1.4637e-50)
(2.34969e-05 -2.30531e-06 -9.81188e-32 2.26586e-07 1.02303e-32 1.3557e-57)
(3.62225e-05 -3.63195e-06 2.55406e-28 3.64434e-07 -2.56792e-29 1.94862e-51)
(3.48739e-05 -3.50067e-06 0 3.5168e-07 0 0)
(2.00729e-05 -1.95626e-06 -1.03882e-28 1.90898e-07 1.04993e-29 1.13547e-51)
(2.89055e-05 -2.8706e-06 2.72616e-28 2.85245e-07 -2.70859e-29 2.68057e-51)
(3.53695e-05 -3.4637e-06 5.96912e-32 3.39265e-07 -5.8438e-33 1.30588e-58)
(1.44119e-05 -1.37856e-06 -1.43273e-29 1.31926e-07 1.26894e-30 3.39921e-52)
(3.2441e-06 -3.02739e-07 -9.04048e-29 2.83344e-08 7.99693e-30 9.72637e-51)
(2.6911e-06 -2.56571e-07 1.49481e-36 2.45658e-08 -1.32275e-37 1.93548e-66)
(3.83535e-05 -3.77042e-06 -8.44677e-30 3.70743e-07 8.67483e-31 2.26381e-53)
(3.4296e-05 -3.32852e-06 2.37965e-28 3.23088e-07 -2.33291e-29 3.05617e-51)
(1.1445e-05 -1.13229e-06 -7.40632e-32 1.12032e-07 7.36194e-33 5.98103e-58)
(1.23605e-05 -1.23733e-06 1.46155e-32 1.23874e-07 -1.46727e-33 1.98432e-59)
(1.52701e-05 -1.52161e-06 -1.64671e-32 1.51638e-07 1.62511e-33 1.0746e-58)
(4.12161e-05 -4.07904e-06 5.62847e-33 4.03696e-07 -5.59829e-34 1.37617e-59)
(2.85944e-05 -2.81359e-06 0 2.76852e-07 0 0)
(4.95416e-06 -4.9367e-07 -3.77202e-29 4.92354e-08 3.7869e-30 3.46698e-52)
(2.63785e-05 -2.63594e-06 1.29104e-28 2.63436e-07 -1.28311e-29 9.14916e-52)
(4.50878e-05 -4.40718e-06 0 4.30788e-07 0 0)
(3.51576e-06 -3.41114e-07 5.57493e-30 3.31179e-08 -5.36269e-31 1.09622e-53)
(1.64781e-05 -1.69936e-06 -1.47644e-28 1.75329e-07 1.50839e-29 1.78395e-51)
(4.33642e-05 -4.26659e-06 -3.69842e-29 4.19788e-07 3.63848e-30 5.21175e-53)
(4.02303e-06 -3.91393e-07 0 3.80837e-08 0 0)
(1.42191e-05 -1.47073e-06 2.0983e-32 1.5213e-07 -2.16104e-33 7.08719e-59)
(3.62259e-05 -3.58982e-06 -4.67786e-32 3.55735e-07 4.63369e-33 6.96736e-59)
(7.34846e-06 -7.25985e-07 -1.49694e-29 7.17239e-08 1.47783e-30 3.66654e-53)
(1.08173e-05 -1.09454e-06 8.75765e-29 1.10761e-07 -8.82634e-30 9.11853e-52)
(2.80852e-05 -2.77332e-06 0 2.73857e-07 0 0)
(1.0822e-05 -1.06136e-06 -2.76911e-29 1.04093e-07 2.71592e-30 9.10724e-53)
(1.3749e-05 -1.34026e-06 6.3223e-36 1.30649e-07 -6.16931e-37 3.64045e-66)
(5.67785e-05 -5.53818e-06 -3.85683e-31 5.40197e-07 3.76601e-32 4.17873e-57)
(7.42826e-06 -7.1298e-07 8.40726e-29 6.84562e-08 -8.10129e-30 1.11462e-51)
(3.42599e-06 -3.16534e-07 0 2.95232e-08 0 0)
(0.000104567 -1.01075e-05 0 9.77e-07 0 0)
(1.74929e-05 -1.68759e-06 1.94431e-31 1.62821e-07 -1.88441e-32 3.29017e-57)
(6.39205e-06 -6.08564e-07 1.97696e-34 5.79789e-08 2.43237e-34 1.93613e-57)
(3.75711e-05 -3.63973e-06 -6.43837e-29 3.52606e-07 6.25049e-30 1.68513e-52)
(3.15858e-05 -3.03736e-06 0 2.92094e-07 0 0)
(2.95663e-06 -3.01364e-07 0 3.10115e-08 0 0)
(2.40289e-06 -2.38335e-07 0 2.37745e-08 0 0)
(2.71565e-05 -2.65927e-06 0 2.60406e-07 0 0)
(4.50646e-05 -4.40948e-06 0 4.31463e-07 0 0)
(2.73612e-06 -2.68319e-07 -5.23907e-29 2.65585e-08 5.66825e-30 2.30515e-51)
(1.59231e-05 -1.58024e-06 -3.22659e-28 1.5684e-07 3.18735e-29 8.55279e-51)
(6.1621e-05 -6.08254e-06 0 6.004e-07 0 0)
(2.76289e-06 -2.72667e-07 7.41767e-31 2.69155e-08 -7.21983e-32 3.71209e-55)
(3.34369e-06 -3.41962e-07 -1.22874e-28 3.51097e-08 1.26496e-29 4.77693e-51)
(4.01385e-05 -4.05363e-06 7.65659e-36 4.09381e-07 -7.73657e-37 2.20173e-66)
(3.08096e-05 -3.02933e-06 -9.83515e-29 2.97856e-07 9.67576e-30 4.58744e-52)
(9.3229e-06 -9.17403e-07 0 9.02761e-08 0 0)
(8.84098e-06 -8.97621e-07 -3.13757e-29 9.11703e-08 3.16446e-30 1.28487e-52)
(1.79989e-05 -1.75044e-06 -3.82883e-29 1.7024e-07 3.73536e-30 1.06901e-52)
(3.58349e-05 -3.48486e-06 -1.11499e-29 3.38897e-07 1.08619e-30 5.57932e-54)
(3.99325e-05 -3.89147e-06 1.46317e-31 3.79229e-07 -1.4272e-32 7.98025e-58)
(2.49617e-06 -2.42132e-07 5.96794e-29 2.35672e-08 -5.62081e-30 1.80813e-51)
(2.58769e-06 -2.5091e-07 -3.25576e-37 2.43998e-08 3.03498e-38 6.27918e-68)
(5.97883e-05 -5.77579e-06 4.55116e-32 5.57969e-07 -4.40554e-33 5.00014e-59)
(1.52514e-05 -1.47384e-06 0 1.42444e-07 0 0)
(2.89964e-06 -2.80881e-07 1.72875e-29 2.72151e-08 -1.70556e-30 2.6514e-52)
(1.84753e-05 -1.84047e-06 -4.5738e-32 1.83353e-07 4.53954e-33 1.5682e-58)
(2.40596e-05 -2.31178e-06 0 2.22165e-07 0 0)
(7.95786e-06 -7.92667e-07 0 7.89669e-08 0 0)
(3.35409e-06 -3.40345e-07 4.85058e-29 3.46793e-08 -5.01204e-30 7.69908e-52)
(5.23286e-06 -5.27227e-07 0 5.31577e-08 0 0)
(3.37943e-05 -3.36147e-06 -1.75174e-32 3.34375e-07 1.73677e-33 1.14773e-59)
(4.02272e-05 -3.99393e-06 -3.37113e-29 3.96536e-07 3.34317e-30 4.02785e-53)
(3.4472e-06 -3.33573e-07 1.87154e-32 3.24153e-08 -1.76155e-33 1.20646e-58)
(7.57006e-06 -8.18738e-07 -1.36109e-28 8.87983e-08 1.45695e-29 2.57721e-51)
(4.06535e-05 -3.89123e-06 3.70406e-32 3.72504e-07 -3.57169e-33 4.90148e-59)
(1.28714e-05 -1.28426e-06 -1.96341e-29 1.28153e-07 1.95149e-30 3.4097e-53)
(9.63247e-06 -9.8867e-07 0 1.01587e-07 0 0)
(0.000248506 -5.22246e-05 3.28651e-29 1.09927e-05 -8.89801e-30 2.35393e-52)
(0.000848068 -0.000196665 7.77187e-28 4.59119e-05 -2.2163e-28 6.4125e-51)
(0.000304526 -6.72251e-06 0 0.00398548 0 0)
(0.00159753 -0.00056301 3.01565e-30 0.000228121 -5.39187e-31 1.7517e-56)
(0.00326041 -0.000811388 1.00428e-26 0.000210006 -2.12774e-27 6.37576e-50)
(0.00133142 -0.000390641 0 0.00015751 0 0)
(0.00154259 8.22711e-05 8.32757e-31 5.02608e-05 9.13788e-32 2.79621e-57)
(0.00116787 -0.000153486 -1.23208e-27 2.04304e-05 1.48618e-28 3.16813e-51)
(0.000664139 -9.44711e-05 3.4279e-28 1.34771e-05 -4.46806e-29 1.10752e-51)
(0.000662422 -7.24056e-05 2.51964e-31 9.17209e-06 -2.76129e-32 3.02159e-57)
(0.000759933 -0.000110088 -5.36347e-29 1.59479e-05 7.77579e-30 1.37587e-53)
(0.000647432 -9.5146e-05 6.20641e-31 1.39826e-05 -9.12032e-32 1.88248e-57)