# Field minima and maxima
# Time        	field         	min           	location(min) 	processor     	max           	location(max) 	processor     
1.54532       	U             	(-2.676518e+00 -6.782751e-01 -6.941475e-27)	(1.542229e-02 1.523846e-02 1.100000e-02)	0	(1.186450e+01 8.518071e-01 1.289825e-27)	(6.637247e-03 1.787976e-02 1.100000e-02)	0
1.54532       	k             	2.922230e-04	(1.561886e-02 1.468819e-02 1.100000e-02)	0	1.300296e+01	(-1.505568e-01 1.059942e-05 1.100000e-02)	4
1.54532       	p_rgh         	1.663090e+03	(3.544286e-02 1.694042e-02 1.100000e-02)	1	7.067030e+04	(1.111600e+00 -1.069936e-02 1.100000e-02)	8
1.54532       	omega         	1.299880e+02	(1.107825e+00 -3.643142e-02 1.100000e-02)	8	5.430720e+05	(8.844358e-03 1.555013e-02 1.100000e-02)	0
1.54568       	U             	(-2.590594e+00 2.017511e-02 -3.001933e-27)	(8.487042e-03 1.572179e-02 1.100000e-02)	0	(1.175981e+01 9.341346e-01 1.168451e-27)	(6.637247e-03 1.787976e-02 1.100000e-02)	0
1.54568       	k             	2.922230e-04	(1.561886e-02 1.468819e-02 1.100000e-02)	0	1.279766e+01	(-1.505568e-01 1.059942e-05 1.100000e-02)	4
1.54568       	p_rgh         	1.647554e+03	(3.773256e-02 1.685938e-02 1.100000e-02)	1	7.071113e+04	(1.111600e+00 -9.690407e-03 1.100000e-02)	8
1.54568       	omega         	1.301243e+02	(1.107825e+00 -3.643142e-02 1.100000e-02)	8	5.430720e+05	(8.844358e-03 1.555013e-02 1.100000e-02)	0
1.54605       	U             	(-1.378118e+00 -2.298692e-01 -5.465471e-27)	(8.846516e-03 1.560426e-02 1.100000e-02)	0	(1.168589e+01 9.377707e-01 1.305040e-27)	(6.637247e-03 1.787976e-02 1.100000e-02)	0
1.54605       	k             	2.922230e-04	(1.561886e-02 1.468819e-02 1.100000e-02)	0	1.272337e+01	(-1.505568e-01 1.059942e-05 1.100000e-02)	4
1.54605       	p_rgh         	1.628422e+03	(4.010758e-02 1.677593e-02 1.100000e-02)	1	7.073888e+04	(1.111600e+00 -9.690407e-03 1.100000e-02)	8
1.54605       	omega         	1.302725e+02	(1.107825e+00 -3.643142e-02 1.100000e-02)	8	5.430720e+05	(8.844358e-03 1.555013e-02 1.100000e-02)	0
1.54643       	U             	(-2.089124e+00 -2.570079e-01 -2.546818e-27)	(9.584096e-03 1.554808e-02 1.100000e-02)	0	(1.156197e+01 9.627135e-01 1.189524e-27)	(6.637247e-03 1.787976e-02 1.100000e-02)	0
1.54643       	k             	2.922230e-04	(1.561886e-02 1.468819e-02 1.100000e-02)	0	1.271457e+01	(-1.505568e-01 1.059942e-05 1.100000e-02)	4
1.54643       	p_rgh         	1.623058e+03	(4.224353e-02 1.753636e-02 1.100000e-02)	6	7.076158e+04	(1.111600e+00 -9.690407e-03 1.100000e-02)	8
1.54643       	omega         	1.304316e+02	(1.107825e+00 -3.643142e-02 1.100000e-02)	8	5.430720e+05	(8.844358e-03 1.555013e-02 1.100000e-02)	0
1.5468        	U             	(-2.734554e+00 -1.909333e-02 -6.763140e-27)	(1.033807e-02 1.551288e-02 1.100000e-02)	0	(1.119870e+01 3.037002e+00 5.572708e-27)	(8.636733e-04 1.690622e-02 1.100000e-02)	2
1.5468        	k             	2.922230e-04	(1.561886e-02 1.468819e-02 1.100000e-02)	0	1.271997e+01	(-1.505568e-01 1.059942e-05 1.100000e-02)	4
1.5468        	p_rgh         	1.814386e+03	(1.904617e-02 1.514249e-02 1.100000e-02)	0	7.078221e+04	(1.111600e+00 -9.690407e-03 1.100000e-02)	8
1.5468        	omega         	1.306010e+02	(1.107825e+00 -3.643142e-02 1.100000e-02)	8	5.430720e+05	(8.844358e-03 1.555013e-02 1.100000e-02)	0
1.54717       	U             	(-1.974566e+00 -6.988787e-02 -1.187701e-26)	(1.071816e-02 1.542462e-02 1.100000e-02)	0	(1.117616e+01 3.034460e+00 5.528004e-27)	(8.636733e-04 1.690622e-02 1.100000e-02)	2
1.54717       	k             	2.922230e-04	(1.561886e-02 1.468819e-02 1.100000e-02)	0	1.272446e+01	(-1.505568e-01 1.059942e-05 1.100000e-02)	4
1.54717       	p_rgh         	1.804602e+03	(1.999686e-02 1.502274e-02 1.100000e-02)	1	7.080137e+04	(1.111600e+00 -9.690407e-03 1.100000e-02)	8
1.54717       	omega         	1.307801e+02	(1.107825e+00 -3.643142e-02 1.100000e-02)	8	5.430720e+05	(8.844358e-03 1.555013e-02 1.100000e-02)	0
1.54754       	U             	(-3.800874e+00 -2.482774e-01 -9.015526e-27)	(2.119815e-02 1.446574e-02 1.100000e-02)	1	(1.115326e+01 3.034094e+00 5.467612e-27)	(8.636733e-04 1.690622e-02 1.100000e-02)	2
1.54754       	k             	2.922230e-04	(1.561886e-02 1.468819e-02 1.100000e-02)	0	1.272718e+01	(-1.505568e-01 1.059942e-05 1.100000e-02)	4
1.54754       	p_rgh         	1.796213e+03	(2.096978e-02 1.495587e-02 1.100000e-02)	1	7.081942e+04	(1.111600e+00 -9.690407e-03 1.100000e-02)	8
1.54754       	omega         	1.309683e+02	(1.107825e+00 -3.643142e-02 1.100000e-02)	8	5.430720e+05	(8.844358e-03 1.555013e-02 1.100000e-02)	0
1.54792       	U             	(-3.708485e+00 -3.759909e-01 -7.692780e-27)	(2.219330e-02 1.430282e-02 1.100000e-02)	1	(1.138936e+01 1.036839e+00 1.201779e-27)	(6.637247e-03 1.787976e-02 1.100000e-02)	0
1.54792       	k             	2.922230e-04	(1.561886e-02 1.468819e-02 1.100000e-02)	0	1.272888e+01	(-1.505568e-01 1.059942e-05 1.100000e-02)	4
1.54792       	p_rgh         	1.790088e+03	(2.145871e-02 1.478522e-02 1.100000e-02)	1	7.083426e+04	(1.111600e+00 -9.690407e-03 1.100000e-02)	8
1.54792       	omega         	1.311649e+02	(1.107825e+00 -3.643142e-02 1.100000e-02)	8	5.430720e+05	(8.844358e-03 1.555013e-02 1.100000e-02)	0
1.54829       	U             	(-1.982885e+00 -3.057161e-01 -4.426665e-27)	(1.228542e-02 1.522601e-02 1.100000e-02)	0	(1.109210e+01 3.033246e+00 5.345604e-27)	(8.636733e-04 1.690622e-02 1.100000e-02)	2
1.54829       	k             	2.922230e-04	(1.561886e-02 1.468819e-02 1.100000e-02)	0	1.273014e+01	(-1.505568e-01 1.059942e-05 1.100000e-02)	4
1.54829       	p_rgh         	1.778853e+03	(2.272054e-02 1.479423e-02 1.100000e-02)	1	7.084533e+04	(1.111600e+00 -9.690407e-03 1.100000e-02)	8
1.54829       	omega         	1.313692e+02	(1.107825e+00 -3.643142e-02 1.100000e-02)	8	5.430720e+05	(8.844358e-03 1.555013e-02 1.100000e-02)	0
1.54867       	U             	(-2.651452e+00 -2.838915e-01 -8.970286e-27)	(1.289268e-02 1.521113e-02 1.100000e-02)	0	(1.135257e+01 1.062513e+00 3.770576e-27)	(5.228511e-02 2.043225e-02 1.100000e-02)	5
1.54867       	k             	2.922230e-04	(1.561886e-02 1.468819e-02 1.100000e-02)	0	1.273115e+01	(-1.505568e-01 1.059942e-05 1.100000e-02)	4
1.54867       	p_rgh         	1.770987e+03	(2.348975e-02 1.469765e-02 1.100000e-02)	1	7.085031e+04	(1.111600e+00 -9.690407e-03 1.100000e-02)	8
1.54867       	omega         	1.315814e+02	(1.107825e+00 -3.643142e-02 1.100000e-02)	8	5.430720e+05	(8.844358e-03 1.555013e-02 1.100000e-02)	0
1.54904       	U             	(-2.866225e+00 -1.604675e-01 -2.140211e-27)	(1.371575e-02 1.515258e-02 1.100000e-02)	0	(1.124534e+01 1.013244e+00 1.327089e-27)	(6.637247e-03 1.787976e-02 1.100000e-02)	0
1.54904       	k             	2.922230e-04	(1.561886e-02 1.468819e-02 1.100000e-02)	0	1.273193e+01	(-1.505568e-01 1.059942e-05 1.100000e-02)	4
1.54904       	p_rgh         	1.768470e+03	(2.427344e-02 1.466074e-02 1.100000e-02)	1	7.084886e+04	(1.111600e+00 -9.690407e-03 1.100000e-02)	8
1.54904       	omega         	1.318003e+02	(1.107825e+00 -3.643142e-02 1.100000e-02)	8	5.430720e+05	(8.844358e-03 1.555013e-02 1.100000e-02)	0
1.54942       	U             	(-2.996301e+00 -1.035440e-01 -2.371032e-27)	(1.434394e-02 1.509669e-02 1.100000e-02)	0	(1.127522e+01 1.008350e+00 1.149304e-27)	(6.637247e-03 1.787976e-02 1.100000e-02)	0
1.54942       	k             	2.922230e-04	(1.561886e-02 1.468819e-02 1.100000e-02)	0	1.273247e+01	(-1.505568e-01 1.059942e-05 1.100000e-02)	4
1.54942       	p_rgh         	1.759119e+03	(2.479890e-02 1.453329e-02 1.100000e-02)	1	7.083972e+04	(1.111600e+00 -9.690407e-03 1.100000e-02)	8
1.54942       	omega         	1.320251e+02	(1.107825e+00 -3.643142e-02 1.100000e-02)	8	5.430720e+05	(8.844358e-03 1.555013e-02 1.100000e-02)	0
1.5498        	U             	(-9.171074e-01 -1.413618e-01 -3.625961e-27)	(1.455004e-02 1.493659e-02 1.100000e-02)	0	(1.106053e+01 3.027979e+00 5.288770e-27)	(8.636733e-04 1.690622e-02 1.100000e-02)	2
1.5498        	k             	2.922230e-04	(1.561886e-02 1.468819e-02 1.100000e-02)	0	1.273282e+01	(-1.505568e-01 1.059942e-05 1.100000e-02)	4
1.5498        	p_rgh         	1.755574e+03	(2.587840e-02 1.459163e-02 1.100000e-02)	1	7.082313e+04	(1.111600e+00 -9.690407e-03 1.100000e-02)	8
1.5498        	omega         	1.322489e+02	(1.107825e+00 -3.776057e-02 1.100000e-02)	8	5.430720e+05	(8.844358e-03 1.555013e-02 1.100000e-02)	0
1.55017       	U             	(-1.455929e+00 -1.409329e-02 -3.173721e-28)	(1.271354e-02 1.583753e-02 1.100000e-02)	0	(1.195246e+01 6.377680e-01 2.680914e-27)	(8.957020e-03 1.838875e-02 1.100000e-02)	0
1.55017       	k             	2.922230e-04	(1.561886e-02 1.468819e-02 1.100000e-02)	0	1.273306e+01	(-1.505568e-01 1.059942e-05 1.100000e-02)	4
1.55017       	p_rgh         	1.749845e+03	(2.586681e-02 1.428335e-02 1.100000e-02)	1	7.080112e+04	(1.111600e+00 -9.690407e-03 1.100000e-02)	8
1.55017       	omega         	1.324482e+02	(1.107825e+00 -3.776057e-02 1.100000e-02)	8	5.430720e+05	(8.844358e-03 1.555013e-02 1.100000e-02)	0
1.55055       	U             	(-1.974443e+00 -1.156350e+00 -4.273796e-26)	(3.960999e-03 1.656617e-02 1.100000e-02)	2	(1.108130e+01 1.192768e+00 8.759922e-28)	(6.637247e-03 1.787976e-02 1.100000e-02)	0
1.55055       	k             	2.922230e-04	(1.561886e-02 1.468819e-02 1.100000e-02)	0	1.273322e+01	(-1.505568e-01 1.059942e-05 1.100000e-02)	4
1.55055       	p_rgh         	1.738343e+03	(2.697073e-02 1.438694e-02 1.100000e-02)	1	7.077721e+04	(1.111600e+00 -9.690407e-03 1.100000e-02)	8
1.55055       	omega         	1.325005e+02	(1.107815e+00 -9.498676e-02 1.100000e-02)	9	5.430720e+05	(8.844358e-03 1.555013e-02 1.100000e-02)	0
1.55093       	U             	(-3.051175e+00 -5.707172e-03 -4.039283e-27)	(1.606454e-02 1.485103e-02 1.100000e-02)	0	(1.094701e+01 3.021925e+00 5.056402e-27)	(8.636733e-04 1.690622e-02 1.100000e-02)	2
1.55093       	k             	2.922230e-04	(1.561886e-02 1.468819e-02 1.100000e-02)	0	1.330202e+01	(1.839001e-02 1.637199e-02 1.100000e-02)	0
1.55093       	p_rgh         	1.732888e+03	(2.809955e-02 1.453587e-02 1.100000e-02)	1	7.075363e+04	(1.111600e+00 -9.690407e-03 1.100000e-02)	8
1.55093       	omega         	1.325353e+02	(1.107815e+00 -9.498676e-02 1.100000e-02)	9	5.430720e+05	(8.844358e-03 1.555013e-02 1.100000e-02)	0
1.55131       	U             	(-1.619007e+00 -5.932799e-01 -1.697901e-26)	(3.958564e-03 1.650583e-02 1.100000e-02)	2	(1.095378e+01 3.013557e+00 5.234519e-27)	(8.636733e-04 1.690622e-02 1.100000e-02)	2
1.55131       	k             	2.922230e-04	(1.561886e-02 1.468819e-02 1.100000e-02)	0	1.273341e+01	(-1.505568e-01 1.059942e-05 1.100000e-02)	4
1.55131       	p_rgh         	1.724292e+03	(2.837444e-02 1.427861e-02 1.100000e-02)	1	7.073476e+04	(1.111600e+00 -9.690407e-03 1.100000e-02)	8
1.55131       	omega         	1.325747e+02	(1.107815e+00 -9.498676e-02 1.100000e-02)	9	5.430720e+05	(8.844358e-03 1.555013e-02 1.100000e-02)	0
1.55169       	U             	(-1.788423e+00 -1.525574e+00 -4.577442e-26)	(3.958564e-03 1.650583e-02 1.100000e-02)	2	(1.100919e+01 3.010567e+00 5.410823e-27)	(8.636733e-04 1.690622e-02 1.100000e-02)	2
1.55169       	k             	2.922230e-04	(1.561886e-02 1.468819e-02 1.100000e-02)	0	1.325850e+01	(2.457014e-02 1.551516e-02 1.100000e-02)	1
1.55169       	p_rgh         	1.716948e+03	(2.894525e-02 1.420701e-02 1.100000e-02)	1	7.071974e+04	(1.111600e+00 -9.690407e-03 1.100000e-02)	8
1.55169       	omega         	1.326186e+02	(1.107815e+00 -9.498676e-02 1.100000e-02)	9	5.430720e+05	(8.844358e-03 1.555013e-02 1.100000e-02)	0
1.55207       	U             	(-5.413864e+00 1.153620e-01 -3.971819e-27)	(2.978709e-02 1.340801e-02 1.100000e-02)	1	(1.111699e+01 1.062316e+00 1.250737e-27)	(6.637247e-03 1.787976e-02 1.100000e-02)	0
1.55207       	k             	2.922230e-04	(1.561886e-02 1.468819e-02 1.100000e-02)	0	1.527111e+01	(2.700578e-02 1.532184e-02 1.100000e-02)	1
1.55207       	p_rgh         	1.725366e+03	(2.981275e-02 1.409820e-02 1.100000e-02)	1	7.070439e+04	(1.111600e+00 -9.690407e-03 1.100000e-02)	8
1.55207       	omega         	1.326668e+02	(1.107815e+00 -9.498676e-02 1.100000e-02)	9	5.430720e+05	(8.844358e-03 1.555013e-02 1.100000e-02)	0
1.55245       	U             	(-6.217694e+00 -1.415200e-02 -3.674506e-27)	(3.007391e-02 1.322579e-02 1.100000e-02)	1	(1.165625e+01 7.716480e-01 2.575906e-27)	(8.957020e-03 1.838875e-02 1.100000e-02)	0
1.55245       	k             	2.922230e-04	(1.561886e-02 1.468819e-02 1.100000e-02)	0	1.552552e+01	(2.645949e-02 1.549597e-02 1.100000e-02)	1
1.55245       	p_rgh         	1.714749e+03	(2.922342e-02 1.391605e-02 1.100000e-02)	1	7.068385e+04	(1.111600e+00 -9.690407e-03 1.100000e-02)	8
1.55245       	omega         	1.327191e+02	(1.107815e+00 -9.498676e-02 1.100000e-02)	9	5.430720e+05	(8.844358e-03 1.555013e-02 1.100000e-02)	0
1.55283       	U             	(-4.343247e+00 -1.009429e+00 -6.291812e-27)	(3.038122e-02 1.355390e-02 1.100000e-02)	1	(1.148607e+01 9.191189e-01 1.582044e-27)	(6.637247e-03 1.787976e-02 1.100000e-02)	0
1.55283       	k             	2.922230e-04	(1.561886e-02 1.468819e-02 1.100000e-02)	0	1.305442e+01	(2.565306e-02 1.581620e-02 1.100000e-02)	1
1.55283       	p_rgh         	1.714625e+03	(2.921366e-02 1.365413e-02 1.100000e-02)	1	7.065425e+04	(1.111600e+00 -9.690407e-03 1.100000e-02)	8
1.55283       	omega         	1.327758e+02	(1.107815e+00 -9.498676e-02 1.100000e-02)	9	5.430720e+05	(8.844358e-03 1.555013e-02 1.100000e-02)	0
1.55321       	U             	(-1.084251e+00 8.668687e-02 -2.881700e-28)	(1.330036e-02 1.513789e-02 1.100000e-02)	0	(1.094202e+01 3.016998e+00 5.033421e-27)	(8.636733e-04 1.690622e-02 1.100000e-02)	2
1.55321       	k             	2.922230e-04	(1.561886e-02 1.468819e-02 1.100000e-02)	0	1.630607e+01	(2.304088e-02 1.648249e-02 1.100000e-02)	1
1.55321       	p_rgh         	1.707082e+03	(3.009130e-02 1.369387e-02 1.100000e-02)	1	7.062508e+04	(1.111600e+00 -9.690407e-03 1.100000e-02)	8
1.55321       	omega         	1.328368e+02	(1.107815e+00 -9.498676e-02 1.100000e-02)	9	5.430720e+05	(8.844358e-03 1.555013e-02 1.100000e-02)	0
1.55359       	U             	(-2.964475e+00 -2.654445e-01 -3.643758e-27)	(3.186967e-02 1.326968e-02 1.100000e-02)	1	(1.087522e+01 3.008781e+00 4.998134e-27)	(8.636733e-04 1.690622e-02 1.100000e-02)	2
1.55359       	k             	2.922230e-04	(1.561886e-02 1.468819e-02 1.100000e-02)	0	1.758454e+01	(2.177876e-02 1.663321e-02 1.100000e-02)	1
1.55359       	p_rgh         	1.694392e+03	(3.159743e-02 1.409986e-02 1.100000e-02)	1	7.059432e+04	(1.111600e+00 -9.690407e-03 1.100000e-02)	8
1.55359       	omega         	1.329024e+02	(1.107815e+00 -9.498676e-02 1.100000e-02)	9	5.430720e+05	(8.844358e-03 1.555013e-02 1.100000e-02)	0
1.55397       	U             	(-1.126610e+00 4.423228e-02 -2.217165e-27)	(1.632474e-02 1.585275e-02 1.100000e-02)	0	(1.143313e+01 8.441908e-01 2.182951e-27)	(8.957020e-03 1.838875e-02 1.100000e-02)	0
1.55397       	k             	2.922230e-04	(1.561886e-02 1.468819e-02 1.100000e-02)	0	1.273374e+01	(-1.505568e-01 1.059942e-05 1.100000e-02)	4
1.55397       	p_rgh         	1.682818e+03	(3.282596e-02 1.429876e-02 1.100000e-02)	1	7.056122e+04	(1.111600e+00 -9.690407e-03 1.100000e-02)	8
1.55397       	omega         	1.329721e+02	(1.107815e+00 -9.498676e-02 1.100000e-02)	9	5.430720e+05	(8.844358e-03 1.555013e-02 1.100000e-02)	0
1.55435       	U             	(-8.953912e-01 3.945219e-02 -1.014139e-26)	(7.420919e-03 1.581542e-02 1.100000e-02)	0	(1.088809e+01 3.011138e+00 5.005465e-27)	(8.636733e-04 1.690622e-02 1.100000e-02)	2
1.55435       	k             	2.922230e-04	(1.561886e-02 1.468819e-02 1.100000e-02)	0	1.505819e+01	(2.783819e-02 1.511482e-02 1.100000e-02)	1
1.55435       	p_rgh         	1.676825e+03	(3.375817e-02 1.428351e-02 1.100000e-02)	1	7.052473e+04	(1.111600e+00 -9.690407e-03 1.100000e-02)	8
1.55435       	omega         	1.330455e+02	(1.107815e+00 -9.498676e-02 1.100000e-02)	9	5.430720e+05	(8.844358e-03 1.555013e-02 1.100000e-02)	0
1.55474       	U             	(-1.599220e+00 -1.606728e-02 -1.629233e-26)	(2.371045e-02 1.365061e-02 1.100000e-02)	1	(1.164261e+01 1.160672e+00 1.302718e-27)	(7.168677e-03 1.824380e-02 1.100000e-02)	0
1.55474       	k             	2.922230e-04	(1.561886e-02 1.468819e-02 1.100000e-02)	0	1.674466e+01	(3.132992e-02 1.501367e-02 1.100000e-02)	1
1.55474       	p_rgh         	1.667149e+03	(3.406384e-02 1.405170e-02 1.100000e-02)	1	7.048909e+04	(1.111600e+00 -9.690407e-03 1.100000e-02)	8
1.55474       	omega         	1.331227e+02	(1.107815e+00 -9.498676e-02 1.100000e-02)	9	5.430720e+05	(8.844358e-03 1.555013e-02 1.100000e-02)	0
1.55512       	U             	(-3.621613e+00 -6.176490e-01 -1.155309e-26)	(3.467155e-02 1.335260e-02 1.100000e-02)	1	(1.166194e+01 1.131644e+00 1.171033e-27)	(7.168677e-03 1.824380e-02 1.100000e-02)	0
1.55512       	k             	2.922230e-04	(1.561886e-02 1.468819e-02 1.100000e-02)	0	1.302985e+01	(3.133415e-02 1.512781e-02 1.100000e-02)	1
1.55512       	p_rgh         	1.664593e+03	(3.436046e-02 1.352778e-02 1.100000e-02)	1	7.044250e+04	(1.111600e+00 -9.690407e-03 1.100000e-02)	8
1.55512       	omega         	1.332034e+02	(1.107815e+00 -9.498676e-02 1.100000e-02)	9	5.430720e+05	(8.844358e-03 1.555013e-02 1.100000e-02)	0
1.5555        	U             	(-1.427971e+00 1.708824e-02 -1.331930e-28)	(1.788975e-02 1.540074e-02 1.100000e-02)	0	(1.114588e+01 2.981368e+00 5.726390e-27)	(-1.071475e-04 1.762649e-02 1.100000e-02)	2
1.5555        	k             	2.922230e-04	(1.561886e-02 1.468819e-02 1.100000e-02)	0	1.273384e+01	(-1.505568e-01 1.059942e-05 1.100000e-02)	4
1.5555        	p_rgh         	1.657906e+03	(3.564602e-02 1.367833e-02 1.100000e-02)	1	7.039221e+04	(1.111600e+00 -9.690407e-03 1.100000e-02)	8
1.5555        	omega         	1.332875e+02	(1.107815e+00 -9.498676e-02 1.100000e-02)	9	5.430720e+05	(8.844358e-03 1.555013e-02 1.100000e-02)	0
1.55589       	U             	(-2.275379e+00 -3.989862e-01 -2.419711e-27)	(3.724605e-02 1.263209e-02 1.100000e-02)	1	(1.222887e+01 1.366911e+00 8.644143e-28)	(7.077043e-03 2.028462e-02 1.100000e-02)	0
1.55589       	k             	2.922230e-04	(1.561886e-02 1.468819e-02 1.100000e-02)	0	1.424758e+01	(2.814491e-02 1.574971e-02 1.100000e-02)	1
1.55589       	p_rgh         	1.647680e+03	(3.629319e-02 1.359785e-02 1.100000e-02)	1	7.034431e+04	(1.111600e+00 -9.690407e-03 1.100000e-02)	8
1.55589       	omega         	1.333750e+02	(1.107815e+00 -9.498676e-02 1.100000e-02)	9	5.430720e+05	(8.844358e-03 1.555013e-02 1.100000e-02)	0
1.55628       	U             	(-2.656949e+00 -5.650279e-02 -9.358495e-28)	(3.823727e-02 1.228780e-02 1.100000e-02)	1	(1.219037e+01 1.422142e+00 8.319301e-28)	(7.077043e-03 2.028462e-02 1.100000e-02)	0
1.55628       	k             	2.922230e-04	(1.561886e-02 1.468819e-02 1.100000e-02)	0	1.273391e+01	(-1.505568e-01 1.059942e-05 1.100000e-02)	4
1.55628       	p_rgh         	1.636872e+03	(3.728667e-02 1.374814e-02 1.100000e-02)	1	7.029901e+04	(1.111600e+00 -9.690407e-03 1.100000e-02)	8
1.55628       	omega         	1.334658e+02	(1.107815e+00 -9.498676e-02 1.100000e-02)	9	5.430720e+05	(8.844358e-03 1.555013e-02 1.100000e-02)	0
1.55667       	U             	(-2.887444e+00 -8.017444e-02 -1.184329e-27)	(3.959004e-02 1.200437e-02 1.100000e-02)	1	(1.108442e+01 2.988873e+00 5.601893e-27)	(-1.071475e-04 1.762649e-02 1.100000e-02)	2
1.55667       	k             	2.922230e-04	(1.561886e-02 1.468819e-02 1.100000e-02)	0	1.393087e+01	(3.502690e-02 1.434033e-02 1.100000e-02)	1
1.55667       	p_rgh         	1.659107e+03	(3.629636e-02 1.368449e-02 1.100000e-02)	1	7.025563e+04	(1.111600e+00 -9.690407e-03 1.100000e-02)	8
1.55667       	omega         	1.335593e+02	(1.107815e+00 -9.498676e-02 1.100000e-02)	9	5.430720e+05	(8.844358e-03 1.555013e-02 1.100000e-02)	0
1.55706       	U             	(-5.999546e-01 -3.803242e-02 -3.885752e-27)	(8.124297e-03 1.566164e-02 1.100000e-02)	0	(1.139113e+01 1.398015e+00 8.542360e-28)	(7.168677e-03 1.824380e-02 1.100000e-02)	0
1.55706       	k             	2.922230e-04	(1.561886e-02 1.468819e-02 1.100000e-02)	0	1.525576e+01	(3.599826e-02 1.444600e-02 1.100000e-02)	1
1.55706       	p_rgh         	1.632359e+03	(3.762546e-02 1.391358e-02 1.100000e-02)	1	7.020949e+04	(1.111600e+00 -9.690407e-03 1.100000e-02)	8
1.55706       	omega         	1.336551e+02	(1.107815e+00 -9.498676e-02 1.100000e-02)	9	5.430720e+05	(8.844358e-03 1.555013e-02 1.100000e-02)	0
1.55745       	U             	(-1.315986e+00 -2.333362e-01 -4.036939e-27)	(6.739702e-03 1.615563e-02 1.100000e-02)	0	(1.140421e+01 1.392434e+00 8.770780e-28)	(7.168677e-03 1.824380e-02 1.100000e-02)	0
1.55745       	k             	2.922230e-04	(1.561886e-02 1.468819e-02 1.100000e-02)	0	1.273393e+01	(-1.505568e-01 1.059942e-05 1.100000e-02)	4
1.55745       	p_rgh         	1.630157e+03	(3.793515e-02 1.322967e-02 1.100000e-02)	1	7.015981e+04	(1.111600e+00 -9.690407e-03 1.100000e-02)	8
1.55745       	omega         	1.337523e+02	(1.107815e+00 -9.572856e-02 1.100000e-02)	9	5.430720e+05	(8.844358e-03 1.555013e-02 1.100000e-02)	0
1.55784       	U             	(-1.060292e+00 -1.370972e-01 -5.698559e-27)	(7.263415e-03 1.625551e-02 1.100000e-02)	0	(1.216005e+01 1.447735e+00 8.523707e-28)	(7.077043e-03 2.028462e-02 1.100000e-02)	0
1.55784       	k             	2.922230e-04	(1.561886e-02 1.468819e-02 1.100000e-02)	0	1.273394e+01	(-1.505568e-01 1.059942e-05 1.100000e-02)	4
1.55784       	p_rgh         	1.629835e+03	(3.861556e-02 1.339674e-02 1.100000e-02)	1	7.011161e+04	(1.111600e+00 -9.690407e-03 1.100000e-02)	8
1.55784       	omega         	1.338468e+02	(1.107815e+00 -9.572856e-02 1.100000e-02)	9	5.430720e+05	(8.844358e-03 1.555013e-02 1.100000e-02)	0
1.55823       	U             	(-1.044883e+00 -4.243814e-01 -2.530640e-26)	(7.432299e-03 1.610071e-02 1.100000e-02)	0	(1.133276e+01 1.398489e+00 8.680059e-28)	(7.168677e-03 1.824380e-02 1.100000e-02)	0
1.55823       	k             	2.922230e-04	(1.561886e-02 1.468819e-02 1.100000e-02)	0	1.273395e+01	(-1.505568e-01 1.059942e-05 1.100000e-02)	4
1.55823       	p_rgh         	1.627307e+03	(3.895717e-02 1.344610e-02 1.100000e-02)	1	7.008180e+04	(1.111600e+00 -1.174524e-01 1.100000e-02)	9
1.55823       	omega         	1.339427e+02	(1.107815e+00 -9.572856e-02 1.100000e-02)	9	5.430720e+05	(8.844358e-03 1.555013e-02 1.100000e-02)	0
1.55862       	U             	(-3.512888e-01 -1.170787e+00 -4.954429e-26)	(7.431107e-03 1.607082e-02 1.100000e-02)	0	(1.131346e+01 1.378080e+00 8.586972e-28)	(7.168677e-03 1.824380e-02 1.100000e-02)	0
1.55862       	k             	2.922230e-04	(1.561886e-02 1.468819e-02 1.100000e-02)	0	1.273396e+01	(-1.505568e-01 1.059942e-05 1.100000e-02)	4
1.55862       	p_rgh         	1.624944e+03	(3.964622e-02 1.355869e-02 1.100000e-02)	1	7.010538e+04	(1.111600e+00 -1.174524e-01 1.100000e-02)	9
1.55862       	omega         	1.340395e+02	(1.107815e+00 -9.572856e-02 1.100000e-02)	9	5.430720e+05	(8.844358e-03 1.555013e-02 1.100000e-02)	0
1.55901       	U             	(-9.300320e-01 -1.321991e+00 -3.719188e-26)	(7.074146e-03 1.587683e-02 1.100000e-02)	0	(1.106176e+01 2.985600e+00 5.531153e-27)	(-1.071475e-04 1.762649e-02 1.100000e-02)	2
1.55901       	k             	2.922230e-04	(1.561886e-02 1.468819e-02 1.100000e-02)	0	1.273397e+01	(-1.505568e-01 1.059942e-05 1.100000e-02)	4
1.55901       	p_rgh         	1.621633e+03	(3.895069e-02 1.326734e-02 1.100000e-02)	1	7.013013e+04	(1.111600e+00 -1.175718e-01 1.100000e-02)	9
1.55901       	omega         	1.339367e+02	(1.032286e+00 -3.360352e-02 1.100000e-02)	8	5.430720e+05	(8.844358e-03 1.555013e-02 1.100000e-02)	0
1.5594        	U             	(-1.634296e+00 -9.777576e-01 -9.645800e-26)	(7.607422e-03 1.607925e-02 1.100000e-02)	0	(1.133623e+01 1.379833e+00 9.037234e-28)	(7.168677e-03 1.824380e-02 1.100000e-02)	0
1.5594        	k             	2.922230e-04	(1.561886e-02 1.468819e-02 1.100000e-02)	0	1.273397e+01	(-1.505568e-01 1.059942e-05 1.100000e-02)	4
1.5594        	p_rgh         	1.619068e+03	(3.894476e-02 1.310355e-02 1.100000e-02)	1	7.015623e+04	(1.111600e+00 -1.176861e-01 1.100000e-02)	9
1.5594        	omega         	1.337632e+02	(1.032286e+00 -3.360352e-02 1.100000e-02)	8	5.430720e+05	(8.844358e-03 1.555013e-02 1.100000e-02)	0
1.5598        	U             	(-1.088063e+00 -8.553974e-01 -1.516634e-26)	(7.607422e-03 1.607925e-02 1.100000e-02)	0	(5.979022e+00 1.109274e+00 1.062148e-26)	(1.061804e-01 1.146539e-02 1.100000e-02)	5
1.5598        	k             	2.922230e-04	(1.561886e-02 1.468819e-02 1.100000e-02)	0	1.273397e+01	(-1.505568e-01 1.059942e-05 1.100000e-02)	4
1.5598        	p_rgh         	1.620450e+03	(3.894198e-02 1.302686e-02 1.100000e-02)	1	7.018308e+04	(1.111600e+00 -1.177955e-01 1.100000e-02)	9
1.5598        	omega         	1.335841e+02	(1.032290e+00 -3.229898e-02 1.100000e-02)	8	5.430720e+05	(8.844358e-03 1.555013e-02 1.100000e-02)	0
1.56019       	U             	(-1.447487e+00 -3.509510e-01 -5.836794e-28)	(6.897773e-03 1.579861e-02 1.100000e-02)	0	(1.104728e+01 2.988414e+00 5.434431e-27)	(-1.071475e-04 1.762649e-02 1.100000e-02)	2
1.56019       	k             	2.922230e-04	(1.561886e-02 1.468819e-02 1.100000e-02)	0	1.273397e+01	(-1.505568e-01 1.059942e-05 1.100000e-02)	4
1.56019       	p_rgh         	1.623745e+03	(3.894198e-02 1.302686e-02 1.100000e-02)	1	7.020968e+04	(1.111600e+00 -1.179002e-01 1.100000e-02)	9
1.56019       	omega         	1.333906e+02	(1.032290e+00 -3.229898e-02 1.100000e-02)	8	5.430720e+05	(8.844358e-03 1.555013e-02 1.100000e-02)	0
1.56058       	U             	(-1.117217e+00 -1.535869e+00 -1.237591e-25)	(8.315958e-03 1.596228e-02 1.100000e-02)	0	(2.247507e+00 7.606740e-01 1.636920e-26)	(1.160664e-01 6.134703e-03 1.100000e-02)	7
1.56058       	k             	2.922230e-04	(1.561886e-02 1.468819e-02 1.100000e-02)	0	1.273398e+01	(-1.505568e-01 1.059942e-05 1.100000e-02)	4
1.56058       	p_rgh         	1.629070e+03	(3.860368e-02 1.306921e-02 1.100000e-02)	1	7.023270e+04	(1.111600e+00 -1.179002e-01 1.100000e-02)	9
1.56058       	omega         	1.332275e+02	(1.032290e+00 -3.229898e-02 1.100000e-02)	8	5.430720e+05	(8.844358e-03 1.555013e-02 1.100000e-02)	0
1.56097       	U             	(-1.511791e+00 -7.863462e-01 -3.044914e-27)	(1.110714e-02 1.545942e-02 1.100000e-02)	0	(1.189044e+01 1.549339e+00 5.088108e-28)	(6.672874e-03 1.877018e-02 1.100000e-02)	0
1.56097       	k             	2.922230e-04	(1.561886e-02 1.468819e-02 1.100000e-02)	0	1.273398e+01	(-1.505568e-01 1.059942e-05 1.100000e-02)	4
1.56097       	p_rgh         	1.630915e+03	(3.827283e-02 1.326777e-02 1.100000e-02)	1	7.025526e+04	(1.111600e+00 -1.179002e-01 1.100000e-02)	9
1.56097       	omega         	1.330287e+02	(1.039840e+00 -3.415296e-02 1.100000e-02)	8	5.430720e+05	(8.844358e-03 1.555013e-02 1.100000e-02)	0
1.56137       	U             	(-3.065189e+00 -1.009131e+00 -7.087586e-26)	(7.080316e-03 1.603133e-02 1.100000e-02)	0	(1.133237e+01 1.398294e+00 8.973938e-28)	(7.168677e-03 1.824380e-02 1.100000e-02)	0
1.56137       	k             	2.922230e-04	(1.561886e-02 1.468819e-02 1.100000e-02)	0	1.273398e+01	(-1.505568e-01 1.059942e-05 1.100000e-02)	4
1.56137       	p_rgh         	1.630217e+03	(3.793237e-02 1.315325e-02 1.100000e-02)	1	7.027957e+04	(1.111600e+00 -1.179002e-01 1.100000e-02)	9
1.56137       	omega         	1.328476e+02	(1.039840e+00 -3.415296e-02 1.100000e-02)	8	5.430720e+05	(8.844358e-03 1.555013e-02 1.100000e-02)	0
1.56176       	U             	(-1.554744e+00 -1.363821e-01 -1.749243e-27)	(6.897773e-03 1.579861e-02 1.100000e-02)	0	(9.698601e-01 3.135481e-01 9.118116e-26)	(1.071974e-02 1.546457e-02 1.100000e-02)	0
1.56176       	k             	2.922230e-04	(1.561886e-02 1.468819e-02 1.100000e-02)	0	1.273398e+01	(-1.505568e-01 1.059942e-05 1.100000e-02)	4
1.56176       	p_rgh         	1.635196e+03	(3.827902e-02 1.343850e-02 1.100000e-02)	1	7.030286e+04	(1.111600e+00 -1.180004e-01 1.100000e-02)	9
1.56176       	omega         	1.326940e+02	(1.039840e+00 -3.415296e-02 1.100000e-02)	8	5.430720e+05	(8.844358e-03 1.555013e-02 1.100000e-02)	0
1.56215       	U             	(-1.826574e+00 -3.397338e-01 -5.200883e-27)	(6.726276e-03 1.581986e-02 1.100000e-02)	0	(3.416019e+00 5.774292e-01 2.635004e-26)	(2.187935e-01 -4.622657e-03 1.100000e-02)	7
1.56215       	k             	2.922230e-04	(1.561886e-02 1.468819e-02 1.100000e-02)	0	1.273398e+01	(-1.505568e-01 1.059942e-05 1.100000e-02)	4
1.56215       	p_rgh         	1.633683e+03	(3.794424e-02 1.348003e-02 1.100000e-02)	1	7.032488e+04	(1.111600e+00 -1.179002e-01 1.100000e-02)	9
1.56215       	omega         	1.325024e+02	(1.039844e+00 -3.284514e-02 1.100000e-02)	8	5.430720e+05	(8.844358e-03 1.555013e-02 1.100000e-02)	0
1.56254       	U             	(-1.671043e+00 -4.807583e-01 4.645334e-29)	(6.555674e-03 1.584099e-02 1.100000e-02)	0	(9.297738e+00 6.170970e-01 9.346865e-27)	(1.200075e-02 1.816141e-02 1.100000e-02)	0
1.56254       	k             	2.922230e-04	(1.561886e-02 1.468819e-02 1.100000e-02)	0	1.273398e+01	(-1.505568e-01 1.059942e-05 1.100000e-02)	4
1.56254       	p_rgh         	1.636882e+03	(3.727082e-02 1.331266e-02 1.100000e-02)	1	7.034608e+04	(1.111600e+00 -1.179002e-01 1.100000e-02)	9
1.56254       	omega         	1.323310e+02	(1.039844e+00 -3.284514e-02 1.100000e-02)	8	5.430720e+05	(8.844358e-03 1.555013e-02 1.100000e-02)	0
1.56294       	U             	(-4.189205e+00 2.520902e+00 4.279301e-28)	(6.555674e-03 1.584099e-02 1.100000e-02)	0	(1.106205e+01 2.991764e+00 5.465926e-27)	(-1.071475e-04 1.762649e-02 1.100000e-02)	2
1.56294       	k             	2.922230e-04	(1.561886e-02 1.468819e-02 1.100000e-02)	0	1.384010e+01	(1.139279e-02 1.775455e-02 1.100000e-02)	0
1.56294       	p_rgh         	1.639483e+03	(3.694415e-02 1.343339e-02 1.100000e-02)	1	7.036920e+04	(1.111600e+00 -1.177955e-01 1.100000e-02)	9
1.56294       	omega         	1.321273e+02	(1.047394e+00 -3.470241e-02 1.100000e-02)	8	5.430720e+05	(8.844358e-03 1.555013e-02 1.100000e-02)	0
1.56333       	U             	(-1.657133e+00 -4.051726e-01 -2.651124e-27)	(9.027265e-03 1.553481e-02 1.100000e-02)	0	(1.106509e+01 2.991961e+00 5.464378e-27)	(-1.071475e-04 1.762649e-02 1.100000e-02)	2