/*--------------------------------*- C++ -*----------------------------------*\
| =========                 |                                                 |
| \\      /  F ield         | OpenFOAM: The Open Source CFD Toolbox           |
|  \\    /   O peration     | Version:  v2106                                 |
|   \\  /    A nd           | Website:  www.openfoam.com                      |
|    \\/     M anipulation  |                                                 |
\*---------------------------------------------------------------------------*/
FoamFile
{
    version     2.0;
    format      ascii;
    arch        "LSB;label=32;scalar=64";
    class       volScalarField;
    location    "0";
    object      k;
}
// * * * * * * * * * * * * * * * * * * * * * * * * * * * * * * * * * * * * * //

dimensions      [0 2 -2 0 0 0 0];

internalField   nonuniform List<scalar> 
102000
(
3.23013
2.45501
2.11921
1.27546
1.07347
1.03382
1.02959
0.974161
0.930176
0.921678
0.926789
0.89157
0.86738
0.857179
0.857838
0.840884
0.81787
0.813973
0.816429
0.80421
0.782255
0.779677
0.782985
0.774441
0.754016
0.750144
0.753715
0.747839
0.72817
0.72238
0.724841
0.720677
0.701033
0.692841
0.693427
0.690475
0.670959
0.658611
0.657302
0.654515
0.632078
0.618306
0.609815
0.606453
0.582991
0.55848
0.547288
0.541442
0.507571
0.484387
0.449584
0.441924
0.410692
0.343349
0.307498
0.290184
0.219521
0.237818
0.288281
0.3034
0.356737
0.439719
0.490018
0.499171
0.52185
0.53429
0.563164
0.569208
0.607712
0.663303
0.720702
0.72483
0.744951
0.799193
0.846165
0.839654
0.885522
0.897113
0.919369
0.919923
0.945368
0.970987
0.985605
0.982775
1.00335
1.03769
1.04289
1.03676
1.06637
1.10415
1.09832
1.09365
1.13085
1.16993
1.14998
1.18109
1.19509
1.20844
1.19634
1.21857
1.25506
1.25089
1.23889
1.27632
1.31626
1.29097
1.31459
1.33741
1.34509
1.32865
1.35986
1.40043
1.38187
1.51221
1.42154
1.43437
1.41462
1.44452
1.48555
1.46557
1.60245
1.50606
1.51515
1.49255
1.52843
1.57202
1.54006
1.56432
1.59308
1.58707
1.59043
1.61551
1.63336
1.60591
1.6412
1.68784
1.65229
1.6777
1.70889
1.69186
1.84305
1.7294
1.72955
1.72491
1.75144
1.7642
1.73174
1.77694
1.80229
1.77035
1.8122
1.84551
1.8116
1.85184
1.90638
1.85543
1.89676
1.94653
1.89299
1.92853
1.97722
1.91967
1.9591
1.98865
1.94671
1.99197
2.01294
1.98148
2.02843
2.03519
2.20326
2.06605
2.05323
2.23735
2.1083
2.07008
2.10968
2.15581
2.09204
2.14361
2.14909
2.3308
2.19269
2.15999
2.20402
2.22531
2.1892
2.24102
2.22864
2.29686
2.30107
2.24047
2.30288
2.2944
2.5038
2.37595
2.31737
2.39658
2.37766
2.4339
2.4146
2.55877
2.3955
2.34389
2.48346
2.4542
2.54881
2.50517
2.44876
2.3867
2.12175
2.05472
1.72391
1.71632
1.59013
1.60383
1.55533
1.55974
1.51005
1.48135
1.50176
1.31902
1.40711
1.20752
1.18316
1.09476
1.07696
1.07437
1.07844
1.00956
0.98566
0.824869
0.794908
0.68064
0.594807
0.575668
0.490762
0.466448
0.279059
0.260625
0.119404
0.156934
0.153694
0.208152
0.217451
0.163698
0.160644
0.137216
0.0728778
0.0534963
0.0504663
0.0490925
0.0469262
0.0414142
0.041695
0.0515685
0.0535572
0.0653969
0.0624386
0.0533123
0.0623079
0.0614026
0.0215375
0.019021
0.00528453
0.020234
0.0215927
0.0352702
0.0313263
0.0413388
0.0394595
0.0373445
0.0167806
0.0104432
0.0107441
0.0139442
0.0130674
0.0148348
0.0165981
0.0169077
0.0190642
0.0235511
0.0257893
0.0335965
0.0297191
0.0336404
0.0334714
0.0316683
0.0160726
0.0415099
0.042998
0.0489001
0.0528223
0.0586395
0.0751893
0.0827656
0.0949757
0.116074
0.104658
0.120763
0.132752
0.134243
0.170287
0.21462
0.221973
0.271533
0.314714
0.320691
0.360047
0.399489
0.405104
0.44525
0.48424
0.488926
0.526995
0.557403
0.559274
0.588005
0.608057
0.606449
0.627356
0.643097
0.639754
0.659509
0.672994
0.675554
0.684357
0.696387
0.697647
0.703015
0.711493
0.712595
0.713992
0.693699
0.717546
0.714225
0.718258
0.716365
0.708143
0.71411
0.712705
0.699585
0.702695
0.694535
0.688451
0.684639
0.684272
0.674715
0.661613
0.665065
0.659245
0.638087
0.639511
0.582282
0.620975
0.610435
0.613413
0.603451
0.578392
0.583356
0.516404
0.561122
0.55111
0.555369
0.545688
0.520149
0.525394
0.455854
0.507986
0.495172
0.502712
0.498447
0.475068
0.476303
0.479344
0.470863
0.448904
0.463011
0.463367
0.450207
0.443118
0.455428
0.454855
0.436653
0.44018
0.448109
0.437891
0.415218
0.426854
0.359638
0.423769
0.412358
0.428146
0.435407
0.419903
0.415734
0.430308
0.431498
0.414591
0.416457
0.429332
0.424304
0.40517
0.41117
0.41697
0.407962
0.387032
0.396286
0.38553
0.383797
0.361292
0.37266
0.304488
0.356538
0.340505
0.3454
0.324206
0.322641
0.308702
0.314239
0.305157
0.296162
0.28338
0.287176
0.278276
0.270454
0.25897
0.265413
0.254414
0.256622
0.245507
0.253202
0.206438
0.249346
0.237473
0.246327
0.244956
0.242535
0.229351
0.235634
0.240787
0.234975
0.223158
0.227447
0.235619
0.232706
0.22151
0.223209
0.232855
0.232161
0.22104
0.219125
0.226312
0.221749
0.205365
0.198517
0.201445
0.200161
0.185684
0.174841
0.177653
0.173144
0.166287
0.152408
0.155943
0.158838
0.154097
0.143941
0.143763
0.147567
0.148415
0.140238
0.136634
0.142442
0.144415
0.139553
0.131629
0.13642
0.139267
0.13494
0.126106
0.126627
0.130108
0.128787
0.120365
0.116995
0.121291
0.122042
0.116762
0.10967
0.114279
0.118399
0.115113
0.107852
0.107731
0.111811
0.112418
0.103951
0.0990326
0.102229
0.101195
0.0987661
0.0911275
0.0925664
0.0948684
0.0927993
0.0856197
0.082926
0.0849566
0.0818337
0.0791565
0.0717805
0.0737482
0.0753885
0.0722811
0.0660376
0.064361
0.0670471
0.0688514
0.0638778
0.0591113
0.062026
0.0658408
0.0656756
0.0629675
0.0624932
0.066891
0.0705902
0.0679732
0.0649561
0.06731
0.0699972
0.0687177
0.0647362
0.0635541
0.065395
0.0660121
0.0630289
0.0595563
0.0611869
0.063993
0.0649668
0.0642092
0.063799
0.0701089
0.0694121
0.0794851
0.081853
0.0844911
0.0929918
0.099333
0.10179
0.101304
0.107404
0.112758
0.113812
0.112177
0.11234
0.114798
0.115442
0.111118
0.106595
0.108461
0.109472
0.106252
0.100665
0.0988387
0.0995909
0.095894
0.0930995
0.0872851
0.08829
0.089535
0.0874359
0.0796409
0.0759502
0.076824
0.0792218
0.0765165
0.0737031
0.0738857
0.0776945
0.0813891
0.0806258
0.0798044
0.0819569
0.0858465
0.0872993
0.0866072
0.0852537
0.0850368
0.0876216
0.0899672
0.0901778
0.0877571
0.0860619
0.0888868
0.0918538
0.0950862
0.0954999
0.0967846
0.102221
0.106427
0.10497
0.105724
0.114359
0.118786
0.12665
0.130264
0.141242
0.154165
0.160508
0.16452
0.168828
0.174769
0.177559
0.187927
0.201291
0.205309
0.212689
0.211324
0.205118
0.200037
0.178465
0.158063
0.15071
0.129793
0.11917
0.115601
0.104179
0.0960467
0.0933335
0.0847792
0.0803337
0.0792813
0.0774608
0.0782434
0.0797522
0.0871937
0.0965891
0.125768
0.167987
0.172319
0.181718
0.210799
0.214321
0.218047
0.198579
0.190113
0.148087
0.1269
0.120841
0.10613
0.0950001
0.0921378
0.0787004
0.0658376
0.059579
0.0580465
0.0549045
0.0601491
0.0644147
0.083373
0.101717
0.125615
0.13149
0.154323
0.163412
0.163758
0.158645
0.14298
0.139151
0.11901
0.104843
0.0929878
0.089365
0.0773508
0.0668685
0.066878
0.0663025
2.55732
1.7508
1.65568
1.11185
0.987189
0.931785
0.922282
0.895189
0.870037
0.843237
0.835765
0.822497
0.814985
0.790476
0.774508
0.776524
0.771876
0.754755
0.741095
0.742402
0.738521
0.726046
0.714099
0.714753
0.711283
0.701215
0.690182
0.690153
0.686548
0.677641
0.666214
0.665447
0.661136
0.652313
0.639845
0.638421
0.633489
0.622575
0.609435
0.60724
0.598471
0.587238
0.568587
0.565629
0.555075
0.534734
0.515821
0.511451
0.488707
0.469068
0.430421
0.425118
0.404102
0.345126
0.311145
0.301171
0.233513
0.242342
0.273121
0.280661
0.337875
0.412639
0.446811
0.452022
0.484967
0.499631
0.514506
0.519035
0.56179
0.607113
0.641582
0.648136
0.680951
0.723976
0.744932
0.750896
0.785026
0.809028
0.804389
0.828685
0.878604
0.873839
0.870252
0.891936
0.927585
0.930333
0.928452
0.946934
0.977951
0.98374
0.984591
1.00229
1.02886
1.03459
1.03869
1.09551
1.07793
1.07139
1.08918
1.12383
1.12231
1.1203
1.13521
1.16297
1.16461
1.16768
1.2237
1.20434
1.19737
1.21339
1.24687
1.24509
1.24494
1.22172
1.28404
1.27357
1.28949
1.32677
1.32143
1.31981
1.37657
1.35844
1.34717
1.3618
1.39825
1.39213
1.39153
1.45271
1.42782
1.41928
1.44123
1.46415
1.44592
1.46079
1.50371
1.49386
1.49121
1.55422
1.52628
1.5172
1.48601
1.55672
1.54132
1.56401
1.58772
1.56504
1.57721
1.6188
1.58905
1.60557
1.65648
1.61922
1.63764
1.69593
1.67833
1.67184
1.737
1.71315
1.70535
1.76636
1.73988
1.73188
1.79074
1.74263
1.75904
1.81289
1.76991
1.79077
1.83468
1.79821
1.76308
1.85454
1.82534
1.78952
1.87459
1.85293
1.93663
1.89439
1.88442
1.942
1.89485
1.8596
1.95542
1.92548
2.0195
1.93812
1.96549
2.01663
1.97111
2.07515
2.02518
2.00669
2.07693
2.02117
2.12524
2.08759
2.07119
2.15586
2.10282
2.23448
2.1027
2.01173
2.10585
2.06076
2.20622
2.13117
2.25254
2.17266
2.17777
2.09678
1.90404
1.8298
1.54288
1.52165
1.4166
1.40545
1.3765
1.35193
1.31203
1.27746
1.14034
1.12913
1.06714
1.05268
1.0691
0.968244
0.972767
0.965093
0.966228
0.916345
0.894741
0.765514
0.738742
0.587718
0.587925
0.586848
0.554619
0.54158
0.353895
0.343496
0.248568
0.231329
0.213212
0.264242
0.262376
0.18804
0.181704
0.126664
0.0985575
0.0867046
0.0949223
0.0930888
0.0860744
0.0877339
0.0779303
0.0972385
0.0960714
0.11274
0.117564
0.144035
0.100414
0.0925345
0.040504
0.0391803
0.0222935
0.0410155
0.0424061
0.061168
0.0637345
0.0686604
0.068703
0.0648123
0.0319921
0.0221442
0.0196107
0.0237064
0.0239645
0.0251238
0.029278
0.0289496
0.0312353
0.0409625
0.0417738
0.0522945
0.053172
0.0539169
0.0606551
0.0609103
0.0701593
0.076809
0.0767044
0.0811541
0.0950707
0.0938639
0.109816
0.133007
0.131202
0.156888
0.161712
0.163182
0.181297
0.184699
0.20334
0.248805
0.255151
0.297548
0.347543
0.352483
0.387851
0.43611
0.441207
0.478136
0.527663
0.532021
0.564388
0.603982
0.606409
0.628463
0.656797
0.657521
0.671996
0.693721
0.693606
0.707002
0.723342
0.731744
0.733645
0.745429
0.752393
0.753556
0.757816
0.766798
0.766598
0.756698
0.773463
0.771491
0.768575
0.774909
0.771481
0.771801
0.772687
0.768542
0.767744
0.755199
0.760565
0.75819
0.746071
0.74868
0.744902
0.738095
0.7327
0.72511
0.722567
0.710161
0.707337
0.704041
0.692416
0.686812
0.67711
0.673725
0.663482
0.655704
0.652585
0.639424
0.634015
0.625129
0.621531
0.61496
0.605419
0.602815
0.591803
0.586389
0.58031
0.57737
0.558825
0.565782
0.561092
0.557122
0.546934
0.550777
0.549085
0.542156
0.543251
0.541985
0.539861
0.526648
0.531659
0.52666
0.522975
0.527379
0.522579
0.521928
0.519161
0.519866
0.521624
0.520484
0.516236
0.518886
0.518427
0.516788
0.509945
0.513247
0.510083
0.507591
0.492672
0.497836
0.492382
0.489083
0.462346
0.473218
0.465393
0.461312
0.457565
0.443524
0.441279
0.429411
0.405302
0.406832
0.404761
0.393714
0.375339
0.375294
0.372962
0.360968
0.343412
0.343766
0.342208
0.334425
0.319613
0.324863
0.323848
0.318682
0.319654
0.313776
0.312107
0.310288
0.297566
0.304354
0.301318
0.299421
0.291145
0.295652
0.294614
0.293299
0.289201
0.29272
0.292253
0.291307
0.289194
0.290435
0.289971
0.289123
0.284781
0.27701
0.270041
0.268294
0.2594
0.25095
0.245285
0.243737
0.234981
0.217122
0.220022
0.214117
0.211748
0.202972
0.201454
0.198034
0.196562
0.1901
0.188907
0.186757
0.18612
0.183576
0.180258
0.180901
0.179058
0.177708
0.172163
0.173401
0.170856
0.169825
0.166285
0.165196
0.163093
0.162516
0.159998
0.156376
0.15686
0.155973
0.154845
0.150989
0.151664
0.150249
0.149495
0.146474
0.145106
0.142169
0.141582
0.137867
0.128361
0.132108
0.129097
0.127929
0.123771
0.121625
0.118667
0.117932
0.114476
0.108562
0.108671
0.105446
0.104255
0.100388
0.0986267
0.0966983
0.0961963
0.0938362
0.0922905
0.0911742
0.0901345
0.0893315
0.0878166
0.0888052
0.0893243
0.0892225
0.0890707
0.0898183
0.0899554
0.0897019
0.0892392
0.0879105
0.0876124
0.0864922
0.0861575
0.0846943
0.0830647
0.0828663
0.0823404
0.0819426
0.0813501
0.0828443
0.0848522
0.0853737
0.0886832
0.0889601
0.079484
0.102882
0.103776
0.109491
0.115447
0.120104
0.120794
0.124645
0.127186
0.130688
0.131632
0.131748
0.132345
0.132434
0.131478
0.130473
0.130127
0.128359
0.127062
0.125237
0.124822
0.122419
0.11688
0.116698
0.114346
0.113589
0.11075
0.107981
0.103766
0.103229
0.0999879
0.0976859
0.0970139
0.0967978
0.096666
0.0965901
0.0976196
0.0990108
0.100215
0.100309
0.101385
0.102476
0.103634
0.104157
0.10426
0.105065
0.105173
0.106654
0.10689
0.107018
0.107553
0.107543
0.113586
0.1172
0.117705
0.120109
0.12443
0.126191
0.126817
0.13223
0.136205
0.1466
0.148194
0.155599
0.168066
0.174798
0.176817
0.179909
0.184598
0.185407
0.192008
0.200073
0.200547
0.207512
0.203691
0.193129
0.192593
0.172799
0.149545
0.146334
0.126979
0.114324
0.112879
0.102801
0.0940817
0.0931364
0.0863708
0.0831377
0.0829456
0.0827223
0.0854991
0.0863895
0.0920134
0.0952403
0.122264
0.156015
0.158407
0.175149
0.198815
0.201559
0.207653
0.18429
0.181959
0.142356
0.118916
0.11574
0.103136
0.090651
0.0885985
0.0776325
0.0665595
0.0618997
0.0614035
0.059357
0.0629974
0.0644834
0.0819965
0.0979804
0.119788
0.125222
0.147668
0.153373
0.153869
0.152273
0.1355
0.131359
0.113736
0.1006
0.0868829
0.0850603
0.0754966
0.0648079
0.0645199
0.0657739
1.37424
1.17164
1.13946
0.925816
0.851993
0.81643
0.810786
0.790657
0.772067
0.753936
0.749752
0.737691
0.731785
0.713065
0.702196
0.701797
0.696807
0.683859
0.674719
0.674312
0.669205
0.660121
0.652184
0.651697
0.646925
0.639439
0.63208
0.631412
0.626672
0.619733
0.61213
0.611187
0.606017
0.598868
0.59052
0.589277
0.583403
0.574851
0.565515
0.563843
0.555586
0.545878
0.533078
0.530863
0.520479
0.505091
0.490272
0.487094
0.469141
0.450995
0.424513
0.420161
0.398294
0.357659
0.324053
0.316487
0.26898
0.242443
0.261457
0.266325
0.318679
0.37273
0.401344
0.406157
0.433493
0.452872
0.469786
0.518985
0.49758
0.528298
0.55525
0.560118
0.589148
0.620146
0.64069
0.644843
0.682119
0.694266
0.69412
0.714217
0.753468
0.754849
0.754604
0.772129
0.799705
0.807275
0.807273
0.82251
0.845622
0.854987
0.855865
0.874991
0.891571
0.900902
0.902892
0.946247
0.935355
0.933122
0.947111
0.972343
0.976618
0.975918
0.992316
1.00903
1.01549
1.01667
1.05698
1.047
1.04411
1.05769
1.08038
1.0846
1.08426
1.13601
1.11537
1.11073
1.1237
1.14874
1.15049
1.1493
1.20408
1.17959
1.17428
1.18785
1.21066
1.21204
1.21116
1.2533
1.24014
1.23565
1.26295
1.26863
1.2597
1.2727
1.2988
1.29746
1.29559
1.33892
1.32488
1.31983
1.37787
1.35006
1.34192
1.369
1.37607
1.36432
1.37932
1.39884
1.38308
1.39728
1.42699
1.40685
1.42132
1.45657
1.44866
1.44608
1.48648
1.4772
1.47482
1.51398
1.5024
1.50048
1.53615
1.509
1.52608
1.55552
1.53126
1.55544
1.57466
1.55418
1.59487
1.59329
1.57712
1.65339
1.61188
1.60127
1.65517
1.63043
1.63227
1.66123
1.63405
1.62827
1.67471
1.65948
1.72108
1.66929
1.69924
1.7206
1.69493
1.77857
1.73103
1.72962
1.76421
1.73207
1.82199
1.77918
1.78176
1.83408
1.80553
1.89514
1.80368
1.79509
1.77166
1.74919
1.80624
1.76618
1.82981
1.78737
1.80047
1.75473
1.62115
1.57575
1.35231
1.33126
1.20972
1.19716
1.16021
1.13749
1.10762
1.07562
1.00389
0.969387
0.985383
0.916754
0.923595
0.867286
0.867508
0.846852
0.845247
0.816648
0.806215
0.734996
0.719444
0.623488
0.636988
0.633731
0.616117
0.607136
0.501767
0.494292
0.358761
0.35584
0.327425
0.347023
0.339326
0.255643
0.251344
0.182505
0.17575
0.160606
0.173306
0.170872
0.155308
0.161288
0.139914
0.168107
0.166649
0.187481
0.194896
0.195397
0.154124
0.142861
0.0724326
0.0719591
0.0458292
0.0761642
0.0779059
0.103575
0.108669
0.114284
0.111931
0.10705
0.057765
0.0424741
0.037149
0.0411176
0.0423023
0.0428156
0.0511729
0.051104
0.0531131
0.0674305
0.067104
0.078293
0.0810655
0.08367
0.0945933
0.0960835
0.0979174
0.117535
0.117937
0.124168
0.139211
0.13815
0.153777
0.176563
0.176933
0.203384
0.208537
0.224765
0.246691
0.249615
0.259661
0.301885
0.308457
0.346416
0.403771
0.409837
0.442301
0.50317
0.509436
0.5441
0.608216
0.613494
0.640689
0.691502
0.694875
0.712046
0.749603
0.751814
0.763588
0.79126
0.793242
0.803442
0.822319
0.834977
0.833297
0.843509
0.856769
0.855554
0.851211
0.872679
0.871525
0.844042
0.882834
0.88163
0.872939
0.888536
0.887808
0.88596
0.888764
0.892109
0.889463
0.86616
0.889153
0.886924
0.868303
0.881675
0.879975
0.872313
0.867327
0.866657
0.863313
0.817688
0.852199
0.849641
0.836343
0.833114
0.827203
0.822942
0.779526
0.807462
0.804652
0.789662
0.785646
0.779157
0.775002
0.725807
0.759571
0.757166
0.744878
0.738093
0.734458
0.731271
0.706206
0.718858
0.714255
0.709752
0.690838
0.702947
0.701164
0.692595
0.693057
0.692614
0.6903
0.671864
0.682577
0.678719
0.675068
0.642584
0.673981
0.673219
0.669699
0.666664
0.671573
0.670308
0.664771
0.666696
0.666653
0.664859
0.655151
0.65941
0.655971
0.653352
0.633273
0.641962
0.635528
0.632045
0.594073
0.613862
0.604423
0.600076
0.554732
0.578349
0.575638
0.562051
0.524702
0.536122
0.533402
0.519915
0.490048
0.49635
0.49331
0.478405
0.450149
0.456143
0.454047
0.444133
0.417355
0.430272
0.428824
0.422008
0.391937
0.41437
0.411927
0.409993
0.389807
0.402242
0.398846
0.396934
0.385978
0.393153
0.392356
0.391147
0.386419
0.3909
0.390511
0.389608
0.387253
0.38832
0.387733
0.386789
0.382205
0.372241
0.364331
0.362153
0.352123
0.338643
0.334982
0.332803
0.32276
0.299321
0.304061
0.296058
0.293511
0.282401
0.278894
0.27297
0.196634
0.262175
0.258466
0.254715
0.253694
0.249655
0.241294
0.244565
0.242038
0.24065
0.23404
0.23574
0.23317
0.232152
0.22853
0.227456
0.225324
0.224631
0.221831
0.214881
0.21831
0.216611
0.21548
0.210789
0.211097
0.208797
0.2079
0.204225
0.201733
0.198183
0.197263
0.192866
0.180026
0.184538
0.180556
0.179283
0.173932
0.170653
0.166683
0.165757
0.16154
0.15154
0.154394
0.150418
0.149135
0.144627
0.142462
0.140047
0.139409
0.136657
0.133209
0.132674
0.0901506
0.129689
0.127217
0.127193
0.126586
0.126266
0.125181
0.123861
0.123991
0.122905
0.122349
0.120319
0.119645
0.118162
0.117744
0.116107
0.112846
0.11403
0.113354
0.112986
0.112266
0.113606
0.115395
0.115854
0.118978
0.115211
0.098044
0.132901
0.133743
0.139011
0.144795
0.149265
0.149989
0.15367
0.15561
0.160042
0.16174
0.161956
0.163158
0.164047
0.16437
0.164302
0.164104
0.16308
0.162769
0.161533
0.161179
0.159293
0.151351
0.154143
0.151346
0.15056
0.147245
0.143814
0.139902
0.139184
0.135638
0.132028
0.130645
0.129323
0.128991
0.127818
0.127343
0.128007
0.128571
0.128543
0.12898
0.129984
0.131113
0.13192
0.132056
0.132993
0.133406
0.135205
0.135997
0.136169
0.136992
0.108125
0.144334
0.148077
0.148638
0.15153
0.155784
0.157973
0.15861
0.163668
0.16722
0.175676
0.177024
0.183743
0.192416
0.198329
0.199768
0.20238
0.202997
0.202947
0.202624
0.202805
0.20249
0.20277
0.196051
0.185822
0.184503
0.167207
0.146824
0.143518
0.12502
0.113349
0.111663
0.102497
0.0960713
0.0951964
0.0911518
0.0908279
0.0909131
0.0934953
0.0983106
0.099405
0.10524
0.107245
0.121654
0.140749
0.143413
0.164878
0.18483
0.187026
0.191927
0.174008
0.171804
0.137494
0.115479
0.112072
0.0988432
0.087909
0.0862518
0.0773716
0.0702432
0.0686031
0.0684851
0.0685663
0.0715453
0.0724337
0.0812094
0.0961554
0.114638
0.118885
0.137731
0.143511
0.143976
0.142509
0.128367
0.124894
0.108364
0.0954866
0.0832686
0.0814724
0.072796
0.065525
0.0653561
0.0658753
1.37249
1.17155
1.13939
0.925609
0.85139
0.816402
0.810772
0.79058
0.770705
0.753907
0.749743
0.737644
0.722686
0.713028
0.702188
0.701763
0.691337
0.683811
0.67471
0.674285
0.668
0.660056
0.652173
0.651674
0.646383
0.63935
0.632067
0.631391
0.626343
0.619613
0.612115
0.611169
0.605786
0.598713
0.590504
0.589261
0.583227
0.574668
0.565498
0.563829
0.555456
0.545686
0.533064
0.530854
0.520391
0.504982
0.490265
0.487091
0.469145
0.451007
0.424529
0.420176
0.398391
0.358107
0.324087
0.316521
0.269521
0.257998
0.261437
0.266434
0.318617
0.37251
0.40139
0.406147
0.432792
0.452623
0.469822
0.473069
0.495942
0.52795
0.555332
0.559987
0.582524
0.619806
0.640763
0.644579
0.6584
0.693991
0.694081
0.713728
0.737657
0.754666
0.754505
0.771167
0.795976
0.807168
0.807085
0.820007
0.84419
0.854951
0.855519
0.862414
0.890892
0.900936
0.902159
0.918913
0.935016
0.932898
0.945035
0.968845
0.97648
0.975458
0.979795
1.00797
1.0155
1.01551
1.03581
1.04659
1.04371
1.0524
1.07792
1.0845
1.0832
1.08462
1.11467
1.11028
1.11861
1.14508
1.15032
1.14795
1.14836
1.17879
1.17363
1.17871
1.20754
1.21191
1.2087
1.23208
1.23952
1.23446
1.22953
1.26687
1.25896
1.26412
1.29355
1.29721
1.29193
1.31882
1.32417
1.31767
1.31664
1.34862
1.34038
1.33433
1.37345
1.36305
1.36041
1.39429
1.38197
1.38444
1.41965
1.40579
1.41077
1.44596
1.44813
1.43586
1.47306
1.47657
1.46359
1.50023
1.50172
1.48667
1.52405
1.50731
1.50623
1.54612
1.52902
1.52254
1.56801
1.55093
1.54284
1.58893
1.57175
1.57135
1.60924
1.59046
1.62472
1.62906
1.6041
1.65012
1.62945
1.62827
1.67014
1.6478
1.68176
1.66609
1.65811
1.71062
1.68652
1.6879
1.72793
1.69595
1.74936
1.72319
1.7259
1.77569
1.73993
1.82042
1.79241
1.8308
1.7966
1.73261
1.76233
1.71995
1.78123
1.7379
1.80292
1.75823
1.77422
1.72988
1.59969
1.56058
1.26186
1.32385
1.18675
1.19078
1.12774
1.13236
1.06767
1.07216
1.00389
0.967089
0.953346
0.914169
0.907798
0.864888
0.862073
0.842941
0.842445
0.812166
0.805558
0.741119
0.720586
0.626223
0.638193
0.639389
0.622257
0.614125
0.521235
0.498797
0.389044
0.358746
0.354755
0.351785
0.347237
0.267641
0.254347
0.191738
0.177876
0.175314
0.178103
0.174965
0.170883
0.162717
0.159992
0.170546
0.170945
0.197262
0.19627
0.223745
0.155583
0.145804
0.0767368
0.0726575
0.0558021
0.0772434
0.0797776
0.109982
0.109209
0.123682
0.113524
0.108463
0.0659846
0.0428841
0.0389355
0.0426067
0.0426173
0.049239
0.051852
0.0518782
0.0595031
0.0677666
0.0690124
0.0800484
0.0812866
0.0881311
0.0955058
0.0965185
0.113734
0.118091
0.118747
0.131287
0.139597
0.139549
0.156646
0.176718
0.178591
0.204773
0.208645
0.228835
0.248811
0.250078
0.268632
0.303726
0.308982
0.358142
0.405406
0.410472
0.458689
0.505039
0.510235
0.564099
0.610404
0.614417
0.660588
0.694063
0.695787
0.728103
0.75276
0.752635
0.774834
0.795493
0.793932
0.810545
0.828683
0.835604
0.837597
0.855003
0.857608
0.85814
0.877834
0.873876
0.873105
0.873622
0.884738
0.88262
0.888529
0.89213
0.888438
0.891129
0.898067
0.892896
0.891657
0.905564
0.890557
0.888011
0.888872
0.88478
0.880565
0.876734
0.878551
0.867504
0.864876
0.858229
0.854029
0.850344
0.843182
0.839334
0.827857
0.824679
0.816938
0.808934
0.805323
0.796346
0.791273
0.77976
0.776433
0.769818
0.761094
0.757681
0.748915
0.746381
0.735119
0.732182
0.728465
0.720993
0.71461
0.711576
0.719269
0.703863
0.701654
0.697174
0.698217
0.693109
0.691053
0.689952
0.684494
0.679036
0.676292
0.690084
0.674967
0.673531
0.671776
0.678422
0.672172
0.670707
0.668569
0.670972
0.66706
0.665357
0.66277
0.661615
0.656272
0.653956
0.650249
0.643346
0.635766
0.632747
0.631369
0.614839
0.604622
0.600849
0.593307
0.579092
0.57581
0.562847
0.562779
0.536727
0.533565
0.520679
0.520193
0.496862
0.49346
0.479082
0.477944
0.456597
0.45417
0.444698
0.448113
0.430701
0.428925
0.422457
0.420752
0.414807
0.412021
0.410343
0.41366
0.402727
0.398944
0.397196
0.394855
0.393745
0.392459
0.391343
0.389909
0.391719
0.390628
0.389752
0.38882
0.389652
0.387871
0.386896
0.38299
0.375083
0.364504
0.362236
0.352525
0.350243
0.335205
0.332864
0.322983
0.315699
0.30438
0.296129
0.29364
0.284402
0.279442
0.273049
0.271155
0.262724
0.25986
0.254814
0.253739
0.249873
0.253036
0.244711
0.242076
0.240756
0.237174
0.236019
0.233219
0.232211
0.22905
0.228296
0.225396
0.224666
0.22201
0.225556
0.218433
0.216642
0.21556
0.212504
0.211369
0.20884
0.207942
0.204507
0.202943
0.198251
0.197288
0.192962
0.189507
0.184671
0.180586
0.179326
0.174335
0.171082
0.166726
0.165779
0.161639
0.16295
0.154473
0.150441
0.149173
0.14512
0.142697
0.140077
0.139427
0.13675
0.137412
0.13273
0.130588
0.129721
0.127696
0.127357
0.126608
0.12628
0.125255
0.126869
0.124033
0.122917
0.122374
0.120657
0.119782
0.11818
0.117755
0.116161
0.117597
0.114068
0.113364
0.113004
0.112475
0.113764
0.115411
0.115858
0.119014
0.125758
0.128346
0.132907
0.133756
0.139134
0.145046
0.149282
0.149994
0.153697
0.156997
0.160098
0.161749
0.161966
0.163228
0.164728
0.164394
0.164309
0.164124
0.163413
0.162869
0.161547
0.161188
0.159335
0.160646
0.154179
0.151355
0.150574
0.147355
0.144031
0.13992
0.139191
0.135659
0.132754
0.130697
0.129332
0.128998
0.127856
0.128555
0.128027
0.128576
0.128553
0.129082
0.130291
0.131142
0.131928
0.132062
0.133015
0.133739
0.135294
0.136008
0.136173
0.137009
0.137956
0.144372
0.148082
0.148645
0.151601
0.155861
0.157979
0.158614
0.163728
0.167271
0.205369
0.17703
0.183981
0.192429
0.198329
0.199781
0.202489
0.203
0.202951
0.202799
0.202807
0.202491
0.202774
0.196051
0.185824
0.184504
0.167208
0.146828
0.14352
0.125024
0.113351
0.111664
0.102502
0.0960725
0.0951977
0.0911583
0.0908282
0.0909152
0.0935008
0.0983099
0.0994103
0.105243
0.107244
0.121663
0.140747
0.143411
0.164705
0.184827
0.187026
0.191917
0.17401
0.171806
0.137496
0.115482
0.112073
0.0988426
0.08791
0.0862532
0.0773736
0.0702453
0.0686035
0.0684863
0.0686057
0.0715457
0.0724331
0.0812158
0.0961547
0.114633
0.118884
0.137723
0.143509
0.143977
0.142496
0.128368
0.124898
0.108364
0.0954861
0.0832706
0.0814735
0.0728176
0.0655265
0.065356
0.0658767
0.858043
0.864961
0.86247
0.798951
0.76582
0.747777
0.744884
0.732675
0.719856
0.708372
0.705891
0.696119
0.68717
0.677016
0.669002
0.66782
0.660498
0.652804
0.645976
0.645004
0.639274
0.632593
0.626625
0.62577
0.620629
0.614767
0.609215
0.608367
0.603396
0.597722
0.591989
0.591051
0.585869
0.579829
0.573577
0.572485
0.566638
0.559605
0.552271
0.550911
0.543567
0.534976
0.525467
0.523667
0.513947
0.502041
0.489337
0.486865
0.472884
0.455692
0.436815
0.433037
0.411252
0.382328
0.348432
0.34241
0.309945
0.288186
0.271438
0.274466
0.320541
0.35974
0.384434
0.388682
0.411577
0.433343
0.450929
0.453584
0.465856
0.487196
0.507904
0.511398
0.532266
0.560914
0.57998
0.583055
0.604191
0.627243
0.628646
0.646581
0.673281
0.685344
0.686207
0.701457
0.724763
0.735786
0.736288
0.748586
0.769442
0.78043
0.780953
0.792246
0.812763
0.823314
0.82385
0.845865
0.853458
0.852672
0.86369
0.884955
0.892786
0.892173
0.901025
0.921125
0.92957
0.929078
0.952385
0.957044
0.955398
0.964269
0.985211
0.992357
0.991066
1.0005
1.01895
1.01631
1.02461
1.04653
1.05227
1.05019
1.05906
1.07738
1.07401
1.08107
1.1032
1.10845
1.1056
1.1307
1.13259
1.12886
1.13835
1.15665
1.15129
1.15777
1.18053
1.18418
1.17992
1.20761
1.20883
1.20391
1.21234
1.23128
1.22522
1.23366
1.25427
1.24676
1.25125
1.2722
1.26288
1.26738
1.29322
1.28212
1.28766
1.31543
1.3152
1.3071
1.3372
1.33923
1.33124
1.36271
1.36295
1.35407
1.38421
1.36949
1.3745
1.40308
1.38869
1.39477
1.42141
1.40773
1.41517
1.43967
1.42657
1.43505
1.4574
1.44458
1.47758
1.47468
1.4633
1.49343
1.47591
1.48344
1.50863
1.49295
1.52726
1.50647
1.51362
1.54314
1.52392
1.55074
1.55582
1.54077
1.57451
1.55259
1.56237
1.59453
1.58003
1.63464
1.61207
1.6577
1.61515
1.57612
1.56792
1.54043
1.56587
1.53534
1.57152
1.54055
1.56432
1.53185
1.45619
1.42554
1.2518
1.23601
1.09926
1.09415
1.02974
1.02484
0.975232
0.96996
0.92029
0.889484
0.8801
0.852369
0.851148
0.823366
0.822841
0.808536
0.808376
0.793652
0.790651
0.76044
0.746326
0.691585
0.680023
0.675553
0.688469
0.686024
0.622384
0.608794
0.527382
0.481002
0.4647
0.458811
0.450989
0.371622
0.360965
0.296572
0.278804
0.268657
0.27075
0.266136
0.248198
0.244622
0.226154
0.240585
0.239561
0.260857
0.260309
0.268981
0.198221
0.187171
0.11205
0.10916
0.0859926
0.113922
0.116337
0.147528
0.149254
0.160918
0.149506
0.143916
0.0917445
0.0650679
0.0591397
0.0616538
0.0621424
0.0669048
0.0733733
0.0736516
0.0795473
0.0875433
0.0879638
0.0947173
0.0958315
0.101206
0.110695
0.112222
0.126071
0.135155
0.136522
0.148562
0.159331
0.160211
0.175546
0.194187
0.197276
0.225037
0.22992
0.258252
0.290731
0.293997
0.316745
0.359174
0.365101
0.410724
0.469307
0.475625
0.524401
0.586411
0.593033
0.645714
0.707858
0.71302
0.754865
0.801296
0.804071
0.831617
0.866854
0.868116
0.887109
0.914801
0.915187
0.929527
0.950995
0.96239
0.961587
0.977872
0.987065
0.985969
0.996162
1.00585
1.00445
1.01042
1.0196
1.01784
1.01749
1.02957
1.02748
1.0284
1.0358
1.03615
1.03367
1.03296
1.03612
1.0335
1.02572
1.03172
1.02867
1.02329
1.02347
1.01788
1.01455
1.01013
1.00491
1.00151
0.991353
0.988661
0.979638
0.975624
0.968678
0.96005
0.956467
0.944244
0.939853
0.929945
0.925967
0.918811
0.909625
0.906237
0.89524
0.890514
0.881755
0.878446
0.864467
0.865556
0.859004
0.855207
0.850365
0.846681
0.844319
0.837432
0.837927
0.833967
0.83163
0.82232
0.82472
0.819917
0.816908
0.817226
0.814869
0.813343
0.810499
0.812466
0.810535
0.808909
0.804873
0.806777
0.803661
0.801742
0.795199
0.796046
0.790544
0.787991
0.776212
0.775556
0.767126
0.763796
0.747185
0.743452
0.731838
0.727675
0.717353
0.702388
0.698649
0.683884
0.666866
0.654073
0.650345
0.63522
0.61964
0.60694
0.602901
0.585972
0.570601
0.558957
0.556012
0.544634
0.533471
0.526987
0.52478
0.516886
0.512903
0.506871
0.503292
0.501496
0.494485
0.492174
0.487856
0.486041
0.47938
0.482085
0.480753
0.479648
0.476731
0.479893
0.47881
0.477909
0.476305
0.477105
0.475283
0.474184
0.469688
0.459587
0.448471
0.445811
0.434799
0.426144
0.414599
0.411749
0.400512
0.38487
0.378502
0.36846
0.36571
0.353957
0.347898
0.339609
0.337336
0.326811
0.321932
0.315776
0.314366
0.309324
0.306192
0.302302
0.299026
0.297663
0.292406
0.292288
0.289315
0.288282
0.284842
0.28398
0.281
0.280144
0.277287
0.275787
0.272994
0.270497
0.269375
0.265084
0.263852
0.260548
0.259496
0.255266
0.252592
0.247435
0.246209
0.241227
0.232988
0.231128
0.226254
0.224884
0.218953
0.214873
0.209692
0.208535
0.203733
0.199237
0.195105
0.190215
0.188854
0.184064
0.181196
0.178075
0.177298
0.174241
0.172613
0.169143
0.16618
0.165227
0.16234
0.161412
0.159902
0.159415
0.157717
0.157331
0.15506
0.15334
0.152708
0.150349
0.149219
0.147301
0.146797
0.144984
0.144173
0.142616
0.141797
0.14144
0.140781
0.142097
0.143763
0.144194
0.147423
0.151279
0.157238
0.161904
0.162781
0.168217
0.17431
0.178685
0.179426
0.183246
0.186008
0.190137
0.192262
0.192548
0.194209
0.19606
0.196535
0.196902
0.196806
0.196362
0.196354
0.195233
0.194872
0.193172
0.190479
0.187998
0.184832
0.184008
0.180385
0.176487
0.172077
0.171182
0.167226
0.163308
0.160836
0.158706
0.158228
0.156386
0.155929
0.155202
0.155328
0.155248
0.155409