/*--------------------------------*- C++ -*----------------------------------*\
| =========                 |                                                 |
| \\      /  F ield         | OpenFOAM: The Open Source CFD Toolbox           |
|  \\    /   O peration     | Version:  v2106                                 |
|   \\  /    A nd           | Website:  www.openfoam.com                      |
|    \\/     M anipulation  |                                                 |
\*---------------------------------------------------------------------------*/
FoamFile
{
    version     2.0;
    format      ascii;
    arch        "LSB;label=32;scalar=64";
    class       volScalarField;
    location    "0";
    object      nut;
}
// * * * * * * * * * * * * * * * * * * * * * * * * * * * * * * * * * * * * * //

dimensions      [0 2 -1 0 0 0 0];

internalField   nonuniform List<scalar> 
102000
(
1.32309e-05
1.15172e-05
1.12028e-05
1.06967e-05
9.85007e-06
8.92712e-06
8.61586e-06
8.94013e-06
9.11002e-06
8.4546e-06
8.03338e-06
8.43613e-06
8.51554e-06
8.17333e-06
7.59698e-06
8.05914e-06
8.32537e-06
7.97537e-06
7.4232e-06
7.75968e-06
8.17676e-06
7.81057e-06
7.27378e-06
7.50283e-06
7.92727e-06
7.66048e-06
7.13804e-06
7.2757e-06
7.69014e-06
7.51451e-06
6.9925e-06
7.05163e-06
7.45107e-06
7.34113e-06
6.8196e-06
6.8175e-06
7.20186e-06
7.1295e-06
6.60751e-06
6.55774e-06
6.90677e-06
6.85483e-06
6.3142e-06
6.22883e-06
6.52451e-06
6.45014e-06
5.88596e-06
5.7854e-06
6.01742e-06
5.84142e-06
5.24e-06
5.12691e-06
5.19398e-06
4.82424e-06
4.03245e-06
3.91346e-06
3.78355e-06
3.66401e-06
3.17972e-06
3.21371e-06
3.8816e-06
4.31596e-06
4.38899e-06
4.50812e-06
5.09819e-06
5.10445e-06
4.888e-06
5.01913e-06
5.52183e-06
5.44204e-06
5.23295e-06
5.48213e-06
6.05141e-06
5.91594e-06
5.66676e-06
6.02909e-06
5.84197e-06
6.23016e-06
5.90626e-06
6.42605e-06
6.42777e-06
6.40133e-06
6.21669e-06
6.72841e-06
6.77569e-06
6.47172e-06
6.46672e-06
6.98262e-06
6.84025e-06
6.4706e-06
6.68836e-06
7.18231e-06
6.84783e-06
6.44798e-06
6.93448e-06
6.72454e-06
6.81943e-06
6.65465e-06
7.18626e-06
7.11397e-06
6.74454e-06
6.89581e-06
7.39973e-06
7.0504e-06
6.61746e-06
7.14259e-06
7.04284e-06
6.93594e-06
6.87608e-06
7.43847e-06
7.20121e-06
6.78895e-06
7.17036e-06
5.29462e-06
7.07082e-06
6.92788e-06
7.49718e-06
7.29356e-06
6.87767e-06
7.25816e-06
5.35652e-06
7.11791e-06
7.0362e-06
7.61204e-06
7.31549e-06
6.87114e-06
7.41451e-06
7.29416e-06
7.09e-06
7.23255e-06
7.40841e-06
7.27417e-06
7.06921e-06
7.6761e-06
7.40769e-06
6.96949e-06
7.53378e-06
7.39848e-06
7.14127e-06
7.42014e-06
5.52105e-06
7.27465e-06
7.31825e-06
7.58672e-06
7.38044e-06
7.23714e-06
7.82323e-06
7.44101e-06
7.16125e-06
7.79776e-06
7.48861e-06
7.12265e-06
7.78462e-06
7.52167e-06
7.08314e-06
7.79064e-06
7.5478e-06
7.13781e-06
7.83855e-06
7.59229e-06
7.1678e-06
7.90693e-06
7.61773e-06
7.30688e-06
7.97399e-06
7.62363e-06
7.41917e-06
7.96551e-06
7.60646e-06
7.56554e-06
5.78039e-06
7.5594e-06
7.74397e-06
5.80747e-06
7.47166e-06
7.94715e-06
7.69001e-06
7.33896e-06
8.10368e-06
7.72282e-06
7.70177e-06
5.87504e-06
7.60428e-06
8.0022e-06
7.72266e-06
7.54478e-06
8.1167e-06
7.76136e-06
7.93099e-06
7.40499e-06
7.5494e-06
8.22685e-06
7.83277e-06
7.96282e-06
6.02708e-06
7.59434e-06
8.2379e-06
7.85664e-06
8.09172e-06
7.7074e-06
7.81308e-06
5.98027e-06
7.5862e-06
8.0902e-06
7.68626e-06
8.07443e-06
7.79663e-06
8.15727e-06
7.71421e-06
7.96845e-06
7.21511e-06
7.27327e-06
6.21738e-06
6.01278e-06
5.10094e-06
4.95316e-06
4.67539e-06
4.56755e-06
4.37593e-06
4.38396e-06
3.65814e-06
4.28068e-06
3.66678e-06
4.30661e-06
4.36379e-06
4.3173e-06
4.33844e-06
4.66389e-06
4.68337e-06
4.98703e-06
4.87337e-06
4.72222e-06
4.55741e-06
3.71743e-06
3.99731e-06
4.00831e-06
3.84335e-06
3.69976e-06
2.76984e-06
2.5074e-06
9.27322e-07
1.61571e-06
1.65677e-06
2.26358e-06
2.34809e-06
1.72558e-06
1.61001e-06
9.75763e-07
8.06438e-07
7.22083e-07
7.81427e-07
7.54081e-07
7.61978e-07
6.30555e-07
6.44074e-07
8.20008e-07
8.55192e-07
1.12018e-06
9.84754e-07
5.0968e-07
1.05482e-06
1.08191e-06
3.28242e-07
2.75526e-07
4.37833e-08
3.30441e-07
3.50002e-07
6.3028e-07
5.14205e-07
7.44601e-07
7.44022e-07
7.06402e-07
2.96705e-07
1.59785e-07
1.76707e-07
2.28609e-07
2.00778e-07
2.23076e-07
2.46948e-07
2.49571e-07
2.78549e-07
3.27776e-07
3.74637e-07
4.69398e-07
3.94448e-07
4.57884e-07
4.60569e-07
4.28161e-07
1.42217e-07
5.35472e-07
5.55674e-07
6.29683e-07
6.33769e-07
7.14848e-07
8.45399e-07
8.23716e-07
9.71498e-07
1.1457e-06
1.0066e-06
1.20829e-06
1.39591e-06
1.30756e-06
1.6403e-06
1.88422e-06
1.81172e-06
2.33569e-06
2.71829e-06
2.63946e-06
3.08857e-06
3.53912e-06
3.43567e-06
3.92649e-06
4.35899e-06
4.2069e-06
4.79307e-06
5.17161e-06
4.93569e-06
5.60989e-06
5.88148e-06
5.52269e-06
6.27654e-06
6.53087e-06
6.02208e-06
6.84703e-06
7.16115e-06
6.71597e-06
7.315e-06
7.73087e-06
7.32585e-06
7.69932e-06
8.03766e-06
7.88509e-06
7.97932e-06
5.99269e-06
8.26493e-06
8.02925e-06
8.57319e-06
8.58388e-06
7.98146e-06
8.68317e-06
8.90218e-06
8.29044e-06
8.63767e-06
8.53023e-06
8.62978e-06
8.50896e-06
9.00726e-06
8.96488e-06
8.29725e-06
9.02925e-06
9.26379e-06
8.56102e-06
8.78778e-06
6.11488e-06
8.88858e-06
8.45047e-06
9.14925e-06
9.19578e-06
8.38237e-06
8.78191e-06
5.85705e-06
8.6939e-06
8.30691e-06
8.99526e-06
9.00225e-06
8.15133e-06
8.52214e-06
5.52362e-06
8.526e-06
7.99331e-06
8.71253e-06
8.86089e-06
8.02449e-06
8.15582e-06
8.58408e-06
8.43408e-06
7.57978e-06
8.31915e-06
8.54174e-06
8.07486e-06
7.76759e-06
8.50563e-06
8.61055e-06
7.83724e-06
8.03459e-06
8.54536e-06
8.21515e-06
7.26173e-06
7.85811e-06
4.77397e-06
7.86291e-06
7.32808e-06
8.13273e-06
8.55011e-06
7.86638e-06
7.67529e-06
8.46333e-06
8.61118e-06
7.86381e-06
7.97381e-06
8.73755e-06
8.64007e-06
7.83048e-06
8.18097e-06
8.68954e-06
8.4721e-06
7.62856e-06
8.17731e-06
7.91887e-06
8.1419e-06
7.22923e-06
7.90389e-06
4.61053e-06
7.68101e-06
6.91731e-06
7.51987e-06
6.83455e-06
7.10719e-06
6.44037e-06
6.99296e-06
6.77423e-06
6.54885e-06
5.93849e-06
6.39971e-06
6.18739e-06
5.97057e-06
5.4e-06
5.89644e-06
5.44347e-06
5.69233e-06
5.11234e-06
5.63056e-06
3.15156e-06
5.61619e-06
5.03721e-06
5.55584e-06
5.56108e-06
5.64005e-06
5.06223e-06
5.46573e-06
5.91813e-06
5.76606e-06
5.22249e-06
5.5057e-06
6.12331e-06
6.06571e-06
5.50345e-06
5.62469e-06
6.29716e-06
6.37582e-06
5.81385e-06
5.72285e-06
6.33003e-06
6.40168e-06
5.67486e-06
5.31793e-06
5.78983e-06
6.01985e-06
5.40832e-06
4.79742e-06
5.24493e-06
5.23487e-06
5.08724e-06
4.40378e-06
4.68239e-06
5.01615e-06
4.78705e-06
4.1741e-06
4.17467e-06
4.49118e-06
4.59529e-06
4.06363e-06
3.82026e-06
4.25098e-06
4.44169e-06
4.20098e-06
3.75575e-06
4.1342e-06
4.52479e-06
4.41036e-06
3.96122e-06
4.05248e-06
4.53325e-06
4.65057e-06
4.17143e-06
3.93838e-06
4.4084e-06
4.66066e-06
4.34308e-06
3.85065e-06
4.23374e-06
4.65982e-06
4.50366e-06
3.98687e-06
3.99611e-06
4.44367e-06
4.61964e-06
4.08172e-06
3.70406e-06
4.12044e-06
4.18853e-06
4.12584e-06
3.60807e-06
3.77701e-06
4.14245e-06
4.10645e-06
3.59614e-06
3.38381e-06
3.73586e-06
3.64873e-06
3.57376e-06
3.07707e-06
3.31717e-06
3.63927e-06
3.5354e-06
3.08181e-06
2.95231e-06
3.29198e-06
3.5419e-06
3.1118e-06
2.66921e-06
2.93941e-06
3.25562e-06
3.15153e-06
2.79025e-06
2.70993e-06
3.0314e-06
3.30166e-06
2.9876e-06
2.66031e-06
2.89689e-06
3.22121e-06
3.17276e-06
2.85196e-06
2.74799e-06
3.07478e-06
3.2821e-06
3.04849e-06
2.72263e-06
2.92396e-06
3.27755e-06
3.33552e-06
3.0769e-06
2.94616e-06
3.42478e-06
2.93479e-06
3.8531e-06
3.70692e-06
3.90184e-06
4.51071e-06
4.86046e-06
4.7005e-06
4.45909e-06
5.04295e-06
5.62703e-06
5.62074e-06
5.34944e-06
5.40572e-06
6.0058e-06
6.45009e-06
6.06661e-06
5.68121e-06
6.14494e-06
6.78525e-06
6.74018e-06
6.26057e-06
6.07936e-06
6.69679e-06
6.60935e-06
6.64596e-06
5.96803e-06
6.21825e-06
6.73896e-06
6.77731e-06
6.05824e-06
5.54388e-06
5.96945e-06
6.31417e-06
5.91258e-06
5.28239e-06
5.25066e-06
5.67279e-06
6.051e-06
5.57344e-06
5.18061e-06
5.51554e-06
6.04589e-06
6.31399e-06
6.07394e-06
5.83303e-06
5.78948e-06
6.35723e-06
7.00419e-06
7.10002e-06
6.76525e-06
6.41892e-06
7.15521e-06
8.00162e-06
8.29522e-06
7.9633e-06
8.16536e-06
9.25315e-06
9.70179e-06
9.11308e-06
9.14193e-06
1.04621e-05
1.06654e-05
1.02987e-05
1.06606e-05
1.20232e-05
1.1107e-05
1.03607e-05
1.13372e-05
1.18062e-05
9.66565e-06
9.51284e-06
9.25496e-06
7.99657e-06
7.52136e-06
7.89828e-06
7.37216e-06
6.3389e-06
6.89258e-06
6.41697e-06
5.2219e-06
5.49318e-06
5.11492e-06
4.27749e-06
4.49936e-06
4.43648e-06
3.83261e-06
4.08072e-06
4.27589e-06
4.0187e-06
4.44305e-06
5.04271e-06
4.92475e-06
5.67162e-06
5.90706e-06
5.42499e-06
5.82485e-06
5.92818e-06
5.90113e-06
7.83006e-06
7.72214e-06
7.92768e-06
8.456e-06
6.92716e-06
7.34922e-06
6.23958e-06
4.99741e-06
5.12594e-06
5.01899e-06
4.193e-06
4.00221e-06
4.07245e-06
3.8803e-06
3.67481e-06
4.02348e-06
4.59092e-06
4.29601e-06
4.28658e-06
4.74848e-06
5.48639e-06
5.78745e-06
6.51221e-06
7.50588e-06
7.0961e-06
7.1659e-06
7.61834e-06
6.58676e-06
6.03179e-06
5.86248e-06
5.43135e-06
4.46001e-06
4.50253e-06
4.48807e-06
3.95586e-06
3.76402e-06
4.34214e-06
1.53047e-05
1.458e-05
1.4367e-05
1.32687e-05
1.2325e-05
1.20819e-05
1.20713e-05
1.17816e-05
1.15467e-05
1.15186e-05
1.15474e-05
1.13588e-05
1.08958e-05
1.11364e-05
1.11099e-05
1.10264e-05
1.06625e-05
1.0836e-05
1.08118e-05
1.07519e-05
1.05747e-05
1.05761e-05
1.05538e-05
1.05109e-05
1.03692e-05
1.03391e-05
1.03204e-05
1.02897e-05
1.01582e-05
1.01129e-05
1.00838e-05
1.006e-05
9.93034e-06
9.86515e-06
9.82486e-06
9.805e-06
9.67424e-06
9.58226e-06
9.52477e-06
9.50402e-06
9.35433e-06
9.23237e-06
9.13767e-06
9.1097e-06
8.91753e-06
8.75185e-06
8.58391e-06
8.5441e-06
8.32798e-06
8.02687e-06
7.79337e-06
7.72531e-06
7.3296e-06
6.89043e-06
6.23727e-06
6.11896e-06
5.75812e-06
5.80929e-06
5.3957e-06
5.44844e-06
5.88175e-06
6.18857e-06
6.61523e-06
6.72661e-06
7.00731e-06
7.02323e-06
7.29683e-06
7.39256e-06
7.58112e-06
7.48696e-06
7.7188e-06
7.80879e-06
8.04256e-06
8.026e-06
8.26404e-06
8.34352e-06
8.27038e-06
8.47415e-06
8.64595e-06
8.73828e-06
8.1362e-06
8.80383e-06
8.94714e-06
9.02313e-06
8.70665e-06
9.03749e-06
9.15205e-06
9.23462e-06
8.98478e-06
9.20147e-06
9.29425e-06
9.39255e-06
9.18833e-06
9.36338e-06
9.43981e-06
8.60398e-06
9.35585e-06
9.52063e-06
9.57401e-06
9.20743e-06
9.49425e-06
9.61298e-06
9.68688e-06
9.42449e-06
9.6028e-06
9.69415e-06
8.9166e-06
9.57214e-06
9.74334e-06
9.82445e-06
9.46205e-06
9.70392e-06
9.82415e-06
1.00865e-05
9.66429e-06
9.8731e-06
9.94036e-06
9.53057e-06
9.80445e-06
9.94142e-06
9.1045e-06
9.75319e-06
9.97096e-06
1.00467e-05
9.64666e-06
9.89929e-06
1.00448e-05
9.26077e-06
9.87034e-06
1.00699e-05
9.92982e-06
9.81871e-06
1.01129e-05
1.01854e-05
9.70403e-06
1.00114e-05
1.0187e-05
9.42352e-06
1.00013e-05
1.02172e-05
1.04652e-05
9.98019e-06
1.02512e-05
1.01222e-05
9.94756e-06
1.029e-05
1.03416e-05
9.89567e-06
1.03244e-05
1.03833e-05
9.84379e-06
1.03611e-05
1.04195e-05
9.80814e-06
1.02153e-05
1.04524e-05
9.7961e-06
1.02508e-05
1.04959e-05
9.85081e-06
1.03098e-05
1.05567e-05
9.93927e-06
1.05546e-05
1.0599e-05
1.00496e-05
1.06041e-05
1.05651e-05
1.01721e-05
1.06563e-05
1.09062e-05
1.03008e-05
1.07188e-05
1.09599e-05
1.04261e-05
1.07859e-05
9.91296e-06
1.05521e-05
1.07987e-05
1.02579e-05
1.08514e-05
1.10965e-05
1.04884e-05
1.09203e-05
9.97196e-06
1.09358e-05
1.08483e-05
1.04341e-05
1.10061e-05
9.94973e-06
1.07065e-05
1.10146e-05
1.04371e-05
1.10981e-05
1.00808e-05
1.07638e-05
1.10308e-05
1.05655e-05
1.12179e-05
1.0044e-05
1.1456e-05
1.1787e-05
1.06702e-05
1.11693e-05
1.03953e-05
1.11641e-05
1.04804e-05
1.11712e-05
1.02122e-05
1.07655e-05
9.33577e-06
9.68046e-06
8.00165e-06
7.96281e-06
6.56257e-06
6.56687e-06
5.9569e-06
6.02597e-06
5.60831e-06
5.7142e-06
5.743e-06
5.48681e-06
5.68174e-06
5.41817e-06
5.24431e-06
5.32086e-06
5.20372e-06
5.53126e-06
5.50857e-06
5.72619e-06
5.7128e-06
5.52176e-06
5.50303e-06
5.00559e-06
4.93632e-06
4.81065e-06
4.64354e-06
4.59123e-06
4.25193e-06
4.16777e-06
3.38115e-06
3.3127e-06
2.98257e-06
3.87843e-06
3.81498e-06
2.99659e-06
2.88121e-06
1.89307e-06
1.98245e-06
1.80382e-06
2.23862e-06
2.17847e-06
2.14324e-06
2.13356e-06
1.87006e-06
2.49894e-06
2.45892e-06
3.01064e-06
3.069e-06
3.31459e-06
2.84755e-06
2.6403e-06
1.05636e-06
9.97792e-07
5.18569e-07
1.13692e-06
1.1646e-06
1.79864e-06
1.79334e-06
1.95763e-06
2.04043e-06
1.91958e-06
8.80765e-07
5.61539e-07
5.05486e-07
6.18045e-07
6.02331e-07
5.84244e-07
6.73279e-07
6.60134e-07
6.74363e-07
7.99858e-07
8.08555e-07
8.96708e-07
8.99905e-07
8.51004e-07
9.41426e-07
9.42765e-07
1.08085e-06
1.13796e-06
1.12858e-06
1.17883e-06
1.39304e-06
1.3686e-06
1.56743e-06
1.80605e-06
1.78481e-06
2.08831e-06
2.07453e-06
2.15565e-06
2.61173e-06
2.60458e-06
2.79638e-06
3.46452e-06
3.49713e-06
3.93843e-06
4.81762e-06
4.81613e-06
5.02233e-06
6.14417e-06
6.14018e-06
6.34086e-06
7.52199e-06
7.49514e-06
7.65295e-06
8.79779e-06
8.7338e-06
8.87447e-06
9.82667e-06
9.72379e-06
9.91413e-06
1.06726e-05
1.0532e-05
1.08008e-05
1.1384e-05
1.15143e-05
1.15238e-05
1.19301e-05
1.21119e-05
1.21083e-05
1.2077e-05
1.26348e-05
1.25765e-05
1.1811e-05
1.30254e-05
1.28774e-05
1.27364e-05
1.33654e-05
1.31166e-05
1.33036e-05
1.36407e-05
1.36179e-05
1.36235e-05
1.30753e-05
1.39608e-05
1.38433e-05
1.35207e-05
1.42566e-05
1.3988e-05
1.41535e-05
1.44121e-05
1.43607e-05
1.43292e-05
1.3354e-05
1.45849e-05
1.43765e-05
1.43969e-05
1.47072e-05
1.45116e-05
1.45105e-05
1.34713e-05
1.46254e-05
1.44299e-05
1.43907e-05
1.46605e-05
1.44269e-05
1.44158e-05
1.33695e-05
1.4522e-05
1.42932e-05
1.43063e-05
1.44707e-05
1.42729e-05
1.42087e-05
1.36006e-05
1.43162e-05
1.40521e-05
1.41132e-05
1.38012e-05
1.41635e-05
1.4005e-05
1.40129e-05
1.42783e-05
1.41268e-05
1.40927e-05
1.36116e-05
1.40608e-05
1.36614e-05
1.36869e-05
1.27022e-05
1.38672e-05
1.36667e-05
1.38413e-05
1.40703e-05
1.4085e-05
1.39734e-05
1.40738e-05
1.43997e-05
1.42858e-05
1.42504e-05
1.42193e-05
1.46261e-05
1.44263e-05
1.4438e-05
1.39434e-05
1.45812e-05
1.43219e-05
1.43733e-05
1.30222e-05
1.42678e-05
1.38835e-05
1.39474e-05
1.27166e-05
1.37068e-05
1.34065e-05
1.33691e-05
1.21508e-05
1.29475e-05
1.26654e-05
1.257e-05
1.16704e-05
1.20818e-05
1.18008e-05
1.16255e-05
1.07681e-05
1.11353e-05
1.088e-05
1.08302e-05
9.87592e-06
1.06066e-05
1.03607e-05
1.03959e-05
9.41944e-06
1.03939e-05
1.02024e-05
1.03046e-05
9.51224e-06
1.03634e-05
1.0188e-05
1.02573e-05
1.0013e-05
1.05429e-05
1.04518e-05
1.04989e-05
1.05738e-05
1.09593e-05
1.0867e-05
1.08672e-05
1.10545e-05
1.13498e-05
1.12837e-05
1.12194e-05
1.1338e-05
1.13278e-05
1.10142e-05
1.08316e-05
1.07964e-05
1.06678e-05
1.05355e-05
1.02624e-05
1.0213e-05
9.20457e-06
9.88924e-06
9.47931e-06
9.47625e-06
9.17401e-06
9.15386e-06
8.75623e-06
8.67072e-06
8.4634e-06
8.53313e-06
8.2359e-06
8.09814e-06
8.17314e-06
8.03876e-06
8.23335e-06
8.08826e-06
8.17955e-06
8.09094e-06
8.46485e-06
8.35258e-06
8.35539e-06
8.51166e-06
8.75393e-06
8.61487e-06
8.50082e-06
8.65494e-06
8.59837e-06
8.74406e-06
8.57069e-06
8.65438e-06
8.58956e-06
8.7928e-06
8.57757e-06
8.5366e-06
8.62009e-06
8.7771e-06
8.54026e-06
8.35769e-06
8.43078e-06
7.66784e-06
8.36854e-06
8.09016e-06
8.09945e-06
8.05883e-06
8.07563e-06
7.77975e-06
7.64967e-06
7.67578e-06
7.17357e-06
7.51787e-06
7.22369e-06
7.26595e-06
7.21927e-06
7.26329e-06
7.03021e-06
6.94048e-06
6.97399e-06
7.00117e-06
6.79444e-06
6.49245e-06
6.54079e-06
6.47701e-06
6.48173e-06
6.26644e-06
6.19224e-06
6.2467e-06
6.36781e-06
6.24639e-06
6.08196e-06
6.15686e-06
6.22978e-06
6.33511e-06
6.20328e-06
6.13756e-06
6.28092e-06
6.29887e-06
6.34758e-06
6.20346e-06
6.26904e-06
6.37216e-06
6.52303e-06
6.45154e-06
6.39232e-06
6.68598e-06
5.97336e-06
3.8531e-06
7.38847e-06
7.48255e-06
7.90071e-06
8.33801e-06
8.49841e-06
8.42866e-06
8.85716e-06
9.11338e-06
9.60664e-06
9.7325e-06
9.78051e-06
1.02162e-05
1.06889e-05
1.07775e-05
1.08656e-05
1.10547e-05
1.13994e-05
1.17059e-05
1.17294e-05
1.16863e-05
1.20094e-05
1.14264e-05
1.2174e-05
1.19023e-05
1.19402e-05
1.19915e-05
1.20251e-05
1.1711e-05
1.15004e-05
1.13812e-05
1.10014e-05
1.08752e-05
1.0468e-05
1.03929e-05
1.02903e-05
1.03318e-05
1.01258e-05
1.00181e-05
1.01155e-05
1.02784e-05
1.05878e-05
1.06596e-05
1.07544e-05
1.07632e-05
1.11359e-05
1.1494e-05
1.1924e-05
1.2085e-05
1.20175e-05
1.24832e-05
1.28857e-05
1.39163e-05
1.42034e-05
1.43109e-05
1.49645e-05
1.55294e-05
1.55958e-05
1.56492e-05
1.64194e-05
1.66054e-05
1.67957e-05
1.69195e-05
1.75793e-05
1.69653e-05
1.6969e-05
1.72027e-05
1.70927e-05
1.52606e-05
1.50199e-05
1.33381e-05
1.21557e-05
1.20212e-05
1.1259e-05
1.05721e-05
1.00046e-05
9.86343e-06
9.11083e-06
8.3018e-06
8.14359e-06
7.40242e-06
6.92877e-06
6.86236e-06
6.58831e-06
6.46577e-06
6.47393e-06
6.71863e-06
7.15305e-06
7.30272e-06
8.1923e-06
8.82575e-06
9.13706e-06
9.4943e-06
9.27608e-06
8.77631e-06
9.03575e-06
9.21328e-06
1.04003e-05
1.12223e-05
1.12808e-05
1.12804e-05
1.04938e-05
1.02982e-05
8.833e-06
7.82314e-06
7.64233e-06
6.97202e-06
6.47513e-06
6.39278e-06
6.15519e-06
6.27673e-06
6.66491e-06
6.81594e-06
7.3974e-06
7.34834e-06
7.32631e-06
7.12e-06
8.12571e-06
9.08584e-06
9.29778e-06
1.01404e-05
1.042e-05
1.04206e-05
1.01706e-05
9.4458e-06
9.2705e-06
8.34829e-06
7.63888e-06
6.94443e-06
6.82774e-06
6.29191e-06
6.2718e-06
6.25197e-06
6.39182e-06
1.87462e-05
1.8073e-05
1.79282e-05
1.73255e-05
1.6802e-05
1.65679e-05
1.65247e-05
1.64158e-05
1.62587e-05
1.62088e-05
1.61648e-05
1.60968e-05
1.54309e-05
1.5891e-05
1.57686e-05
1.57805e-05
1.52814e-05
1.55975e-05
1.54771e-05
1.54849e-05
1.53276e-05
1.53241e-05
1.52074e-05
1.52095e-05
1.51122e-05
1.50622e-05
1.49503e-05
1.4946e-05
1.48662e-05
1.47999e-05
1.46828e-05
1.46707e-05
1.45929e-05
1.45078e-05
1.43846e-05
1.43647e-05
1.4278e-05
1.41689e-05
1.40283e-05
1.39996e-05
1.38907e-05
1.37371e-05
1.35708e-05
1.35295e-05
1.33581e-05
1.31583e-05
1.29062e-05
1.28531e-05
1.26433e-05
1.22592e-05
1.19698e-05
1.1883e-05
1.14005e-05
1.09301e-05
1.00466e-05
9.93023e-06
9.59823e-06
5.86578e-06
9.72438e-06
9.73352e-06
1.00542e-05
1.00955e-05
1.0344e-05
1.04595e-05
1.07126e-05
1.07052e-05
1.1105e-05
7.39918e-06
1.14872e-05
1.12948e-05
1.14131e-05
1.15475e-05
1.16678e-05
1.17196e-05
1.18914e-05
1.20453e-05
1.15351e-05
1.21879e-05
1.2298e-05
1.2499e-05
1.17799e-05
1.25847e-05
1.26946e-05
1.28681e-05
1.25452e-05
1.28697e-05
1.29865e-05
1.31356e-05
1.28958e-05
1.30611e-05
1.31962e-05
1.31577e-05
1.31285e-05
1.32345e-05
1.34005e-05
1.23546e-05
1.3307e-05
1.34399e-05
1.35689e-05
1.31982e-05
1.34479e-05
1.35949e-05
1.35542e-05
1.34425e-05
1.35448e-05
1.37275e-05
1.28312e-05
1.35851e-05
1.37435e-05
1.38513e-05
1.35174e-05
1.36978e-05
1.38824e-05
1.25819e-05
1.37178e-05
1.3898e-05
1.40026e-05
1.3613e-05
1.38293e-05
1.40279e-05
1.26852e-05
1.38297e-05
1.40295e-05
1.40836e-05
1.37508e-05
1.39325e-05
1.41565e-05
1.32909e-05
1.39513e-05
1.41696e-05
1.369e-05
1.39352e-05
1.41901e-05
1.42684e-05
1.38353e-05
1.4074e-05
1.43166e-05
1.34934e-05
1.4096e-05
1.43459e-05
1.30466e-05
1.41052e-05
1.43746e-05
1.39349e-05
1.40915e-05
1.44063e-05
1.43497e-05
1.40761e-05
1.44555e-05
1.44844e-05
1.40278e-05
1.44877e-05
1.45566e-05
1.39903e-05
1.43391e-05
1.45978e-05
1.39579e-05
1.4358e-05
1.46153e-05
1.40092e-05
1.44203e-05
1.46586e-05
1.41159e-05
1.46856e-05
1.46572e-05
1.42448e-05
1.47611e-05
1.45178e-05
1.43764e-05
1.48361e-05
1.41334e-05
1.45083e-05
1.49171e-05
1.35449e-05
1.46279e-05
1.49715e-05
1.41025e-05
1.47353e-05
1.48544e-05
1.4508e-05
1.50741e-05
1.48407e-05
1.4735e-05
1.51341e-05
1.41733e-05
1.515e-05
1.48493e-05
1.47138e-05
1.5254e-05
1.39189e-05
1.49626e-05
1.51051e-05
1.47431e-05
1.53662e-05
1.3989e-05
1.50162e-05
1.50707e-05
1.48123e-05
1.53996e-05
1.42725e-05
1.55734e-05
1.54316e-05
1.52135e-05
1.55607e-05
1.49234e-05
1.55621e-05
1.48782e-05
1.54619e-05
1.43301e-05
1.48071e-05
1.28349e-05
1.3105e-05
1.06158e-05
1.05532e-05
8.66817e-06
8.67889e-06
7.68797e-06
7.78009e-06
7.07584e-06
7.2513e-06
6.97882e-06
6.82658e-06
6.53302e-06
6.70786e-06
6.53673e-06
6.62118e-06
6.52657e-06
6.70691e-06
6.69846e-06
6.8245e-06
6.87978e-06
6.67613e-06
6.79395e-06
6.13955e-06
6.35309e-06
6.16576e-06
6.11592e-06
6.1106e-06
6.5157e-06
6.54504e-06
5.60918e-06
6.01099e-06
5.42175e-06
6.5136e-06
6.40264e-06
5.49734e-06
5.44202e-06
3.90156e-06
4.59446e-06
4.20243e-06
5.27746e-06
5.22625e-06
5.12156e-06
5.43394e-06
4.63771e-06
6.15046e-06
6.02813e-06
6.80982e-06
7.21291e-06
7.12578e-06
6.5343e-06
6.0107e-06
2.83224e-06
2.80271e-06
1.56703e-06
3.21079e-06
3.2717e-06
4.48929e-06
4.73764e-06
4.70335e-06
4.75735e-06
4.50609e-06
2.17467e-06
1.53513e-06
1.30928e-06
1.47344e-06
1.49797e-06
1.36325e-06
1.56732e-06
1.54026e-06
1.44436e-06
1.69679e-06
1.64402e-06
1.78132e-06
1.77776e-06
1.70897e-06
1.86429e-06
1.85567e-06
1.71692e-06
2.21054e-06
2.20717e-06
2.23786e-06
2.73425e-06
2.74243e-06
3.0821e-06
3.54809e-06
3.53062e-06
4.10296e-06
4.12606e-06
4.28328e-06
5.05982e-06
5.1062e-06
5.32027e-06
6.75785e-06
6.873e-06
7.40709e-06
9.10428e-06
9.1506e-06
9.20835e-06
1.15087e-05
1.15575e-05
1.15601e-05
1.40112e-05
1.40212e-05
1.39102e-05
1.62275e-05
1.61893e-05
1.60688e-05
1.79425e-05
1.78676e-05
1.7885e-05
1.92657e-05
1.91782e-05
1.9356e-05
2.02597e-05
2.06639e-05
2.0501e-05
2.08572e-05
2.15079e-05
2.13887e-05
2.05918e-05
2.22356e-05
2.21051e-05
1.93787e-05
2.28704e-05
2.26993e-05
2.20095e-05
2.34263e-05
2.32304e-05
2.33011e-05
2.37468e-05
2.41471e-05
2.40398e-05
2.22573e-05
2.47414e-05
2.45796e-05
2.35067e-05
2.52249e-05
2.49932e-05
2.50552e-05
2.52883e-05
2.57041e-05
2.55861e-05
2.22004e-05
2.60872e-05
2.58631e-05
2.56377e-05
2.6194e-05
2.62363e-05
2.61273e-05
2.29888e-05
2.64224e-05
2.61979e-05
2.58756e-05
2.63648e-05
2.6317e-05
2.62059e-05
2.24891e-05
2.64097e-05
2.61605e-05
2.59701e-05
2.6086e-05
2.61529e-05
2.60157e-05
2.4463e-05
2.61148e-05
2.58906e-05
2.5815e-05
2.45505e-05
2.59619e-05
2.57678e-05
2.55404e-05
2.59159e-05
2.59357e-05
2.58361e-05
2.45593e-05
2.57921e-05
2.54229e-05
2.53429e-05
2.24559e-05
2.56546e-05
2.54427e-05
2.55407e-05
2.5531e-05
2.60347e-05
2.58935e-05
2.58392e-05
2.63294e-05
2.64101e-05
2.63313e-05
2.59567e-05
2.67993e-05
2.66989e-05
2.66519e-05
2.53617e-05
2.68668e-05
2.66432e-05
2.66177e-05
2.35633e-05
2.64893e-05
2.6065e-05
2.60302e-05
2.20359e-05
2.56844e-05
2.53544e-05
2.5162e-05
2.21856e-05
2.45311e-05
2.42012e-05
2.38788e-05
2.15099e-05
2.30871e-05
2.27443e-05
2.22788e-05
2.00163e-05
2.14655e-05
2.11645e-05
2.09136e-05
1.84272e-05
2.04956e-05
2.02175e-05
2.01134e-05
1.69523e-05
2.00611e-05
1.98772e-05
1.99176e-05
1.78841e-05
1.99649e-05
1.98307e-05
1.98509e-05
1.90864e-05
2.03052e-05
2.03227e-05
2.03396e-05
2.02458e-05
2.10265e-05
2.10512e-05
2.10298e-05
2.11835e-05
2.17006e-05
2.17842e-05
2.1703e-05
2.17957e-05
2.169e-05
2.14651e-05
2.12448e-05
2.11052e-05
2.03497e-05
2.07934e-05
2.04774e-05
2.02831e-05
1.80265e-05
1.97029e-05
1.91204e-05
1.90312e-05
1.82969e-05
1.83006e-05
1.77018e-05
8.6789e-06
1.69911e-05
1.69738e-05
1.66207e-05
1.64427e-05
1.64215e-05
1.55628e-05
1.6537e-05
1.64367e-05
1.64905e-05
1.61347e-05
1.69778e-05
1.69616e-05
1.69472e-05
1.71051e-05
1.75189e-05
1.74826e-05
1.73582e-05
1.75186e-05
1.67905e-05
1.77411e-05
1.75945e-05
1.76345e-05
1.7347e-05
1.78299e-05
1.76235e-05
1.75523e-05
1.75867e-05
1.77771e-05
1.76048e-05
1.73987e-05
1.7417e-05
1.55955e-05
1.72714e-05
1.69313e-05
1.68905e-05
1.66554e-05
1.66673e-05
1.62936e-05
1.6128e-05
1.60309e-05
1.44385e-05
1.57672e-05
1.53952e-05
1.53815e-05
1.51581e-05
1.52805e-05
1.50107e-05
1.48892e-05
1.48132e-05
1.4424e-05
1.44851e-05
6.49308e-06
1.40207e-05
1.37302e-05
1.37529e-05
1.34538e-05
1.33395e-05
1.33036e-05
1.31569e-05
1.3294e-05
1.31131e-05
1.31649e-05
1.31674e-05
1.34148e-05
1.32976e-05
1.32142e-05
1.33587e-05
1.28834e-05
1.34834e-05
1.33213e-05
1.33605e-05
1.33794e-05
1.35922e-05
1.34992e-05
1.3421e-05
1.37402e-05
1.16276e-05
7.26782e-06
1.48199e-05
1.4924e-05
1.54538e-05
1.61155e-05
1.64402e-05
1.63834e-05
1.70014e-05
1.71946e-05
1.82508e-05
1.86187e-05
1.87055e-05
1.93952e-05
2.01445e-05
2.0566e-05
2.09047e-05
2.114e-05
2.16559e-05
2.23303e-05
2.25688e-05
2.25519e-05
2.30534e-05
2.12379e-05
2.35065e-05
2.32223e-05
2.32384e-05
2.32306e-05
2.32943e-05
2.29296e-05
2.26664e-05
2.23039e-05
2.14111e-05
2.12323e-05
2.05474e-05
2.03999e-05
1.99974e-05
1.97027e-05
1.94863e-05
1.93195e-05
1.93935e-05
1.94873e-05
1.99194e-05
2.01105e-05
2.03549e-05
2.03848e-05
2.09089e-05
2.13905e-05
2.21516e-05
2.25624e-05
2.25288e-05
2.31929e-05
1.30577e-05
2.54512e-05
2.59422e-05
2.60789e-05
2.69596e-05
2.77217e-05
2.791e-05
2.79795e-05
2.88877e-05
2.89905e-05
2.90089e-05
2.91039e-05
2.96976e-05
2.88496e-05
2.87127e-05
2.90096e-05
2.84351e-05
2.56648e-05
2.52418e-05
2.24502e-05
1.99794e-05
1.95846e-05
1.80396e-05
1.66235e-05
1.54977e-05
1.54112e-05
1.43841e-05
1.32008e-05
1.30727e-05
1.209e-05
1.14054e-05
1.13671e-05
1.11496e-05
1.11806e-05
1.12742e-05
1.20251e-05
1.29946e-05
1.33043e-05
1.49543e-05
1.60684e-05
1.65573e-05
1.69952e-05
1.656e-05
1.54828e-05
1.51863e-05
1.52552e-05
1.60688e-05
1.67564e-05
1.68269e-05
1.68041e-05
1.57103e-05
1.56155e-05
1.38143e-05
1.23343e-05
1.21376e-05
1.12003e-05
1.06553e-05
1.05754e-05
1.06362e-05
1.1377e-05
1.23691e-05
1.26951e-05
1.37993e-05
1.3518e-05
1.33836e-05
1.24907e-05
1.32779e-05
1.40845e-05
1.43754e-05
1.53701e-05
1.55949e-05
1.5611e-05
1.5434e-05
1.4442e-05
1.41417e-05
1.30134e-05
1.20363e-05
1.11232e-05
1.1013e-05
1.03751e-05
1.07872e-05
1.07328e-05
1.09457e-05
1.87512e-05
1.80737e-05
1.79287e-05
1.73307e-05
1.68268e-05
1.65694e-05
1.65254e-05
1.64206e-05
1.63574e-05
1.62112e-05
1.61656e-05
1.6101e-05
1.62678e-05
1.58947e-05
1.57694e-05
1.57843e-05
1.58803e-05
1.56031e-05
1.54782e-05
1.54884e-05
1.54785e-05
1.53326e-05
1.52088e-05
1.52128e-05
1.51876e-05
1.5075e-05
1.49522e-05
1.49493e-05
1.49168e-05
1.4819e-05
1.46853e-05
1.46739e-05
1.4633e-05
1.45356e-05
1.43877e-05
1.43681e-05
1.43133e-05
1.42083e-05
1.40321e-05
1.40031e-05
1.39245e-05
1.37899e-05
1.35753e-05
1.35333e-05
1.33926e-05
1.32247e-05
1.29115e-05
1.28574e-05
1.2681e-05
1.23346e-05
1.19758e-05
1.18879e-05
1.14431e-05
1.10102e-05
1.00528e-05
9.93552e-06
9.65202e-06
1.04573e-05
9.73052e-06
9.74003e-06
1.01291e-05
1.01555e-05
1.03514e-05
1.04657e-05
1.08065e-05
1.07489e-05
1.11124e-05
1.12603e-05
1.16584e-05
1.1327e-05
1.1419e-05
1.15569e-05
1.20712e-05
1.17432e-05
1.18969e-05
1.20589e-05
1.26844e-05
1.22057e-05
1.23013e-05
1.25211e-05
1.24364e-05
1.25985e-05
1.26994e-05
1.29111e-05
1.27075e-05
1.28805e-05
1.29942e-05
1.32485e-05
1.29604e-05
1.30695e-05
1.321e-05
1.37179e-05
1.31613e-05
1.32413e-05
1.34293e-05
1.33263e-05
1.33261e-05
1.34474e-05
1.36512e-05
1.33331e-05
1.34602e-05
1.36108e-05
1.40629e-05
1.34874e-05
1.35532e-05
1.37698e-05
1.35387e-05
1.36064e-05
1.37562e-05
1.40493e-05
1.36079e-05
1.37099e-05
1.39179e-05
1.36577e-05
1.37484e-05
1.39111e-05
1.41819e-05
1.37369e-05
1.3844e-05
1.40708e-05
1.37878e-05
1.38633e-05
1.40475e-05
1.43942e-05
1.38534e-05
1.39471e-05
1.42337e-05
1.38976e-05
1.39792e-05
1.42036e-05
1.47809e-05
1.39951e-05
1.42091e-05
1.45376e-05
1.399e-05
1.4093e-05
1.44235e-05
1.40286e-05
1.41267e-05
1.44057e-05
1.41049e-05
1.41551e-05
1.4415e-05
1.49771e-05
1.41724e-05
1.44372e-05
1.492e-05
1.42044e-05
1.44809e-05
1.48515e-05
1.42209e-05
1.45107e-05
1.48451e-05
1.42538e-05
1.43671e-05
1.48645e-05
1.42703e-05
1.43891e-05
1.48994e-05
1.43269e-05
1.44524e-05
1.50082e-05
1.43953e-05
1.47199e-05
1.51578e-05
1.44631e-05
1.48078e-05
1.53386e-05
1.45334e-05
1.49067e-05
1.53649e-05
1.46163e-05
1.5038e-05
1.4674e-05
1.47005e-05
1.52212e-05
1.472e-05
1.47837e-05
1.55133e-05
1.47454e-05
1.51698e-05
1.48407e-05
1.48435e-05
1.53895e-05
1.49182e-05
1.52093e-05
1.57595e-05
1.492e-05
1.5427e-05
1.50234e-05
1.50423e-05
1.58235e-05
1.50266e-05
1.55402e-05
1.51214e-05
1.51022e-05
1.59234e-05
1.50597e-05
1.56465e-05
1.52947e-05
1.56647e-05
1.67691e-05
1.5376e-05
1.61448e-05
1.53043e-05
1.60448e-05
1.52546e-05
1.58985e-05
1.47236e-05
1.51714e-05
1.32099e-05
1.33692e-05
1.31858e-05
1.07172e-05
8.9813e-06
8.76883e-06
8.0215e-06
7.83866e-06
7.45755e-06
7.29078e-06
6.97882e-06
6.85771e-06
6.88646e-06
6.74759e-06
6.75329e-06
6.68054e-06
6.64987e-06
6.79824e-06
6.76379e-06
6.99317e-06
6.91814e-06
7.03692e-06
6.82225e-06
6.54963e-06
6.40473e-06
6.39799e-06
6.20378e-06
6.19162e-06
6.82611e-06
6.61458e-06
6.36634e-06
6.07471e-06
6.04175e-06
6.6423e-06
6.61547e-06
5.88787e-06
5.53873e-06
4.31034e-06
4.66591e-06
4.72333e-06
5.48962e-06
5.40667e-06
5.93475e-06
5.50872e-06
5.76667e-06
6.31098e-06
6.31148e-06
7.44258e-06
7.30401e-06
8.50162e-06
6.66844e-06
6.30434e-06
3.11782e-06
2.84953e-06
2.08307e-06
3.29475e-06
3.41698e-06
5.06135e-06
4.79108e-06
5.50339e-06
4.89258e-06
4.62078e-06
2.67636e-06
1.5551e-06
1.39991e-06
1.55745e-06
1.51679e-06
1.70589e-06
1.5982e-06
1.57564e-06
1.6866e-06
1.71067e-06
1.71747e-06
1.86643e-06
1.79136e-06
1.90571e-06
1.90257e-06
1.87622e-06
1.81793e-06
2.23493e-06
2.24485e-06
2.53176e-06
2.7537e-06
2.81918e-06
3.29265e-06
3.56532e-06
3.69089e-06
4.2677e-06
4.14989e-06
4.59412e-06
5.18814e-06
5.13711e-06
5.85926e-06
6.89221e-06
6.91848e-06
8.37904e-06
9.24718e-06
9.2128e-06
1.05544e-05
1.16709e-05
1.16345e-05
1.32214e-05
1.42014e-05
1.41073e-05
1.56059e-05
1.64567e-05
1.62759e-05
1.74927e-05
1.82297e-05
1.79467e-05
1.88969e-05
1.96528e-05
1.92456e-05
2.00044e-05
2.08461e-05
2.07218e-05
2.08984e-05
2.19232e-05
2.15854e-05
2.16304e-05
2.30615e-05
2.23464e-05
2.22541e-05
2.14578e-05
2.30461e-05
2.27931e-05
2.34327e-05
2.37572e-05
2.32906e-05
2.37759e-05
2.46023e-05
2.42168e-05
2.42421e-05
2.5812e-05
2.48673e-05
2.46804e-05
2.53487e-05
2.55062e-05
2.50485e-05
2.54569e-05
2.63098e-05
2.57777e-05
2.57295e-05
2.47592e-05
2.62512e-05
2.59285e-05
2.62569e-05
2.67608e-05
2.62917e-05
2.62871e-05
2.5227e-05
2.65542e-05
2.62608e-05
2.64845e-05
2.68809e-05
2.63683e-05
2.6339e-05
2.5269e-05
2.65479e-05
2.62098e-05
2.63435e-05
2.68553e-05
2.62109e-05
2.61021e-05
2.64869e-05
2.63122e-05
2.592e-05
2.59872e-05
2.7206e-05
2.60456e-05
2.5816e-05
2.59712e-05
2.64046e-05
2.598e-05
2.59098e-05
2.62498e-05
2.59723e-05
2.54497e-05
2.54603e-05
2.67805e-05
2.57467e-05
2.54749e-05
2.57416e-05
2.66728e-05
2.6091e-05
2.59346e-05
2.62125e-05
2.6754e-05
2.64484e-05
2.63831e-05
2.67215e-05
2.70237e-05
2.6727e-05
2.67158e-05
2.70905e-05
2.70102e-05
2.66649e-05
2.66934e-05
2.73448e-05