/*--------------------------------*- C++ -*----------------------------------*\
| =========                 |                                                 |
| \\      /  F ield         | OpenFOAM: The Open Source CFD Toolbox           |
|  \\    /   O peration     | Version:  v2106                                 |
|   \\  /    A nd           | Website:  www.openfoam.com                      |
|    \\/     M anipulation  |                                                 |
\*---------------------------------------------------------------------------*/
FoamFile
{
    version     2.0;
    format      ascii;
    arch        "LSB;label=32;scalar=64";
    class       volScalarField;
    location    "0";
    object      omega;
}
// * * * * * * * * * * * * * * * * * * * * * * * * * * * * * * * * * * * * * //

dimensions      [0 0 -1 0 0 0 0];

internalField   nonuniform List<scalar> 
102000
(
216774
180050
160480
108164
100557
103992
105869
99983.2
95644.2
99319.2
102556
97231.3
94864.4
96417.5
100472
96010.1
92357.2
94521.1
98644.1
95318.7
90585.6
93010.3
97190.8
94864.4
90085.1
91726.7
95912.4
94431.5
89671.9
90497.5
94669.2
93898.8
89136.1
89260.5
93353
93149.5
88385.3
87799.2
91842.9
92031.9
87079.4
86192
89778.1
90238.3
85425.1
83424.8
87173.4
87504.1
81616
80684.3
81961.4
82331.8
77731
71697.4
75020.2
73652.7
61942.8
68780.7
88181.3
91338.4
91500.3
99227
105100
104161
99053.7
100370
107050
106308
106036
114585
124916
122354
117599
125777
134309
129009
136353
132956
139251
132997
135891
138957
142784
136455
138106
145700
146446
139838
144839
153603
150384
143883
152213
161444
153301
159501
159846
163407
155598
158905
167716
165482
158049
166609
176636
167228
171088
175137
176789
167686
174352
184240
177200
216527
182987
186355
176674
182643
192884
185649
226908
192237
194415
184094
192093
203105
192102
196394
202497
199867
197706
202446
207311
195647
203427
214815
202817
207580
214624
208721
252896
214917
214327
209949
215778
219289
207135
217735
224727
211850
220967
230140
216532
224939
237485
221163
229335
240822
224207
231629
243194
225588
234151
242047
227163
237340
242710
230780
241129
242463
287900
245547
241301
290820
251105
239631
247710
257903
239187
250454
251326
298841
257142
247448
256246
261252
248322
259068
255064
270254
268212
251178
263688
260725
312863
274610
258331
271851
265943
276733
272991
315593
276713
263936
284949
275594
289960
279667
283102
272843
261757
254368
243553
250062
269310
278559
294061
299934
307976
303830
340028
279025
310293
253972
247380
233334
229673
219022
219285
199755
199793
178233
177057
183094
151536
146344
132875
130871
110542
114409
128762
111159
107734
107798
107968
108213
113635
140624
108093
101401
98236.3
99206.1
95795.9
102298
100848
97717.3
96246.6
89447.6
93059.1
104600
88485.7
87915
92525
98424.6
120697
95803.6
94450.9
89090.7
95451.1
87688.9
84685.9
85738.6
87373.1
90994.5
86742.9
87288.8
91787.7
92111.5
90372
90769.1
91713.2
96196.3
91757.9
92310.8
97294.9
93981.6
93824
95732.2
113014
96565.3
95881
95869.8
102737
101099
103765
112257
108230
107840
110809
103094
107019
114826
120153
128644
133861
129301
127410
130659
126134
122533
125397
121518
118976
121932
116817
114598
118029
111452
109922
114168
106569
105117
110621
103038
101019
106336
100645
97700.2
102383
99031.4
96750.9
98733.8
97906.5
115758
95456.1
97328
92417.4
92079.2
96809.3
90796.8
88581.9
92667.7
89769.7
89742.3
88127.2
88645.5
84296.2
83565.1
87565.3
81878
79323.1
82570
80848.9
95223.6
77950.4
80053.3
75072.7
73623.3
76851
74402.5
88168
72525.4
74134.3
69677.7
68538.4
71637.7
69581.7
82528.2
67488.1
69640.4
65536.2
64023.7
67000.5
66222
63651.7
63652.8
66806.4
63458
61978.1
63513.2
64686.6
61203.4
60401.9
63272.7
62351.3
59955.5
61088.1
64912.8
62381.5
75333.2
61945
64107.5
60537.9
58577.3
61123.1
61790.2
58416.5
57576.8
60188.1
59634.6
56392.3
56358.4
58941.7
57511.6
55158.6
55375.5
57857
55694.6
55928
54431.4
57146
54537.4
66041.9
53907.2
56590.3
53519.7
55065.4
53145
55611.2
52778.6
52990.5
53260.1
55749
53043.8
53281.1
53687.5
56311.7
53479.1
55203
53564
56406.5
53435.2
65503.3
52758.1
55356.9
52628
52244.7
51131.9
53385
51203.2
48503.5
48638.9
50601.7
49103.3
45929.9
45795
47709.1
47042.6
44071.5
43398.1
45132.9
45296
42656.9
41453
43353.2
44477.9
41970.8
40280.1
41719.7
43837.8
41342.3
40532.8
40195.8
42242.4
40996.6
39073.1
39739.7
42253.8
42303.2
40469.4
39715.8
42226.5
43441.5
41088.5
39886.5
40706.8
42471.6
40405.6
37892.7
37740.7
39073
38372.2
35548.2
34368
35783.5
36565.6
34241.4
32634.9
33514.3
35136.2
33614.8
31725.7
31965.2
33646.6
33540.2
31562.1
30561.2
32083.6
33365
31379.4
30625.9
30362.8
31809.3
31041.1
29138.1
28791.8
30295.7
31008.8
29102
28782
28522.8
29860.2
28741.3
26928.1
26720.4
28032.7
28430.7
26750.3
25429.6
26942.4
28652.1
27581.6
26314.4
26994.8
28956
29490.3
28265.6
27206.7
28891.6
30561.9
29371.4
27576.5
27534
28754.3
29099.6
27085.8
25658.5
26378.1
27559.2
26546.3
24798.2
24576.7
25974.4
26607.4
25178.8
27813.7
24916.1
26182.4
25640.9
24363.4
23993.7
25171.1
26040
24623.9
23201.7
23396.8
24072.7
23798.7
22109.3
20768.9
21256.6
21622.1
20486.8
18863.4
18493.8
18827.9
18911.8
17526.8
17163.3
16653.6
17250.6
16840.7
15880.1
15492.2
15830.9
16353.5
15541.5
15116
15583.3
16605.9
16763.9
16318.9
15937.6
16998.7
17863.4
17331.1
16569.9
16109.4
16543.8
16851.9
16846.3
15914.9
14870.2
14679.1
14946.3
15271.4
14277.2
13219.3
13145.2
13576.6
13387.2
12526.3
12374.9
12885.8
12885.4
12212.8
12361.6
13413
13330.2
12813.4
14535.7
15694.4
14942.3
14816.8
17823.3
18450.9
20037.4
23788.3
25244.5
25656.2
27028.5
29094.5
27458.4
26685.8
27856.6
26386.4
25012.4
26396.1
25175.9
23603.1
24358.2
22945.1
20537.2
20377.9
18679.1
16524
16860.3
15280.6
15874.5
18423
21549.8
26633.9
26789.6
22306.4
24928.3
24817.1
24238.1
25628.6
24252.3
22693.4
23464.6
22568.5
21023.3
21888.3
22105.8
19534.5
17541.6
16823.2
15368.2
13232
14895.5
15720.1
17740.3
18147.5
20006.1
19154.2
19596.8
21081.8
21002.6
19859.6
20327.5
21119.8
19420.2
18764.3
19575.2
19071.5
17286.8
16805.7
17279.5
15577.4
164647
119110
114245
84431.6
82048
79349.6
78432.1
78663.5
78465.1
76112.4
74887.1
75562.7
77834.5
74310.9
72544.5
73821.1
75985
73288.9
71633.9
72589.3
73949.5
72535
70969.3
71639.8
72873.3
71925.8
70373.6
70785.8
71979
71310.1
69748
69936.3
71084.8
70627.6
68991.1
68991.8
70117.7
69690.4
68044.6
67888.2
68787.7
68570.3
66517.7
66258.5
67317.9
66395.3
64714.2
64313.8
64120.3
64244.3
60294.2
59920.3
61278.8
56766.4
55950.5
55038.2
47979.4
52352.7
61290.8
62014.9
68147.1
76094.5
74103.2
73931.4
76513.6
77889.7
76354.8
76430.5
81875
87828.4
88740.6
89307.1
91561.7
96127.6
95013.2
95817.8
99079.5
100935
97718.4
100489
112234
104405
102038
104779
111829
108015
106570
108914
114468
111932
111535
113068
117643
115210
115970
130834
120659
117716
120255
127684
123503
122305
124060
129280
126342
126920
141464
131587
128667
130555
137872
133646
133149
121124
138785
134778
136992
145273
140338
139457
154284
145390
141258
143180
151246
146233
145754
161652
150768
147677
151392
155542
149242
151206
161343
154963
153877
170059
158674
155609
141996
162293
157181
161281
166033
158671
160509
170104
160406
162903
174700
162686
165486
179288
170378
168321
183484
173144
170763
185294
174664
172300
186237
171715
174215
186669
173820
177351
186695
175967
161658
186391
177954
163278
186033
179933
200125
185455
182692
195444
182068
167584
192765
184540
206766
184070
188941
199402
186990
211318
195234
190400
204917
190053
213572
199906
195633
209662
195363
224468
191285
170673
204457
193977
218764
200738
221693
204289
218784
202938
206213
193574
191463
190250
213723
212345
231166
225370
235020
226011
198561
206465
187819
194547
202437
183169
187381
176261
176983
163785
159984
144052
138890
117412
122237
125744
114984
114113
92596.3
90413.1
73515.9
81884
87119
80971.5
82461.5
80528.9
79111
66908.9
70783.2
75136.2
67398.3
68099.3
67939.2
64250.3
70915.4
64160.3
66666.3
63119.8
60157.5
43454.8
57474.1
60589
65682.4
63622.6
70757.7
63035
64812.6
62321.4
58664
62875.3
55984.4
56623.7
60708.5
58224.1
62707.3
61913.3
60601
65733.2
62841.3
64088.9
67949.7
65324.2
69370.6
70915.1
69608.5
75865.8
73098.2
73119.2
64911.4
74465.6
75762
77975.8
77689.8
80322.3
82748.1
82368
86180.9
85038.9
83854.5
83889.8
83583.4
83241.4
94293.2
93883.2
92850.1
98419.4
91343.8
90914.8
96721.9
88399.8
88049
93597.6
86445.6
86036.6
90907.3
83935.5
83257.3
87152.1
81420.5
80350.7
83123.7
78998.4
77477.9
79733.7
77167.4
74263.2
76996.3
75908.5
73035.3
74731
75626.5
71951.1
72688.3
64067.1
71047.7
70839.5
73585.6
70069.2
68842.5
70499.3
69072.1
66564.9
67871.5
69019.1
65151
65224.5
67608.3
63676.4
62547.6
63629.7
62393.1
60013.9
60776.1
53179.5
58674
58144.7
59254
57466.2
55451.4
56439.9
49251.5
54431.6
54050.1
55141.5
53565
51801.1
52650
45997.3
50979.8
50413.9
51413
50596.9
49068.3
49498.1
51586.8
48870.7
47477.8
48830.9
49455.2
47517.1
47298.7
48444.2
47577.1
46253
46719.2
48686
47035.4
46335.1
47567.6
41518.6
46665.7
46090.6
47049.3
46749.9
45360.8
45260.7
46234.2
45353.2
44073.6
44341.4
45358.1
43875.3
42653.7
43224.3
44856.8
42637.4
41360.3
42157.7
44509.3
41485.5
40397.5
41420.8
35981.9
40680.8
39878.5
40674.6
41555.5
39810.8
39109.7
40047.3
41254.8
39653.8
38981.5
40074.7
41330.4
39785.7
39069.4
40170.2
41326.9
39677.6
38864.2
39908.3
33935.5
39231.3
38024.9
39059.5
41124.5
38282.7
36949.9
37734.6
38999.1
36757.1
35411.1
35914.3
36528.9
35068.6
33900.1
34130.3
34603.3
33717
32525.7
32470.1
32989
32581.7
31568.5
31225.5
31779.7
31793.5
30672.5
29993.1
30591.2
32449
29971.5
29073.7
29617.3
30769.2
30153.2
29614.8
29801.4
30977.8
30686.7
30169.7
29861
30563.4
30923.3
29642.5
28512.9
29254.8
30041.4
28144.8
26894.9
27066.2
27235.2
26378
25332
25045.2
25469.4
25367.1
24456.1
23650.7
24247.8
25004.2
23991.8
23333.4
23418.6
23872.1
23600.2
22814.6
22373
22826.1
24300.8
22234.7
21432.5
21725.1
22218.7
21802.9
21081
20835.8
21280.4
21534.7
20575.8
19763.2
20175.8
20681.4
20002
19271.2
19146
19639.4
19697
19309.9
18889.2
19418.2
20282.1
20138.1
19879
19850.8
20703.1
20960.6
20574.4
20013.2
20514
21034.5
20392.5
19561.9
19392.7
19627.1
19597.5
18788.1
18084.1
18448.9
18837.7
18447.8
18048.6
17885.2
18390.3
19474
24916
17904.8
18138.4
18640.1
18556.8
18130.7
17846.1
18145.9
18540
17620.7
16918.6
16912.4
16840.4
16366
15613.7
14795.7
15025
14891.3
14223.6
13511.9
13366.8
13246.5
13297.4
12478.8
12069.7
12185.6
12315.7
12114.5
11498.3
11286
11498
12112.4
11866.5
11807.4
11852.5
12399.9
12695.7
12642.2
12400.9
12607.9
12926.5
12700.3
12397.1
12012.2
11957.8
11948.2
11884.2
11460.7
10992.4
10814.4
10782.6
10739.3
10196.3
9920.9
9952.84
9967.15
9876.99
9636.23
9629.99
9789.26
9889.13
10107.3
10219.1
10526.4
11458.8
11467.2
11745.4
12084.6
13524.9
13813.4
16323.9
18204.4
18217.5
20249.1
20996.9
20678.8
21266.4
20928.3
19713.3
20006.5
19557.7
18500.7
18779.3
18304.3
16790
17007.1
15717
13790.4
13951.7
12550
11442.8
11699.7
11769.2
12067.6
16566.6
19701
19478.7
18312.5
18698.8
18908.9
19552.5
18586.6
18920.4
17737.3
16647.9
16791.5
16881.8
15884.8
15599
15009
13019.4
11181.2
11226.2
10369.7
10431.8
10638.6
13824.9
13579.3
14113.2
14684.1
15723.3
15625.6
15694.9
16146.4
15503.6
15119.7
14981.3
14676.2
13893.8
13948.6
13920.4
12128.6
11903.9
12210.6
76090.6
67089.5
65699.7
55594.8
53305.8
51621.9
51195.7
50796.9
50430.2
49074.2
48579.6
48520.3
50408.2
47574.5
46769.1
47181.3
48710.8
46655.6
45936.2
46246.5
46833
45976.4
45313.7
45530.3
45970.4
45426.1
44776
44904.6
45298.2
44906.1
44245.8
44296.5
44654.1
44361.4
43654.6
43638.5
43970
43689.2
42950.1
42875.2
43088.8
42884.2
41933.3
41816.7
42056.9
41526
40663.3
40481.3
40143.3
39958.4
38054.9
37863.8
38021.7
35700.4
34907.8
34445.1
30588.2
51917.3
31526.8
31943.8
36837.6
41980
42584.6
42678.3
44735.8
46319.1
45705.2
76339.5
47811.2
51206.7
52331
52553.6
54987.3
57168.1
57324.6
57542.7
62825.9
61044.1
59778.4
61212
68557.5
63943.1
62951.4
64266.7
68382.2
66621.9
65934.3
67135.9
70190.5
69297.6
68967.2
71110.4
72452.1
71750.5
71807.8
81557.2
74693.9
73372.6
74581.8
78754.1
76843
76144.6
78197.2
79979.3
78950
78879.7
87812.2
81749.9
80350.5
81571.4
85260.8
83515
83003.4
95363.4
86292.8
84396.7
85644.9
89979.9
87741.7
87036.7
100347
90457.8
88445.4
89980.8
93765.9
91574.6
91012.7
100423
94026.4
92374.3
97552.2
96668.5
93629
95050.1
99963.7
97028
96232.7
105622
99235.6
97531.3
111298
101315
98696.1
103887
103560
99878.8
102185
105594
100766
102680
108208
102150
103914
110800
106260
105411
113316
108178
107291
114871
109440
108754
115583
108041
110542
115883
109245
113471
116064
110541
118549
116112
111820
128717
116153
113365
124474
116144
116423
121324
114360
109717
119959
116133
128675
115751
120928
123725
117437
134875
121643
121182
126697
119077
137348
124523
124911
130412
123303
138340
119112
122295
123791
119847
129034
120994
131005
123179
133554
125966
133123
126684
132508
131136
144544
142648
155679
150549
160845
152190
143849
144918
154221
139309
144328
133538
135693
128579
128501
121621
118982
111498
106890
103422
99205.7
101693
92198.6
91268.2
76378.9
74585
65823.1
61492.7
63460.3
55302.2
55113
50467.5
49596.6
51938
42251.6
43411.9
37614.9
37499.3
36182.4
34273.6
37044.3
32898.1
33755.4
32601.6
31249.5
32199.9
28377.6
29309.3
33870.1
32982.3
38775.1
31325.9
31734.3
30057.3
28453.4
30692.7
28239.9
28579.4
32262.2
32101.2
33913.2
33100.1
32710.2
37314.4
36847
37567.8
40289.5
40285.2
41720.5
44836.4
44912.3
49851.9
49296.3
49637.1
54265.3
51160.6
51715.8
54124.8
51949
52774.1
53460.4
52308
54367.4
53728
52997.9
55940.9
54092.9
53503
56571.3
52293.4
51719.5
54879.3
51378.8
51256.4
55872.4
50485.4
50347.3
54538.5
49928.4
49764.4
53289.3
48900.4
48598.2
51215.3
47853.2
47368.8
49174
46956.6
46231.7
47558.8
46364.9
44932.3
46292.8
46152.7
44433
45267.3
46874.4
43954.4
44325.1
48711.3
43447.3
43365.9
45166.7
42910.5
42327.4
43138.9
42517.9
41048.7
41664.5
43717
40219
40268.1
41934.1
39385.3
38881.4
39340.5
38851.5
37420.2
37762.6
41015.3
36578.1
36363.2
36879.4
35897.4
34829.8
35252.5
37612
34115.1
33971.2
34453.1
33577.2
32671.4
33019.9
35775.9
32089.3
31881.7
32253
31877
31039.7
31218.5
32554.4
30792
30205.4
30738.4
31592.9
30059.9
29998.9
30481.4
30042
29426.7
29616
30808.4
29620.1
29324.1
29792.6
31798.7
29310.5
29122.1
29447.7
29468.8
28627.7
28604.6
28978.3
28510.7
27896.4
27998.5
28488.4
27616.2
27056.6
27261.7
28213.9
26779.5
26212.1
26491.3
28329.6
25962.1
25473.7
25825.8
27952
25261.2
24986.3
25125.2
26511.6
24553
24328.4
24566.3
25768.8
24226.2
24018.8
24321.6
25544
24040.7
23824.5
24131.6
25653.9
23817.9
23571.3
23861.2
26000.1
23478.6
23032.2
23366.7
24939.3
22920.3
22386.2
22630.4
23288.8
22042.8
21514.1
21668.2
21900.1
21161
20696.1
20766
20880.2
20406.4
19904.4
19882.8
19962.5
19666.1
19117.8
19000.8
19018.2
19153
18305.4
18094
18137.7
19201.6
17675.2
17359.3
17524.7
17938.8
17610.7
17464.6
29792.3
17926.1
17766.3
17545
17457.1
17611.4
18091.5
17074.4
16606.4
16817.1
17079.1
16129
15607
15643.3
15575.9
15141.9
14714.6
14625
14636.7
14875.7
14158.4
13857.5
14023.2
14262.1
13768.5
13504.3
13522.9
13572.5
13369.4
12997.7
12861.6
12883.8
13661.9
12486.5
12177.2
12253.1
12343.4
12106.8
11829.4
11758.6
11813.5
12307.1
11451.2
11152.1
11256.1
11347.9
11027.5
10780.2
10747.9
10851.5
10988.4
10724.1
18881.4
10792.5
11099.8
11037.1
10991.1
10991.1
11249.8
11435.3
11131.7
10907.5
11052
11169.8
10838.5
10512.4
10456
10464.9
10643.1
10100.1
9876.98
9989.23
10136.8
10034.9
9993.62
9966.23
10216.7
11593.8
18290
10259.8
10349.9
10600.6
10602
10473.7
10377.8
10476.2
10688.6
10205.8
9890.47
9878.38
9784.96
9540.64
9170.88
8808.47
8871.99
8757.77
8412.44
8089.55
8028.84
7903.05
8144.66
7473.77
7289.28
7316.81
7298.69
7133.96
6897.66
6835.75
6900.92
7152.6
7053.97
7087.32
7113.08
7342.16
7514.16
7507.32
7447.96
7519.76
7646.74
7547.09
7428.08
7267.86
7245.49
7215.13
7166.29
6962.63
6754.76
6689.48
6642.3
10639.4
6373.54
6293.3
6305.88
6308.31
6294.98
6220.74
6222.72
6316.36
6416.35
6615.79
6675.8
6890.77
7382.95
7475.43
7600.5
7901.84
8688.8
8847.56
10151.4
11237.4
11311.7
12435.1
12926.3
12857.7
13079.9
12773.4
12032.8
12075.5
11557.5
10918.9
10966.5
10473.6
9618.81
9635.82
8815.9
7896.29
7906.46
7231.54
6813.27
6892.09
7045.55
7228.1
9160.72
10542.3
10579.4
11298.1
11792.6
11921.1
12324.9
11775.6
11865.3
10879.6
10124.1
10108.8
9904.1
9186.67
9022.12
8389.99
7204.71
6309.02
6276.47
5861.59
6036.18
6155.9
7587.33
8038.3
8712.11
9011.67
9748.63
9839.68
9877.09
10043.5
9614.37
9432.42
9105.42
8763.86
8200.06
8170.93
7982.77
6893.11
6811.74
6927.57
75975.3
67082
65693.9
55566
53190
51615.4
51192.4
50777
50037.2
49064.8
48576.7
48504.5
47192.2
47560.9
46766
47167.8
46492.9
46635.4
45932.1
46234.4
46291.6
45946.2
45308.4
45518.9
45703.1
45381
44769.1
44893.6
45120.3
44839.2
44237
44285.5
44514.5
44264.2
43643.7
43627.3
43847.9
43553
42936.8
42863.4
42973.7
42702.9
41917.6
41804.2
41940.6
41305.7
40645.3
40467.7
40022.8
39710.6
38036.3
37849.7
37886.5
35477.6
34888.3
34430
30470
28432.8
31516.6
31919
36543.9
41719.7
42571.5
42639.1
44268.6
46115
45692.5
45564.3
46949.5
51044.7
52331
52480.7
52589.8
57039.7
57325.4
57437.3
55262.8
60949
59736.3
61045.4
63478.8
63876.6
62896.9
63956.3
67206.8
66579
65857.2
66349.1
69742.4
69275
68844
67278.6
72239.3
71746
71573
73120
74585.4
73283.4
73949.9
77695.3
76792.3
75990.2
74457.7
79657
78938.7
78519.6
81410.7
81623.6
80209
80008.3
84527.9
83473.9
82676.7
79414.6
86083.2
84239.4
84161.5
88912.4
87681.5
86631.3
83288.5
90219.2
88235.6
87361.6
92866.3
91523.7
90296.2
94299.7
93842.6
92013.9
88174
96167.7
93387.3
92650.1
98491.8
96944
95207.4
99982.1
99028.5
96912.9
93346.4
100909
98242.8
94422.6
102827
99498.6
96985.5
104348
100423
99222.6
106224
101817
101120
107976
106109
102763
109838
107998
104423
111306
109252
105237
112462
107557
105537
113482
108634
105280
114386
109687
105638
115022
110457
107084
115494
110704
116907
115800
109642
118616
113205
109717
118859
113344
119207
114923
111383
121374
115447
112351
120926
113542
123297
117031
114136
123722
115630
127303
120321
123439
117710
108988
121955
113604
124095
115485
125935
117879
128113
121244
127639
123060
99284.5
128455
136776
140451
144916
148768
146799
150894
143849
143885
141069
138071
137181
131952
132279
126230
126809
117956
118207
106251
106596
95612.1
98619.7
98981.3
91667.4
90802
75601.5
74453.7
61109.5
61278.5
61095.7
54911.1
54471
48979.1
49254
44483.2
42008.7
41388.9
36951.5
36940.6
33563.2
34065.4
32475.8
32379.8
32836.6
30882.6
31011.3
26317.9
27980.5
28395.1
31950.5
32691.6
33040
30841.1
30900.8
27825.2
28262.3
27621
27745.8
28189.3
28869.9
31897.3
32867.9
32205.1
32515
32825.9
36487.7
37167.4
37579.8
40106.7
40846.4
43697.8
44731.5
46918
48750.7
49348.1
50499.8
50838.2
51237.2
50435.7
51717.1
51921.2
51159
52093.2
52642.8
52188.3
52787.4
53383.9
53190.8
53298.7
52758.7
51513.5
51465.5
49598.1
50730.1
50991.8
49929
49921.1
50097.5
48857.3
49391.1
49541.4
48549.8
48354.8
48411.6
47853.5
47252.9
47222
47093.1
46228.3
46122.3
46361
45346.6
44817.5
45620.1
44410.3
44295.2
44888.4
42944.4
43774.7
44109.5
40713.6
43184
43242.7
43038.6
42449.4
42258.3
42493.9
41399
40949.1
41414.3
39059.1
40059.4
40157.2
39629.6
39060.2
38830.2
38894.3
37751.2
37335
37619.7
34663
36408.8
36307.3
36265
35356.2
34771
35109.7
32383.5
33991.9
33922.9
33908.2
33129.8
32621.7
32912.2
30464.9
31971.5
31848.3
31948.8
31258.4
30988.5
31155.1
30847.5
30634
30176.8
30608.1
29512.8
29991.6
29967.4
30149.7
29670.9
29388.9
29565.3
29473.2
29480.9
29298.4
29706.6
28150.7
29237.5
29103
29300.2
28631.8
28583
28579.3
28709
28209.1
27865.8
27966.5
27949.2
27461.9
27034
27222.7
27003.6
26683
26194.4
26445.7
25575.9
25893.5
25458.9
25774.6
23897.4
25207.4
24978.1
25070.7
23656.3
24508
24320.2
24511.6
23428.3
24185.3
24011
24269.6
23212.7
24001.1
23817.6
24084.8
22824.9
23778
23565.5
23822
21930.2
23436.5
23021.7
23336.1
22577.3
22873.8
22375.6
22608.5
22453.6
21988.6
21503.5
21653.1
21596.2
21090.7
20684.9
20755.9
20752
20297.5
19892.1
19876.3
19901.7
19437.5
19103
18997.3
18987.3
18201.7
18286.1
18092.3
18121
17715.6
17646.9
17352.4
17515.4
17754.8
17558
17455.8
17531.5
17870.5
17617.5
17532.8
17454.7
17588.6
16750.6
17056.5
16600.9
16807
16717.5
16097.3
15600.8
15639.1
15522.6
15056.1
14706.5
14623.4
14620.4
13846.9
14145.5
13853.5
14016.8
14091.4
13740.7
13499
13520.4
13544.9
13245.5
12990
12861
12875.3
12609.5
12471.9
12173.5
12250
12301.2
12060.1
11824.1
11757.7
11803.8
11041.5
11441.8
11149.2
11253
11293.1
11000.8
10776.2
10747.1
10841.9
10518.4
10716.9
10634.7
10789.6
11039.7
11014.7
10987.1
10990.3
11240
10985.3
11124.2
10904.7
11049.3
11115.1
10815.2
10508.7
10455.6
10457.3
9905.95
10093.3
9874.62
9987.37
10105.6
10010.6
9990.17
9965.88
10211.6
9742.57
10313.6
10257.6
10348.2
10582.3
10563.4
10470.3
10377.4
10472.6
10479.4
10197.3
9888.63
9877.51
9776.37
9457.35
9167.7
8807.44
8870.29
8723.96
8402.59
8088.06
8028.55
7899.78
7350.28
7470.68
7288.38
7316.08
7290.1
7116.41
6896.21
6835.64
6899.46
7092.04
7049.41
7086.26
7112.67
7338.69
7392.84
7504.98
7447.12
7518.95
7635.72
7513.63
7424.6
7266.66
7245.18
7213.23
7133.84
6953.94
6753.52
6689.42
6641.09
6559.62
6370.5
6292.7
6305.48
6303.27
6289.31
6220.16
6222.44
6312.29
6412.69
4798.53
6675.37
6872.05
7381.47
7475.08
7599.29
7889.89
8688.12
8847.02
10107.5
11236
11311.4
12430.1
12923.6
12857.2
13078
12768.9
12032.4
12074.4
11551.3
10918.5
10965.7
10467.6
9618.54
9635.16
8812.41
7896.14
7905.77
7230.13
6813.13
6891.1
7044.94
7227.84
9156.73
10541.5
10579.3
11100.5
11792.1
11920.8
12320.2
11775.4
11864.7
10878.1
10124
10108.6
9783.61
9186.29
9022.21
8387.75
7203.84
6308.95
6276.23
5852.24
6035.92
6155.68
7582.87
8037.56
8711.7
9011.09
9743.39
9839.31
9876.98
10028.9
9613.75
9432.56
9104.57
8761.19
8199.83
8170.81
7862.31
6892.78
6811.73
6926.18
42996.5
43169.4
42973.5
39778.2
38342.7
37273.5
37022.8
36577.7
36058.6
35292.3
35022.5
34802.6
34685.6
34029.2
33531.1
33696
33751.4
33221.9
32800.5
32926.7
32993.3
32628.3
32255.8
32343.2
32423.2
32151.2
31799.8
31849
31936.5
31716.7
31369.9
31384.3
31467.3
31277.9
30917.9
30901.9
30973.5
30773.7
30400.5
30357
30370.8
30178.4
29713.3
29648.5
29650.2
29291.8
28840.8
28744
28470.3
28192.5
27266.1
27153.2
26987.6
25715.1
25156.5
24916.7
22829.3
19134.5
19055.1
19216.4
22592.5
26081.8
27342
27488.3
29056.6
30836.2
30597.1
30459.7
30902.1
33316.5
34261.1
34336.3
35229.6
37764.9
38241.6
38276.6
39031.9
41008.1
40364.6
41309.4
44266.8
43515.4
42964.8
43692.1
46210.1
45677.9
45235.9
45655.7
47903.3
47671.9
47360.2
47412.3
49717.7
49559.4
49356.8
52169.2
51464.8
50686.5
51162
53846.6
53153.2
52616.3
52576.9
55107.5
54755.1
54395.7
57797.2
56537.1
55655
55796.4
58623
57951.2
57377.8
56171.3
59702.9
58552.3
58711.3
61815.1
60921.1
60192.7
58944.7
62612.2
61353.6
61309.3
64541.4
63638
62814.2
66826.8
65183.9
63991.9
64196.2
66792.1
65002
64950.6
68567.6
67387.3
66294.3
70672.2
68877.2
67507.3
66160.6
70227.9
68488.6
68681.6
71654.1
69447
69056.4
72669.7
69982.3
69806.6
73985.4
70825.3
70777.9
75267.1
73478.6
71717.4
76597.7
74812.6
72980
77816.9
75843.4
73896.7
78609
74844
74651.1
79156
75600.6
75575.8
79618
76349.5
74904.4
79964.9
76988.7
75642.9
80233.8
77487.5
82716.5
80426.1
78062.2
82719.2
78790.9
77377.9
82489.4
79222
84529.9
79887.4
80058.5
84388.2
80374.4
83828.9
83701.3
80752.3
85748
81292.8
80096.1
85551.4
82667.3
88653.5
83982.2
88088.8
81655.2
76537.6
82420.9
78171.4
83527
78368.3
84377.2
79501
87108.9
82668
90506.4
87277.6
95342.7
95834.1
104439
105558
111543
112063
114609
114797
112481
112944
111090
110661
111701
108030
108884
105106
105435
100814
100420
94539.4
93393.1
86548.9
85857
86236
83121
82870.3
71176.8
69893.7
59776.4
56285
55770.1
49870.3
49221.8
42553.9
42223.5
38539.1
35427.8
34954.2
30023.4
29599.4
26060.5
25725.7
24127.1
22787
22926.1
21959.3
21645.9
18925.6
18591.3
18738.7
20856.5
20990.7
21033.1
19236.6
19208
17880.2
17888.5
18497.9
19003.4
19344.7
21470.7
23610.5
24394.2
23731.8
23855.3
24916.7
27636.2
28150.8
29677.6
30453.5
30963
32170.5
32356.4
34394.1
35200.4
35563.3
34931.3
36335.7
36814.3
37076.5
36029.2
36504.3
35167.8
34128
34903.9
34234
34447.4
36556.8
36670.1
36561.2
36343.6
33871.2
33772
33411.8
33315.9
33430.3
34002.2
32988.2
33076.1
33500.9
32848
32910.3
33262.5
32279.3
32286
32639.4
31724.5
31677.5
32049.2
31284.8
31169.8
31540.8
30939.4
30541.3
31081.4
30648.9
30286.2
30656.4
30355.3
30007
30210
28575.6
29672.8
29710.3
30028.8
29277.4
29149.9
29359.3
28813.3
28371.7
28647.1
28201.9
27837
27899.6
28074.1
27260
27128.3
27195.3
26656.1
26212.4
26375.3
24926
25633.9
25586.2
25638.1
25054.5
24641
24829.3
23491.8
24133.8
24105.8
24161.6
23649.1
23298
23456.1
22273.7
22879.6
22825.9
22894.3
22535.1
22276.5
22369.6
22552.8
22039.8
21790
22020.3
21829.3
21632.9
21632.2
21765.1
21467.4
21263.8
21360
21587.8
21255.7
21138.5
21346.7
20402.4
21031.9
20976.4
21059.8
20801.9
20593.2
20597.7
20671.8
20342.4
20092.8
20143.9
20205.9
19780.1
19508.9
19599.2
19701.4
19192.9
18899.8
19017.4
19013.6
18597.7
18332.2
18477.7
17568.4
18040.8
17934.2
17909.6
17622.2
17507.7
17425.3
17465.7
17310.8
17193.1
17120.3
17200.3
17064.8
16964.6
16890.1
16974.4
16791.8
16738.8
16652.7
16733.1
15898.3
16469.7
16259.7
16398.2
16431.3
16099.6
15834.5
15933.7
16002.1
15531.1
15273.2
15336.7
15336.7
14970
14741.6
14770.7
14743.5
14434.1
14187.2
14176.8
14132.3
13823.4
13552.2
13498.8
13403.3
13099.1
12890.4
12803.8
12740.8
12783.2
12394
12238.7
12308.2
12430.3
12254.9
12197.5
12234.7
12374.6
12204.9
12115
12083.1
12091.2
11876.1
11714.9
11462
11539.3
11519.1
11076.3
10807.7
10817.3
10718.1
10438.1
10234.9
10198
10143.7
9927.29
9835.75
9666.85
9727.69
9755.12
9488.88
9334.85
9337.76
9290.2
9085.46
8905.83
8848.4
8793.72
8832.97
8507.56
8348.63
8375.41
8368
8207.09
8077
8049.64
8034.21
7876.65
7803.92
7651.61
7687.76
7680.18
7500.12
7389.59
7378.75
7397.61
7307.99
7309.83
7271.61
7333.68
7437.11
7380.04
7349.5
7350.25
7420.34
7324.27
7275.26
7144.6
7194.86
7188.12
6996.79
6843.26
6820.97
6794.82
6656.27
6612.08
6529.73
6576.78
6645.6
6617.71
6649.78
6651.66
6789.87
6792.58
6881.33
6882.62
6925.8
7050.3
7041.99
6999.39
6960.36
6987.57
7022.4
6813.57
6649.3
6639.94
6565.25
6393.3
6225.1
6038.35
6058.87
5970.35
5779.45
5608.55
5577.44
5485.21
5338.71
5223.33
5118.55
5125.66
5085.31
4965.76
4861
4837.28
4865.65
4968.19
4938.4
4970.13
4985.86
5098.6
5146.34
5191.05
5171.4
5203.42
5258.49
5193.5
5145.8
5065.61
5054.87
5028.2
4985.28
4877.11
4770.4
4740.49
4703.61
4666.25
4556.39
4528.64
4535.74
4538.34
4538.74
4518.48
4521.98
4576.35
4653.74
4798.2
4834.73
4974.59
5271.87
5358.49
5426.59
5641.68
6114.32
6207.94
6944.8
7643.08
7712.81
8449.71
8839.83
8866.88
8988.07
8775.17
8251.01
8238.04
7761.03
7279.58
7269.71
6831.15
6256.77
6233.49
5681.51
5171.95
5157.87
4796.92
4615.9
4648.37
4787.16
4894.56
5891.45
6677.43
6756.36
7604.6
8206.2
8306.43
8649.41
8309.23
8343.13
7550.25
6934.65
6881.77
6538.31
6015.13
5899.97
5360.81
4591.82
4095.52
4062.87
3844.82
4003.81
4076.19
4854.58
5373.72
5963.32
6161.75
6741.26
6885.34
6914.06
7003.06
6694.34
6577.82
6248.32
5916.67
5453.59
5408.55
5152.81
4468.85
4426.98
4471.05
26639.1
29269.1
29519.2
29415.8
28961.8
28335.5
28185.7
27864.8
27572.4
26898
26724.5
26487.1
27052
25838.5
25476.5
25550.5
26053.5
25133
24835.7
24894.4
25030
24618.6
24360.4
24400.9
24478.2
24214.4
23973.4
23994.8
24057.1
23863
23623.8
23627
23680.2
23526.8
23276.3
23263.2
23305.2
23167.5
22896.7
22868.7
22881.3
22755.5
22431.2
22390.8
22383.8
22196
21846.3
21790
21660.7
21469.3
20907.3
20837
20685.1
20027.7
19576.6
19458.2
18434.1
19013.7
13543.6
13541.8
15518.1
17705.7
18776.2
18913.1
20308.3
21835.1
21714.8
21604.9
21810.5
23123.9
23712.6
23745.1
25042
26309.5
26754.9
26780.9
28857.6
28971.4
28556.9
29335.2
32562.5
31137.1
30769.3
31392.7
33498.5
32954.4
32646.2
33164.6
34720.2
34530.2
34299.5
35358.3
36099.7
36026.7
35874.8
39527.3
37453.6
36907.3
37388.3
39442.3
38784.5
38397.3
39358.8
40276
40027.1
39784.9
43436
41341
40710.9
41225.5
42997.1
42428
42030.9
45647.3
43730.3
42901.2
43386.7
45454.3
44652.1
44159.9
48166.9
45901.9
44992.4
45652.9
47441.3
46673.8
46189.4
50106.5
47808.8
46970.2
48924.6
49033.2
47706.9
48286.2
50505.5
49420.9
48827.7
52826.7
50550.4
49640.5
53584.4
51610.1
50366.1
52344
52747.4
51098.3
52096.4
53558.1
51464.7
52156.3
54541.8
51981.4
52584.2
55527.6
53743.1
53130.8
56518.3
54673.8
54077.2
57468.6
55484.6
54985.4
58029.5
54851.6
55935.4
58330.4
55464.6
57167.9
58549.4
56086.9
58706.7
58713.3
56714.1
61667.7
58840.9
57460.6
61874.8
58926.5
58780.5
60958.9
57928.2
61111.5
60473.9
58680.4
63437.8
58587.8
60511
61992.6
59218.7
64490.4
61164.4
60685.6
63031.9
59781
65120
62396.6
62184.6
64987.6
61850.5
66642.4
59630.1
59287.3
59356.4
57504.3
60137.4
57089
60351.7
57427.9
62393.3
59574.2
66723.5
64446.2
74033.7
73900.4
83297
82948.8
89835.1
88494.6
93752.7
91473.5
95429.1
92222
95614.3
91961.8
94364.8
91483
92799
90707
90937.7
89165.5
88349.6
86483.7
84649.8
82020.3
78082.9
78429
74720.4
74553.3
68777.4
67710.4
60813.5
56037
55037.1
49955.3
49247.9
43018
42599
38838.4
35610.4
34916.9
30243.8
29560
24857.2
24450.3
21759.2
19805.9
19698.4
18476.2
18122.9
17041.4
15171.3
15164.5
15924.6
15746.2
16882.3
14068.2
14057
13594.7
13468.1
14477.2
15242.1
15544.2
18171.6
19697
20358.7
20073.7
20160.2
21575.1
23092.7
23414.5
24654.4
23737.9
24212.4
23940.6
23648.5
25121.3
24847.7
24931.5
26576.3
25190
25588.9
26685.6
24937.3
25540.3
24750.1
23472.2
24230.1
23894
23840.8
26143.6
26351.6
26105.9
26656.4
24354.2
24218.1
24825.2
24104.9
24117.6
25330
23961.4
23978.5
25134.7
23937
23927.1
24852.9
23563
23513.5
24269.9
23254.3
23157.8
23758.6
23062.7
22890.7
23341
22955.4
22551.7
22996.7
22955.4
22417.2
22698.3
23142.2
22259.2
22400.5
23290.6
22068.1
22077
22662
21863.3
21721.9
21961.3
21714.8
21223.2
21426.9
21901.7
20886.2
20925.1
21455
20546.4
20423.9
20536.1
20327.9
19820.3
19936.8
20578.7
19447.1
19406.2
19549.3
19147.2
18775.7
18911.3
19366
18440
18417.9
18553.4
18189.5
17876
17987.8
18529.3
17604.9
17566.1
17659.8
17492
17193.4
17258.2
17708.7
17047.7
16868.5
17031.7
17293.9
16751.7
16752.8
16897.4
16699.7
16490.7
16556
16969.5
16468.1
16359.9
16497
16961.6
16256.8
16221.4
16280.3