/*--------------------------------*- C++ -*----------------------------------*\
| =========                 |                                                 |
| \\      /  F ield         | OpenFOAM: The Open Source CFD Toolbox           |
|  \\    /   O peration     | Version:  v2106                                 |
|   \\  /    A nd           | Website:  www.openfoam.com                      |
|    \\/     M anipulation  |                                                 |
\*---------------------------------------------------------------------------*/
FoamFile
{
    version     2.0;
    format      ascii;
    arch        "LSB;label=32;scalar=64";
    class       volScalarField;
    location    "0";
    object      p_rgh;
}
// * * * * * * * * * * * * * * * * * * * * * * * * * * * * * * * * * * * * * //

dimensions      [1 -1 -2 0 0 0 0];

internalField   nonuniform List<scalar> 
102000
(
57759.3
57172.3
57107.6
57088.6
56902.9
56910.4
56894.9
56824.7
56827.5
56775.1
56772.7
56764.8
56730
56730.9
56717.1
56712.3
56715
56707.5
56713.6
56715.8
56721
56738
56756
56761.3
56786.6
56823.1
56860.2
56871.3
56924.3
56977.7
57053
57071.4
57137
57257.9
57341.3
57371.3
57522.5
57613.9
57827.5
57864.6
57965.2
58314.6
58407.9
58484.8
58904.1
58907.5
59548.2
59598.6
59585
60712.7
60474.3
60681.1
62023.8
61081
63280.9
63272
61957
66391.3
63223.1
62877.3
63538.6
61562.1
61738.4
61709.3
61010.3
60855
61159
61105.6
59778
58959.7
58080.9
57859.9
57184
56339.6
55714.8
55547.4
54789.4
54216.4
54054.2
53497.4
52915.9
52328.5
52191.9
51678.4
51103.1
50597.8
50472.2
49947.6
49350.2
48843.7
48716.6
48180.2
47638.7
47151.9
47014.1
46477
45957.6
45839.9
45382.8
44856.1
44377.1
44261.3
43770.8
43258.5
42806.3
42678.9
42173.5
41688.1
41575.3
41108.6
40603.4
40152.1
40036.7
39553.1
39070.6
38960.2
38510.8
38019.4
37579.7
37469.3
36999.6
36533
36428.8
35989.2
35513
35095.9
34984
34515.5
34080.5
33981.9
33533.4
33085.7
32978.1
32539.2
32095.4
31648.3
31524.1
31213.8
30802.5
30710.8
30334.4
29906.1
29824.7
29477.4
29043.1
28982.4
28711.1
27994.5
27897.2
27488.5
26942
26829
26392.2
25844.3
25409.7
25298.7
24753
24496.7
24447.9
23997.9
23634.5
23538.5
23108.4
23008.8
22622
22187.2
22091.6
21682.6
21286.5
21205
20809.7
20383.8
20304.6
19888.8
19477.7
19393.6
18956
18564.6
18462.3
17980.2
17892.3
17456.6
16993.6
16907.8
16430.9
16324.3
15906.1
15432.6
15351.3
14886
14357.7
14225.5
13756.9
13664.9
13112.8
12777.3
12721.2
12252.2
12292.7
12870.8
11991.5
9541.9
3987.42
3001.51
3531.83
3607.94
2999.81
2906.28
2183.84
2094.78
1086.35
703.301
-2443.43
-2486.63
-2662.47
-2290.16
-298.069
-284.088
406.551
459.38
785.877
988.394
1052.49
1201.71
1227.36
1409.62
1436.51
1599.38
1616.94
1721.33
1741.69
1849.43
1862.75
1939.57
2181.25
2162.2
2868.42
2901.71
2233.52
2265.13
2083.76
2346.03
2265.15
3004.52
3108.31
2403.71
2410.9
2194.18
2206.19
2209.05
2217.77
2219.67
2234.03
2235.01
2242.32
2253.65
2255.68
2269.88
2278.21
2312.76
2686.62
2755.11
2425.23
2441.11
2344.97
2354.47
2356.02
2361.27
2356.09
2336.82
2261.27
2256.7
2264.34
2468.16
2514.45
2694.64
2758.8
2793.73
2664.77
2676.17
2888.85
3137.01
3111.61
3129.98
3267.94
3153.92
3126.29
3168.67
3590.6
3084.16
3052.26
2966.94
3021.68
2948.43
2920.55
3031.7
2916.53
2847.06
2903.02
2677.99
2437.03
2419.7
2275.73
2266.57
2324.14
2601.9
2382.25
2342.83
2173.31
2170.06
2170.87
2176.18
2172.24
2179.09
2223.81
2361.82
2402.02
2591.45
2837.02
2898.63
3162.79
3470.79
3546.5
3840.97
4185.19
4500.99
4585.42
4951.03
5293.73
5375.28
5753.76
6124.23
6205.8
6591.58
6990.57
7077.92
7464.93
7893.29
7995.79
8382.37
8830.75
9244.03
9344.5
9800.66
10250.2
10350.5
10798.1
11279.5
11395.5
11827.9
12320.9
12775.4
12883
13362.7
13845.4
13956.1
14405.6
14899.4
15339.5
15449.7
15923
16378.8
16483.5
16909.7
17368.5
17772.7
17873.5
18298
18704.9
18799.5
19165
19554.3
19894.3
19974.5
20305.6
20629.4
20896.6
20972.4
21250.9
21495.5
21550.3
21764.6
21978.3
22152.3
22193.8
22358.2
22509.4
22634.3
22668.6
22795.9
22912.8
22940.9
23046.7
23168.1
23287.8
23318.4
23445.6
23599.6
23762
23804.7
23991.3
24221.1
24457.5
24521.6
24801.2
25128.3
25451
25541.7
25920.9
26339
26736.2
26852.4
27312.7
27795.4
27923
28366.4
28875.8
29365.3
29495.9
29950.8
30428.1
30901.1
31012.7
31403.9
31835.6
32205.8
32299.3
32620.4
32943
33210.8
33279.4
33502.1
33681.2
33866.2
33949.3
33969.2
34092.4
34054.4
34095.6
34106.6
34021.5
34010.6
33888
33854.7
33778.3
33598.1
33500.1
33468.5
33305.5
33233
33112.7
33097
33078.9
33000.4
33088.1
33102.7
33168.9
33418.1
33652.3
33757.4
34116.9
34516.9
35093.8
35606.8
35755.3
36403.7
37026.8
37684.7
37846.8
38409.2
39065.2
39535.2
39661.9
40105.1
40442
40739.7
40889.6
40926
41037.3
41019.2
40963.9
40938.9
40790.1
40611.1
40372.5
40309.3
40077.5
39790.7
39532.2
39293.6
39224.7
39009
38819.8
38713
38691.9
38642.9
38672.4
38800
38852.8
39059.5
39368.1
39764.9
40192.4
40315.1
40787.6
41329.1
41821.8
41948.9
42394.1
42842.7
43212.2
43483.2
43554
43758.8
43876
43898.6
43895
43854.5
43722.2
43568.9
43370.6
43310.4
43113.1
42865.7
42683.7
42633.6
42456.3
42343.8
42263.3
42269.3
42276.4
42322.9
42509.3
42703.6
42770.6
43038.8
43317.4
43651.9
43898.1
43969.6
44275.4
44486.6
44676.5
44707.1
44787.5
44874.6
44849.2
44835.4
44826.7
44756.7
44739.9
44687.7
44691
44714.4
44744.3
44918.6
45112.5
45179.2
45480.3
45838.7
46285
46701.7
46829.6
47332.3
47820.1
48313.6
48441.3
48886
49391.8
49839.1
50283.1
50407.7
50838
51338.3
51772.6
51903.4
52341.3
52765.2
53238.8
53601.3
53703.3
54076.9
54370.5
54675.5
54859.1
54909.3
55112.7
55185.9
55308.9
55331.5
55352.2
55441.8
55393.4
55519.6
55439.7
55457.9
55519.8
55393.1
55542.5
55438.8
55427.9
55516.8
55450.8
55534.8
55555.1
55623.7
55721.7
55927.2
55972
56093.4
56407.3
56608.8
56659.2
57000.9
57220.9
57277.2
57569.4
57714.1
57753.6
57906.9
57900.1
57907
57914.6
57826.2
57866.5
57880.4
57846.4
57881.3
57890.4
57810.4
57727.5
57708.8
57511.9
57400
57375.7
57220.2
57272.4
57289.2
57456.7
57598.4
58178.4
58968.9
59129.2
59975
60074.6
60106.2
60424.1
60101.6
59999.9
60124.6
59945.8
59906.8
60162.4
59743.2
59715.4
59661.6
59037.6
58922
58909
58440.6
58802.2
58844.7
58932
59898.9
60158.5
60185.2
60890.5
60730.7
60743.2
61131.1
60632
60743
61029.2
60355.1
60798.8
60827.3
59787.8
60538.7
60310.2
59270.8
57772.7
57134.9
57086.1
57096.7
56900.2
56915.3
56903.2
56822.5
56828.3
56772.6
56771.1
56766.5
56730.1
56731.7
56715.6
56711.7
56715.2
56707.1
56714.3
56716
56721
56738.3
56756.7
56760.6
56786.5
56823.4
56861.2
56869.3
56924.3
56977.4
57056.6
57070.3
57135.7
57259.5
57340.9
57363.2
57523.9
57611.4
57840.3
57867.7
57957.9
58321.2
58394.8
58452.6
58915.7
58894.5
59600.1
59636.1
59550.2
60743.7
60389.6
60546.7
62089.8
61012.5
63522.8
63510.5
61793.6
66566.3
62916.2
62664.7
63607.3
61502.4
61795.2
61774.2
61000
60837.1
61237.2
61200.2
59763.9
58954.3
58027.2
57861.5
57182.3
56321.5
55686.1
55561.3
54786.7
54207.9
54084
53500.4
52913.4
52311.3
52209.3
51680.4
51098.5
50580.7
50487.3
49946.9
49342.3
48820.9
48726.5
48177.1
47628.8
47122.3
47018.3
46474.6
45943.1
45855.3
45383.3
44850.6
44356.5
44270.6
43767.6
43248.6
42778
42681.7
42170
41671.6
41587.8
41106.4
40595.8
40127.3
40041
39545.5
39055.9
38973.4
38508.7
38012.1
37555.4
37473
36993
36517.4
36439.8
35986
35504
35069.4
34985.1
34510.7
34061.9
33988.8
33528.2
33073.8
32992.5
32534.8
32089.9
31614.4
31521
31212.2
30779.6
30711.3
30325
29887.1
29826.8
29472.9
29022.8
28977
28708.4
27971
27899.3
27485.8
26927.6
26840.3
26388.8
25830.8
25385.1
25302.5
24741.2
24488.8
24450.3
23986.9
23607.2
23534.2
23097.8
23020
22615.7
22175.2
22101.6
21678.3
21273
21210.8
20793.8
20364.2
20304.9
19871.8
19452
19389.1
18944.9
18531.5
18453.2
17961.5
17894.1
17435.5
16966.8
16902.5
16418.1
16332.1
15894.3
15408.4
15345.7
14871.3
14308.9
14209.5
13738.8
13667.1
13101.6
12754.7
12711.4
12141.2
12154.4
12816.4
12019.6
9109.73
3588.62
2969.46
3691.95
3738.04
3019.68
2959.97
2223.72
2175.98
1364.71
1156.31
-2083.11
-2122.68
-2483.18
-2214.87
-241.426
-226.963
407.623
448.346
769.205
993.238
1034.61
1200.21
1221.27
1408.7
1429.49
1598.09
1611.08
1716.69
1730.12
1841.8
1852.93
1927.17
1955.22
1959.66
2590.71
2631.61
2023.73
2028.6
2071.58
2113.22
2122.03
2754.07
2826.9
2178.49
2179.99
2194.31
2206.81
2208.99
2217.62
2219.05
2233.77
2234.71
2241.82
2252.94
2254.29
2266.7
2267.83
2275.79
2570.32
2617.57
2331.11
2332.64
2345.16
2354.8
2355.91
2360.8
2356.68
2336.78
2253.02
2247.13
2238.65
2341.18
2373.08
2478.1
2448.75
2498.96
2374.06
2383.19
2573.28
2607.13
2702.95
2690.11
2619.89
2742.14
2639.23
2626
2249.76
2584.32
2614.64
2604.31
2522.01
2583
2593.61
2503.26
2594.09
2536.11
2479.14
2472.38
2289.25
2276.2
2235.97
2235.04
2286.38
2514.21
2326.39
2301.82
2180.35
2170.32
2171.11
2173.56
2168.67
2174.42
2223.81
2363.35
2393.43
2590.95
2839.31
2885.66
3161.01
3472.73
3529.92
3837.41
4186.06
4515.86
4580
4950.73
5306.34
5367.26
5752.41
6133.97
6194.22
6588.45
6996.99
7061.63
7462
7896.28
7973.58
8376.46
8830.65
9258.86
9333.89
9798.55
10259.4
10333.5
10795.2
11283.2
11370.6
11821.1
12320.2
12789.9
12869.8
13358.2
13852.3
13934.6
14400.6
14900.1
15356
15438.4
15918.5
16386.3
16464
16905.3
17369.3
17787.7
17863.1
18294.1
18710.8
18781.3
19160.6
19554.2
19905
19964.6
20304
20632.5
20910
20967.9
21250.1
21501
21541.6
21762.9
21979
22158.4
22189.3
22357.6
22510.8
22640.3
22666.4
22795.2
22914.8
22935.8
23045.1
23168
23290.3
23313
23444.2
23599.5
23766.5
23798.1
23989.8
24221.6
24465.6
24513.3
24799.8
25130.2
25464.4
25532.5
25919.5
26342.8
26755
26843.1
27309.9
27801.6
27898.1
28357.1
28874.3
29372.2
29470.6
29943.9
30426.8
30910
30993.7
31396.8
31834.8
32211.9
32282.3
32616
32942.4
33215.1
33266.9
33501.1
33680.6
33872
33950.5
33965.2
34093.1
34051
34104.5
34113.8
34021
34014.5
33879.4
33854.2
33780.6
33595.3
33500.6
33477.3
33304.3
33234.7
33104.8
33093.2
33081.6
32998.3
33092.6
33103.3
33161.2
33418.4
33650.8
33731.5
34110.3
34515.2
35100.6
35623.9
35734.4
36402.3
37027.2
37711.3
37831.9
38402.8
39067.9
39545
39639.8
40104.9
40441.5
40748.6
40896.7
40924.5
41038.5
41019.8
40965.5
40947.2
40791.4
40612.2
40366.5
40319.3
40082.4
39791.3
39529.1
39280.6
39228.3
39009.5
38817.4
38708.1
38692.3
38641.3
38671.5
38800.2
38840.4
39052.2
39367.4
39767.1
40209.4
40301.1
40784.3
41330.6
41835.3
41930.2
42389.1
42842.3
43219
43497.5
43551.2
43759.6
43878.1
43900.9
43898.1
43858.2
43722.5
43568.9
43359.7
43314.2
43114.6
42863.6
42679.1
42641.7
42455.6
42343.8
42259.4
42269.7
42274.9
42320.7
42510.1
42706.1
42756.2
43036.3
43316.9
43658.9
43906
43959.3
44276.4
44487.2
44685.6
44708.1
44785.9
44874.7
44849.2
44837.5
44831.2
44755.6
44740.6
44683.7
44686.6
44714.4
44743.4
44919.7
45115.7
45165.2
45477.1
45837.9
46293.2
46720.5
46816.7
47331.6
47821.5
48330
48425.1
48879.1
49391.4
49843.4
50303.7
50397.1
50834.4
51339.8
51780.5
51879.3
52335.7
52764.1
53244.3
53611.7
53687.8
54076.9
54370.2
54683.8
54865
54902.5
55114.6
55185.1
55314.3
55327.2
55342.8
55448.2
55391.1
55524.6
55429.8
55444.8
55529.9
55390.7
55551.3
55424
55415.4
55520.8
55447.5
55538.9
55553.9
55622.9
55719.4
55939.5
55973
56090.9
56414.5
56613.8
56651
57002.8
57224.6
57266
57570.3
57715.2
57744.7
57910.5
57898.9
57911.8
57918.5
57822.8
57872.8
57883.9
57844.7
57887.9
57895.4
57809.9
57727.9
57714.7
57509.6
57396.7
57378.9
57214.7
57274.9
57287.5
57446
57555
58175.3
58980.6
59098.5
59976.7
60068.4
60091
60434.9
60064
59983.8
60134.7
59917.5
59885.5
60164.6
59718.8
59699.8
59675.4
59017.4
58936.2
58929.7
58432.9
58825.7
58856.6
58917.4
59932.8
60145
60160.4
60904.7
60700
60708.4
61140.2
60593.7
60684.5
61065.7
60327.4
60881.6
60908.9
59781.4
60620.1
60438.1
59239.2
57776.6
57135.3
57087.5
57097.8
56901.3
56916
56903.8
56823.1
56828.8
56773
56771.5
56766.8
56730.4
56732
56715.8
56711.9
56715.4
56707.3
56714.5
56716.2
56721.1
56738.4
56756.8
56760.7
56786.7
56823.6
56861.3
56869.5
56924.5
56977.6
57056.7
57070.4
57135.9
57259.7
57341.1
57363.4
57524.1
57611.7
57840.5
57868
57958.3
58321.5
58395.2
58453
58916.1
58895.2
59600.7
59636.6
59551.1
60744.2
60390.5
60547.7
62090.4
61014.6
63524.3
63511.7
61796.4
66576
62916.8
62660.4
63605.8
61503.3
61793.7
61774
60998.5
60835
61225.5
61195.2
59751
58946
58020.5
57853.9
57175.2
56314.9
55680.6
55555.6
54784.2
54204.6
54080.9
53494.9
52907.8
52305.9
52204
51674.6
51092.8
50574.8
50481.4
49940.1
49336.2
48815.2
48720.5
48170.8
47622.7
47116.9
47012.2
46469.7
45939.4
45851.4
45377
44844.1
44350.3
44264.2
43760.8
43241.9
42771.8
42674.7
42163.1
41664.8
41581
41098.9
40588.5
40120.5
40033.5
39540.2
39048.5
38966.2
38500.6
38004.2
37548.1
37465
36985.8
36509.5
36431.9
35977.3
35495.6
35061.6
34976.3
34502.1
34053.5
33980
33519.5
33064.7
32983.9
32525.1
32080.4
31613.6
31520.2
31204.1
30771.4
30702.2
30317.3
29878.3
29817.6
29463.5
29013
28965.4
28689.1
27961.6
27889
27472.8
26914
26827.4
26374.1
25817.5
25377
25293.7
24744
24481.3
24440
23974.7
23595.6
23521.1
23084.6
23007.6
22601.6
22162
22090.8
21669.2
21260.2
21197.7
20779.7
20349.4
20289.3
19861.1
19436.4
19372
18927.4
18513.9
18433.5
17942.6
17875.1
17415.3
16947.6
16881.8
16397.9
16312.6
15872.7
15384.1
15320.2
14844.7
14285.5
14184.1
13712.8
13641.1
13078.6
12722.2
12677.6
12078.7
12064.4
12512.2
11799.8
8946.33
3887.34
3254.58
3819.67
3872.59
3101.47
3039.69
2322.62
2284.77
1647.22
1484.11
-1187.23
-1257.66
-2141.24
-1887.25
-245.302
-219.842
404.288
443.83
761.997
987.287
1030.14
1196.51
1217.18
1403.84
1423.97
1592.64
1605.78
1712.25
1726.2
1835.27
1847.28
1923.64
1951.37
1956.51
1944.26
1948.05
2018.9
2024.25
2070.67
2109.27
2118.17
2131.73
2135.14
2176.17
2177.66
2193.01
2206.29
2208.71
2217.06
2218.41
2232.93
2233.34
2240.54
2251.47
2253.05
2266.06
2274.99
2296.57
2297.77
2295.74
2315.11
2317.8
2346.2
2354.51
2355.47
2358.62
2354.24
2334
2250.98
2245.37
2227.71
2238.13
2239.59
2241.55
2241.34
2239.6
2247.12
2248.27
2261.04
2264.75
2264.51
2260.29
2260.31
2255.09
2253.14
2252.98
2251.31
2247.75
2247.22
2243.62
2243.6
2243.1
2241.27
2238.03
2237.39
2226.45
2222.22
2205.39
2201.61
2201.55
2196.71
2195.4
2194.59
2362.12
2264.48
2258.54
2175.69
2170.3
2169.25
2168.71
2164.98
2171.61
2225.54
2364.5
2394.68
2591.76
2839.16
2885.51
3159.92
3470.51
3527.96
3835.07
4183.24
4513.15
4577.22
4947.61
5303.28
5364.22
5749.23
6130.6
6190.98
6586.05
6993.32
7058.2
7458.41
7892.27
7969.95
8372.56
8826.39
9254.73
9329.77
9794.51
10254.9
10329.2
10790.8
11278.5
11366.3
11816.5
12315.4
12785.2
12865.2
13354.9
13847.4
13930
14395.9
14895.2
15351.4
15433.8
15914.7
16381.6
16459.6
16900.8
17364.7
17783.6
17858.9
18291
18706.8
18777.6
19156.8
19550.6
19901.8
19961.4
20301.1
20629.6
20907.6
20965.4
21247.9
21498.9
21539.7
21761.1
21977.3
22157
22188
22356.4
22509.7
22639.5
22665.5
22794.5
22914.1
22935.2
23044.4
23167.3
23289.6
23312.3
23443.4
23598.6
23765.5
23797.1
23988.5
24220.1
24464
24511.6
24797.9
25128
25462.2
25530.2
25917.2
26340.1
26752.3
26840.2
27307.8
27798.5
27895.2
28354
28871.6
29369.1
29467.8
29941.1
30424.2
30907.3
30991.2
31394.5
31832.7
32209.9
32280.5
32614.3
32941
33213.9
33265.8
33500.1
33680.2
33871.6
33950.4
33965.2
34093.1
34051.5
34105.1
34114.3
34021.6
34015.3
33880.5
33855.3
33781.8
33596.6
33501.8
33478.5
33305.6
33235.8
33105.5
33094
33082.2
32999
33093
33103.6
33161.5
33418.5
33649.9
33730.6
34108.8
34513.6
35098.5
35621.6
35732.1
36399.7
37024.6
37708.8
37831.4
38400.5
39065.7
39543.2
39638.3
40103.4
40440.5
40748.5
40896.8
40924.6
41038.8
41020.3
40966.3
40947.9
40792.5
40613.5
40367.8
40320.6
40083.8
39792.6
39530.4
39281.8
39229.5
39010.6
38818.2
38708.7
38692.9
38641.6
38671.7
38800
38840.1
39051.6
39366.4
39765.9
40208.1
40299.7
40782.8
41329
41833.9
41928.9
42387.9
42841.3
43218.2
43497
43550.7
43759.6
43878.2
43901.1
43898.4
43858.6
43723.1
43569.6
43359.9
43315
43115.4
42864.4
42679.8
42642.4
42456.1
42344.3
42259.6
42269.8
42275
42320.8
42509.8
42705.6
42755.8
43035.7
43316.2
43658.3
43905.4
43958.7
44275.9
44487.1
44685.7
44708.1
44785.9
44874.7
44848.3
44837.6
44831.4
44755.8
44740.8
44683.8
44686.8
44714.5
44743.5
44919.6
45115.3
45164.9
45476.6
45837.2
46292.5
46719.8
46815.9
47330.7
47820.6
48329.1
48424.3
48878.2
49390.5
49842.5
50302.8
50396.3
50833.5
51338.8
51779.6
51878.4
52334.8
52763.3
53243.4
53611
53687.1
54076.3
54369.6
54683.3
54864.7
54902.2
55114.4
55184.9
55314.3
55327.2
55342.9
55448.2
55391.2
55524.7
55429.9
55445
55530
55390.6
55551.3
55424.1
55415.5
55520.9
55447.5
55538.8
55553.8
55622.8
55719.1
55939
55972.6
56090.3
56413.9
56613.1
56650.3
57002
57223.9
57265.4
57569.7
57714.7
57744.4
57910.3
57898.9
57911.9
57918.6
57822.9
57872.9
57884
57844.8
57887.9
57895.5
57810
57728
57714.8
57509.7
57396.9
57379
57214.8
57274.9
57287.5
57445.8
57554.7
58174.8
58980
59097.9
59976.3
60068.2
60090.9
60435
60064.1
59984
60134.8
59917.6
59885.6
60164.6
59718.8
59699.8
59675.5
59017.5
58936.3
58929.8
58432.9
58825.6
58856.5
58917.2
59932.5
60144.7
60160.2
60904.6
60700
60708.4
61140.2
60593.8
60684.6
61065.7
60327.4
60881.7
60908.9
59781.7
60620.2
60438
59239.2
57776.6
57135.3
57087.5
57097.8
56901.3
56916
56903.9
56823.1
56828.8
56773
56771.5
56766.8
56730.4
56732
56715.8
56711.9
56715.4
56707.3
56714.5
56716.2
56721.2
56738.4
56756.8
56760.7
56786.7
56823.6
56861.3
56869.5
56924.5
56977.6
57056.7
57070.4
57135.9
57259.7
57341.1
57363.4
57524.1
57611.7
57840.5
57868
57958.2
58321.5
58395.2
58452.9
58916.2
58895.2
59600.6
59636.6
59550.9
60744.3
60390.5
60547.4
62090.8
61014.4
63524
63512.3
61795.6
66562.4
62906.4
62665.4
63601.5
61499.1
61795.4
61771.7
60998.9
60834.1
61228
61184.9
59751
58945.3
58016.8
57852.6
57173.9
56313.2
55678
55553.8
54783.1
54203.6
54078
53493.8
52906.5
52304.2
52201.7
51673.7
51092
50573.1
50479.3
49939.2
49335.2
48812.9
48718.7
48169.6
47621.4
47113.9
47010.8
46468.3
45937.7
45849
45375.9
44843.2
44348
44262.2
43759.5
43240.6
42768.5
42673.2
42161.4
41662.7
41578.3
41097.8
40587.2
40117.3
40031.7
39537.8
39046.4
38963.1
38499.3
38002.9
37544.8
37463
36983.1
36507.2
36428.8
35975.9
35494
35057.7
34974.4
34500.2
34050.5
33977.2
33516.4
33062.6
32979.7
32523.6
32079
31608.4
31519.5
31202.7
30767.6
30699.9
30315.4
29875.1
29814.9
29460
29009.7
28963.1
28684
27957
27884.5
27469.7
26910.8
26821.1
26370.9
25814.2
25370.8
25290.7
24741.4
24478.1
24436.8
23971.6
23589.6
23518.2
23081.7
23001
22598.3
22158.8
22084.5
21666.1
21256.7
21192.1
20773.8
20344.8
20284.5
19855.4
19430.4
19367.8
18922.9
18505.5
18428
17937.6
17868.1
17415.3
16940.8
16876.2
16391.8
16302.4
15865.4
15377.8
15313.1
14838.6
14273
14177
13706.9
13631.4
13060.3
12714.9
12665
12062.6
12069.4
12430.8
11701.6
8857.61
3777.54
3317.28
3852.05
3880.54
3099.48
3042.75
2323.83
2290.09
1684.19
1486.24
-321.367
-1191.39
-2076.08
-1879.33
-256.554
-222.539
404.83
442.472
761.997
985.922
1029.37
1195.83
1217.22
1403.07
1423.33
1592.07
1605.38
1712.01
1725.63
1834.99
1846.79
1924.66
1951.04
1955.52
1942.18
1945.6
2017.4
2023.8
2070.98
2108.92
2116.31
2130.88
2133.73
2175.67
2177.53
2192.33
2206.22
2208.67
2217
2218.33
2232.67
2233.3
2239.81
2251.36
2252.89
2265.6
2274.66
2325.94
2297.63
2294.97
2311.75
2317.18
2346.79
2354.46
2355.43
2358.16
2354.29
2333.33
2251.06
2245.27
2228.11
2238.2
2240.24
2242.08
2241.47
2241.41
2247.49
2248.67
2263.22
2264.78
2264.66
2260.32
2260.32
2255.31
2253.12
2252.95
2253.37
2247.75
2247.2
2244.02
2243.64
2243.21
2241.45
2238.02
2237.2
2225.69
2222.19
2206.1
2202.06
2201.66
2199.14
2195.89
2194.77
2305.63
2260.31
2257.02
2176.43
2170.3
2169.26
2166.41
2164.86
2171.39
2225.72
2364.38
2394.15
2591.73
2838.89
2884.75
3159.5
3470.15
3527.05
3834.6
4182.85
4512.16
4576.7
4947.13
5302.42
5363.64
5748.34
6129.88
6190.28
6585.07
6992.73
7057.34
7457.72
7891.79
7968.88
8372
8825.88
9253.8
9329.11
9793.07
10254.2
10328.4
10790
11278
11365.2
11815.9
12314.9
12784.3
12864.5
13353.9
13846.8
13929.1
14395.3
14894.7
15350.5
15433.2
15914.2
16381.1
16458.8
16900.4
17364.3
17782.8
17858.4
18290.3
18706.4
18776.9
19156.5
19550.2
19901.3
19961
20300.6
20629.3
20907
20965.1
21247.4
21498.7
21539.3
21760.9
21977.2
22156.7
22187.8
22356.2
22509.6
22639.2
22665.4
22794.2
22914
22935
23044.3
23167.2
23289.5
23312.2
23443.3
23598.5
23765.3
23796.9
23988.4
24220
24463.7
24511.3
24797.6
25127.8
25461.7
25529.8
25916.5
26339.8
26751.7
26839.8
27307.1
27798.2
27894.5
28353.7
28870.5
29368.8
29467.1
29940.8
30423.4
30907
30990.7
31394.2
31832.1
32209.7
32280
32614.2
32940.5
33213.7
33265.4
33500
33679.9
33871.4
33950.3
33965.1
34093.2
34051.6
34105
34114.5
34021.6
34015.3
33880.7
33855.4
33781.9
33596.7
33501.9
33478.7
33305.5
33235.8
33105.7
33093.9
33082.2
32999.1
33092.9
33103.6
33161.3
33418.5
33649.8
33730
34108.6
34513
35098.1
35620.9
35731.5
36399.6
37024.3
37708
37828.9
38400.1
39065.5
39542.8
39637.6
40103.3
40440.3
40748.2
40896.6
40924.5
41038.9
41020.4
40966.3
40948.1
40792.6
40613.5
40368
40320.9
40083.9
39792.9
39530.6
39282.1
39229.7
39010.6
38818.3
38708.8
38692.9
38641.5
38671.7
38799.9
38839.8
39051.4
39366.2
39765.7
40207.7
40299.3
40782.6
41328.9
41833.6
41928.4
42387.7
42840.9
43218
43496.7
43550.6
43759.6
43878.1
43901.1
43898.4
43858.7
43723.2
43569.7
43360.7
43315.1
43115.5
42864.5
42679.9
42642.6
42456.2
42344.3
42259.7
42269.8
42275
42320.7
42509.8
42705.4
42755.5
43035.6
43316.1
43658.1
43905.2
43958.5
44275.9
44487
44685.5
44708.1
44785.9
44874.8
44848.3
44837.6
44831.4
44755.8
44740.8
44683.8
44686.7
44714.5
44743.4
44919.6
45115.2
45164.7
45476.5
45837.2
46292.4
46719.5
46815.8
47330.7
47820.5
48328.9
48424.1
48878.1
49390.3
49842.4
50302.6
50396.1
50833.4
51338.8
51779.4
51878.2
52334.7
52763.2
53243.3
53610.9
53687
54076.3
54369.6
54683.2
54864.6
54902.2
55114.4
55184.9
55314.2
55327.3
55342.8
55448.3
55391.1
55524.6
55430
55444.9
55530.1
55390.8
55551.2
55424.1
55415.4
55520.9
55447.5
55538.8
55553.8
55622.7
55719.1
55938.5
55972.6
56090.3
56413.8
56613.1
56650.3
57002
57223.9
57265.3
57569.7
57714.7
57744.3
57910.3
57898.9
57911.9
57918.6
57823
57872.9
57884
57844.8
57887.9
57895.5
57810
57728.1
57714.8
57509.7
57396.9
57379
57214.8
57274.9
57287.5
57445.8
57554.6
58174.8
58979.9
59097.8
59976.3
60068.2
60090.8
60434.9
60064.2
59984
60134.8
59917.6
59885.5
60164.6
59718.9
59699.8
59675.6
59017.6
58936.3
58929.8
58433
58825.5
58856.5
58917.1
59932.4
60144.7
60160.1
60904.5
60700.1
60708.3
61140.4
60593.9
60684.5
61065.8
60327.5
60881.6
60909.1
59781.5
60620
60438.4
59239.1
57769.2
57136.9
57089.3
57098.8
56902
56916.6
56904.4
56823.6
56829.2
56773.3
56771.8
56767.1
56730.6
56732.2
56716
56712.1
56715.5
56707.4
56714.6
56716.3
56721.3
56738.6
56757
56760.9
56786.8
56823.7
56861.4
56869.6
56924.6
56977.7
57056.9
57070.5
57136
57259.9
57341.2
57363.5
57524.3
57611.9
57840.7
57868.2
57958.5
58321.8
58395.5
58453.3
58916.5
58895.7
59601.1
59637.2
59551.7
60744.9
60391.4
60548.5
62091.5
61015.9
63525.5
63513.5
61797.4
66543.1
62906.9
62660.1
63599.4
61499.4
61793.1
61771
60996
60830.7
61213
61171.7
59736.3
58935.5
58009.1
57843.8
57165.7
56305.8
55671.3
55546.8
54779.8
54199.1
54073.8
53487.2
52900.3
52298.1
52195.8
51667.2
51085.6
50566.4
50472.6
49931.6
49328.4
48806.6
48712.1
48162.6
47614.6
47107.7
47003.8
46462.6
45933
45844.2
45368.6
44835.9
44341.1
44255.1
43751.9
43233.1
42761.8
42665.5
42154
41655.1
41570.8
41089.4
40579
40109.8
40023.4
39528.6
39038.2
38955.1
38490.4
37994.2
37536.7
37454.1
36973.3
36498.4
36420.1
35966.2
35484.7
35049.2
34964.7
34490.8
34041.2
33967.5
33507.1
33052.4
32970.1
32512.8
32068.8
31607.7
31518.6
31193.7
30758.5
30689.8
30304
29865.4
29804.6
29449.6
28998.2
28949.3
28662
27947.3
27872.9
27454.6
26896
26806.9
26354.8
25799.3
25362.3
25280.3
24743.1
24469.8
24425.2
23958.3
23577.2
23503.8
23067.3
22987.4
22582.9
22143.8
22070.2
21654
21241.2
21176.7
20760.1
20328.5
20267.5
19836
19413.4
19349
18904.2
18486.6
18406.6
17917.2
17847.4
17391.3
16919.9
16853.6
16370
16280.9
15841.7
15351.3
15285
14804.1
14247.9
14149.1
13677.9
13601.9
13025.3
12671.9
12620.8
11972.6
11945.7
12126.8
11415
8770.9
4077.99
3623.76
4023.82
4058.27
3212.66
3155.86
2443.21
2425.09
1955.82
1822.37
-163.752
-306.759
-1603.36
-1438.58
-233.028
-183.46
411.105
447.995
766.186
987.398
1032.48
1197.93
1219.27
1401.74
1421.82
1590.08
1603.58
1711.27
1725.24
1834.6
1845.75
1921.26
1944.71
1949.43
1925.56
1928.6
2010.47
2016.57
2069.98
2102.78
2110.27
2122.12
2124.64
2172.31
2174.17
2191.89
2206.03
2208.54
2216.75
2218.08
2232.1
2232.73
2239
2250.22
2251.52
2261.7
2264.61
2281.27
2281.52
2281.53
2295.86
2305.32
2349.72
2353.76
2354.28
2355.23
2351.02
2330.04
2249.47
2244.05
2229.54
2242.01
2244.39
2248.89
2248.7
2248.71
2257.86
2258.86
2268.64
2266.78
2266.29
2259.9
2258.75
2254
2250.67
2250.55
2249.02
2245.63
2245.34
2243.54
2243.47
2243.56
2241.13
2234.8
2233.99
2219.35
2219.02
2210.49
2209.99
2209.98
2208.22
2204.41
2202.82
2191.75
2180.52
2179.72
2177.92
2169.91
2168.88
2162.37
2162.09
2169.05
2227.43
2365.62
2395.58
2592.49
2838.56
2884.44
3157.38
3467.45
3524.64
3831.61
4179.4
4508.73
4573.21
4943.34
5298.59
5359.82
5744.44
6125.67
6186.18
6580.39
6988.12
7052.97
7453.18
7886.8
7964.27
8367.03
8820.6
9248.53
9323.86
9788.03
10248.6
10322.9
10784.5
11272.1
11359.7
11810.2
12308.9
12778.5
12858.7
13347.6
13840.8
13923.3
14389.4
14888.6
15344.6
15427.4
15908.1
16375.4
16453.3
16894.9
17358.8
17777.6
17853.3
18285
18701.6
18772.3
19152
19545.9
19897.3
19957.1
20297.1
20625.9
20904
20962.1
21244.7
21496.2
21537
21758.8
21975.2
22155.1
22186.2
22354.8
22508.4
22638.2
22664.4
22793.5
22913.1
22934.2
23043.6
23166.4
23288.6
23311.3
23442.3
23597.3
23764
23795.6
23986.8
24218.1
24461.6
24509.3
24795.3
25125.1
25458.8
25526.9
25913.6
26336.4
26748.2
26836.3
27303.2
27794.4
27890.9
28349.9
28867.1
29365
29463.5
29937.1
30420.1
30903.7
30987.5
31391.3
31829.6
32207.3
32277.8
32612.1
32938.9
33212.2
33264.1
33498.9
33678.9
33871
33950.3
33965.1
34093.3
34052.4
34105.9
34115.3
34022.6
34016.4
33882
33856.8
33783.4
33598.4
33503.6
33480.3
33307.1
33237.3
33106.6
33094.9
33083
32999.9
33093.4
33104
33161.7
33418.2
33648.6
33728.9
34106.8
34510.9
35095.4
35618.1
35728.6
36396.3
37021
37705
37825.8
38397.3
39062.9
39540.7
39635.7
40101.6
40439.2
40748.2
40896.8
40924.7
41039.3
41021.2
40967.4
40949.2
40794
40615.2
40369.7
40322.6
40085.7
39794.7
39532.3
39283.6
39231.2
39012
38819.4
38709.6
38693.6
38641.9
38671.8
38799.5
38839.4
39050.5
39365.1
39764.1
40206.1
40297.7
40780.8
41327
41831.9
41926.9
42386.2
42839.7
43217
43496.3
43550.3
43759.6
43878.3
43901.5
43898.8
43859.3
43724
43570.7
43361.7
43316.1
43116.6
42865.5
42680.8
42643.4
42456.9
42344.9
42259.9
42269.9
42275.1
42320.8
42509.3
42704.8
42754.9
43034.8
43315.3
43657.4
43904.6
43957.9
44275.6
44487
44685.6
44708.1
44786
44874.9
44848.4
44837.8
44831.6
44756.1
44741
44684
44686.9
44714.6
44743.5
44919.3
45114.8
45164.3
45475.8
45836.4
46291.5
46718.6
46814.8
47329.7
47819.5
48327.9
48423
48877
49389.3
49841.3
50301.5
50395
50832.3
51337.6
51778.3
51877.1
52333.6
52762.1
53242.3
53610
53686.1
54075.5
54368.9
54682.7
54864.2
54901.8
55114.2
55184.7
55314.3
55327.3
55342.9
55448.3
55391.3
55524.8
55430.1
55445.1
55530.2
55391.1
55551.5
55424.1
55415.5
55520.9
55447.5
55538.6
55553.6
55622.5
55718.8
55938.5
55972
56089.7
56413.1
56612.2
56649.5
57001.1
57223
57264.4
57568.9
57714.1
57743.8
57910
57898.8
57912
57918.7
57823.1
57873.1
57884.2
57844.9
57888
57895.6
57810.1
57728.3
57715
57510
57397.1
57379.3
57214.9
57275
57287.5
57445.6
57554.4
58174.1
58979.2
59097.1
59976
60068
60090.7
60435
60064.3
59984.1
60135
59917.7
59885.6
60164.7
59719
59699.9
59675.7
59017.7
58936.5
58929.9
58433
58825.5
58856.4
58916.9
59932.1
60144.5
60159.9
60904.4
60700
60708.4
61140.3
60593.9
60684.7
61065.8
60327.5
60881.7
60909.1
59781.7
60620.1
60438.3
59239.1
57763.6
57138
57091
57099.9
56902.9
56917.4
56905.2
56824.2
56829.7
56773.8
56772.2
56767.4
56730.9
56732.5
56716.2
56712.3
56715.8
56707.7
56714.8
56716.5
56721.5
56738.8
56757.1
56761
56787
56823.9
56861.6
56869.8
56924.8
56977.9
57057.1
57070.7
57136.2
57260
57341.4
57363.8
57524.4
57612.1
57841
57868.4
57958.9
58322.1
58395.9
58453.8
58916.9
58896.5
59601.7
59637.7
59553
60745.1
60392.7
60550.1
62091.6
61018.9
63526.8
63514.3
61801.2
66551.2
62907.5
62652.2
63595.4
61499.8
61789.2
61769.5
60992.6
60826.2
61192.7
61154.1
59718.9
58923.7
58000.2
57833.4
57156.2
56297.1
55664.3
55539.4
54777.2
54192.8
54068.3
53479.5
52893.4
52291.2
52189.1
51659.7
51078.3
50558.8
50465
49922.7
49320.7
48799.6
48704.5
48154.9
47606.7
47100.9
46995.8
46455.7
45926
45837.3
45360.2
44827.8
44333.5
44247
43743.5
43224.7
42754.3
42656.6
42145.7
41646.7
41562.4
41079.8
40569.8
40101.4
40013.9
39520.6
39028.9
38946.1
38480.2
37984.3
37527.7
37443.9
36964.9
36488.6
36410.4
35955.5
35474.2
35039.7
34953.6
34480.5
34030.8
33956.6
33496.5
33041
32959.5
32500.9
32057.5
31607.4
31517.8
31183.5
30748.6
30678.4
30292.5
29854.7
29793
29437.4
28985.1
28933.5
28637.1
27931.8
27856.5
27437.6
26879.7
26791.4
26336.9
25783
25349.5
25265.2
24745.5
24460.5
24411.7
23943.7
23563.7
23488.1
23051.3
22972.7
22566
22127.3
22054.6
21637.9
21224
21159.5
20740.8
20310.6
20248.5
19820.1
19394.7
19328.2
18883.6
18465.9
18383.2
17894.6
17824.3
17367.4
16896.8
16828.4
16346.2
16257.4
15815.4
15321.8
15253.7
14773.1
14220.3
14118.7
13644.3
13567.4
13003.9
12615.5
12564.8
11863.5
11803.8
11818.9
11122.3
8440.99
4413.86
3953.99
4215.92
4248.51
3356.09
3297.89
2586.58
2569.74
2191.3
2118.71
706.326
577.35
-987.391
-840.739
-144.627
-76.8285
428.763
471.235
770.079
991.721
1032.43
1200.41
1221.71
1399.87
1419.97
1586.58
1600.51
1709.51
1723.74
1832.79
1843.49
1915.31
1942.75
1947.77
1919.65
1922.46
2010.7
2016.85
2068.41
2100.2
2107.25
2118.64
2121.07
2172.17
2174.07
2191.51
2205
2207.72
2216.74
2218.1
2232.24
2232.91
2239.16
2250.65
2251.97
2260.89
2263.78
2281.35
2275.55
2275.92
2280.42
2291.59
2349.68
2352.47
2352.61
2352.42
2348.02
2327.34
2249.75
2244.54
2231.47
2245.71
2247.96
2255.86
2256.28
2256.44
2264.89
2265.52
2270.47
2267.26
2266.72
2259.58
2258.12
2251.02
2248.43
2248.15
2246.71
2242.82
2242.53
2241.66
2241.54
2241.73
2238.82
2231.9
2231.07
2217.26
2217.06
2214.55
2213.09
2212.97
2211.38
2204.67
2202.84
2191.61
2184.84
2183.88
2177.33
2169.4
2168.36
2162.02
2162.31
2169.68
2229.77
2367.07