/*--------------------------------*- C++ -*----------------------------------*\
| =========                 |                                                 |
| \\      /  F ield         | OpenFOAM: The Open Source CFD Toolbox           |
|  \\    /   O peration     | Version:  v2106                                 |
|   \\  /    A nd           | Website:  www.openfoam.com                      |
|    \\/     M anipulation  |                                                 |
\*---------------------------------------------------------------------------*/
FoamFile
{
    version     2.0;
    format      ascii;
    arch        "LSB;label=32;scalar=64";
    class       volVectorField;
    location    "0";
    object      U;
}
// * * * * * * * * * * * * * * * * * * * * * * * * * * * * * * * * * * * * * //

dimensions      [0 1 -1 0 0 0 0];

internalField   nonuniform List<vector> 
102000
(
(5.73804 0.0162256 -1.16403e-33)
(4.84885 0.00716315 -1.13202e-33)
(4.66221 0.00572607 -8.74066e-34)
(4.21167 0.00303686 -7.17696e-34)
(3.9246 0.00205204 -7.66564e-37)
(3.66231 0.00137818 3.5581e-34)
(3.5947 0.00125616 3.13234e-34)
(3.5164 0.00101967 0)
(3.43314 0.000848269 0)
(3.29442 0.000649713 0)
(3.233 0.000593245 0)
(3.21977 0.000560342 3.8826e-34)
(3.17912 0.000505071 4.37362e-34)
(3.09972 0.000436056 0)
(3.00486 0.000367488 0)
(3.04441 0.00039156 0)
(3.03908 0.000384572 -1.09977e-34)
(2.97217 0.000343581 5.83211e-35)
(2.88753 0.000301838 -2.67398e-37)
(2.91656 0.000318124 -3.23841e-37)
(2.93669 0.00033085 -1.36401e-33)
(2.87274 0.000310014 -2.0347e-33)
(2.79378 0.000280383 -2.05892e-33)
(2.81285 0.00029184 -2.35422e-33)
(2.83699 0.00031489 -2.07625e-33)
(2.78629 0.000306853 4.71615e-34)
(2.70867 0.000287861 8.08064e-33)
(2.71823 0.000296943 9.46126e-33)
(2.74332 0.000333305 1.16975e-32)
(2.70072 0.000340529 1.05872e-32)
(2.62232 0.0003322 1.22752e-32)
(2.62313 0.000339756 1.27974e-32)
(2.64445 0.00038846 -4.23651e-34)
(2.60786 0.000419039 -7.52274e-33)
(2.52353 0.000411019 -1.64048e-32)
(2.51661 0.000417518 -1.19133e-32)
(2.53482 0.000502824 -2.69518e-32)
(2.49209 0.000543044 1.53219e-32)
(2.40527 0.000565971 -1.90339e-33)
(2.39071 0.000571028 -1.57316e-32)
(2.39118 0.000673305 -1.1605e-31)
(2.35358 0.000799694 -3.46284e-32)
(2.23929 0.000801255 1.17822e-31)
(2.2191 0.000809694 1.33889e-31)
(2.21987 0.00105334 1.33775e-31)
(2.12906 0.00114208 7.74197e-32)
(2.02754 0.00130548 -4.25147e-32)
(1.99555 0.00130587 -4.05594e-32)
(1.92065 0.00150999 -1.94685e-31)
(1.87843 0.0020704 -6.27572e-32)
(1.64457 0.00190156 0)
(1.61372 0.00193827 0)
(1.60513 0.00294305 9.99736e-32)
(1.27302 0.00294204 4.27546e-31)
(1.19262 0.00430129 2.03939e-31)
(1.11134 0.00428153 2.45122e-31)
(0.645726 0.0136347 2.91753e-28)
(0.825355 0.163833 -1.06459e-27)
(1.50348 0.358153 7.4127e-28)
(1.59377 0.382993 1.66409e-28)
(1.72965 0.421586 -9.47903e-28)
(1.99002 0.485956 -1.47543e-28)
(1.94917 0.4772 1.00394e-28)
(1.96844 0.482075 5.20991e-29)
(2.12057 0.520363 3.36219e-29)
(2.00403 0.498412 4.24942e-30)
(2.04141 0.601593 -2.33947e-28)
(2.09751 0.636852 -4.37793e-28)
(2.41853 0.783841 -1.0726e-27)
(2.50917 0.816679 -4.92579e-28)
(2.5532 0.831783 1.01505e-27)
(2.61041 0.850409 1.16802e-27)
(2.75093 0.896358 3.05629e-29)
(2.77667 0.904988 8.10413e-29)
(2.77746 0.90503 5.5328e-28)
(2.84663 0.927324 6.86973e-28)
(2.8616 0.928356 1.74301e-28)
(2.948 0.953762 -3.00389e-29)
(2.90504 0.939842 7.8772e-29)
(3.0111 0.973818 1.80041e-28)
(3.03988 0.983174 8.88538e-30)
(3.06295 0.990703 1.91575e-32)
(3.04147 0.983796 1.69302e-32)
(3.14552 1.01743 1.74906e-32)
(3.17765 1.028 1.35716e-29)
(3.15605 1.0237 1.23946e-28)
(3.16211 1.02631 1.17557e-28)
(3.27224 1.06481 1.56965e-29)
(3.28258 1.06843 -2.23105e-32)
(3.25232 1.05869 9.39666e-29)
(3.29219 1.07164 1.0728e-28)
(3.39449 1.10488 -1.36581e-28)
(3.37095 1.09727 1.98065e-29)
(3.33362 1.08506 1.22784e-28)
(3.41565 1.11165 1.5552e-28)
(3.41287 1.1097 3.22592e-28)
(3.45025 1.1201 2.08378e-29)
(3.42977 1.11334 -8.5595e-29)
(3.53335 1.14668 -3.90329e-28)
(3.54578 1.15071 -4.10087e-28)
(3.51107 1.13951 -3.36742e-28)
(3.54004 1.14889 -3.06242e-28)
(3.64345 1.18237 -2.841e-28)
(3.61257 1.1724 -1.04694e-28)
(3.56619 1.15741 -2.33089e-29)
(3.65512 1.18619 -2.30906e-29)
(3.66291 1.18872 -1.67328e-28)
(3.66938 1.19084 -5.10235e-29)
(3.66501 1.18943 -2.72012e-29)
(3.7763 1.22546 1.72782e-31)
(3.76281 1.22112 3.03484e-31)
(3.71769 1.20654 1.63403e-29)
(3.78404 1.22801 2.30559e-29)
(3.50538 1.13787 1.58856e-28)
(3.81331 1.23753 8.78353e-29)
(3.79524 1.23169 6.84539e-29)
(3.90856 1.26838 9.55411e-29)
(3.8981 1.26502 -1.02273e-29)
(3.8513 1.24991 -1.02876e-28)
(3.91812 1.27153 -1.20396e-28)
(3.62977 1.17826 1.72295e-28)
(3.93905 1.27835 4.45427e-29)
(3.93025 1.2755 5.64523e-29)
(4.0456 1.31284 7.88045e-29)
(4.01828 1.30401 1.7596e-29)
(3.96442 1.2866 2.28601e-31)
(4.05935 1.31732 1.03331e-31)
(4.06041 1.31766 -1.52908e-31)
(4.04744 1.31348 -1.04381e-29)
(4.07555 1.32257 -1.93917e-29)
(4.12458 1.33841 -1.05104e-28)
(4.126 1.33885 5.87966e-30)
(4.09629 1.32923 5.12696e-29)
(4.21741 1.36829 1.64709e-28)
(4.20285 1.36312 2.07134e-29)
(4.14571 1.34178 7.25742e-30)
(4.24502 1.37296 6.78858e-30)
(4.23053 1.36782 1.15891e-28)
(4.20155 1.35832 2.37222e-29)
(4.25235 1.37468 -3.0161e-30)
(3.94859 1.27676 -9.70564e-29)
(4.26056 1.37734 -5.33389e-29)
(4.27178 1.38097 -3.7202e-29)
(4.33868 1.40275 7.72813e-29)
(4.30715 1.39395 -2.1795e-28)
(4.28809 1.39041 -1.89105e-28)
(4.41418 1.44491 -5.11616e-28)
(4.40086 1.44228 -8.54884e-29)
(4.35936 1.42883 -1.06778e-28)
(4.49598 1.47374 -1.46764e-28)
(4.47486 1.46684 -1.07562e-28)
(4.41931 1.44873 -8.36989e-29)
(4.5628 1.4955 -5.72334e-29)
(4.54861 1.4907 -4.67383e-29)
(4.50504 1.47472 1.68291e-29)
(4.6387 1.51813 1.53082e-29)
(4.61313 1.50027 -2.00557e-29)
(4.54451 1.47669 6.24642e-29)
(4.66861 1.51669 3.74716e-29)
(4.64246 1.50789 -2.80249e-29)
(4.58369 1.48875 -1.19141e-30)
(4.71846 1.53233 -9.33206e-31)
(4.68917 1.52275 -7.12024e-30)
(4.63937 1.50664 -2.82013e-29)
(4.77695 1.551 -4.20969e-29)
(4.74052 1.53879 -1.07147e-29)
(4.70905 1.52835 -9.4128e-30)
(4.82658 1.5651 -5.13687e-30)
(4.78262 1.5507 -8.03166e-29)
(4.77951 1.54968 -7.17138e-29)
(4.48341 1.45404 -1.59204e-30)
(4.82217 1.56328 4.78543e-29)
(4.85926 1.57524 5.35587e-29)
(4.53886 1.47188 5.93841e-29)
(4.85838 1.5749 1.37067e-29)
(4.94773 1.6037 4.5843e-30)
(4.92826 1.59789 -3.17379e-29)
(4.89169 1.5873 1.65532e-29)
(5.03468 1.63382 1.11761e-29)
(4.99833 1.62232 6.62872e-29)
(5.00002 1.62289 5.15393e-29)
(4.70115 1.52663 0)
(5.03835 1.6354 -3.69673e-29)
(5.11469 1.66002 -4.10765e-29)
(5.093 1.6531 -7.7894e-29)
(5.06731 1.64483 -5.85796e-29)
(5.19492 1.6862 -2.51726e-30)
(5.15867 1.6774 8.37839e-29)
(5.19496 1.68969 1.05397e-28)
(5.13792 1.67496 1.03816e-28)
(5.19725 1.69478 -5.59728e-29)
(5.32636 1.73666 -1.37564e-28)
(5.29625 1.72729 -3.96243e-29)
(5.32415 1.73639 -5.10593e-29)
(4.99374 1.63013 -1.15222e-28)
(5.30255 1.73416 -3.60093e-30)
(5.43344 1.77784 1.26645e-29)
(5.30113 1.75983 1.13902e-27)
(5.34704 1.79489 1.65092e-27)
(5.375 2.02725 6.35556e-27)
(5.56699 2.12647 4.85721e-27)
(5.85763 2.37593 4.72729e-30)
(6.41128 2.27838 -3.06221e-27)
(6.55074 2.27414 -3.70899e-27)
(6.43057 2.10947 -3.07782e-28)
(6.4986 2.11669 1.97564e-29)
(6.46548 2.00049 2.04514e-27)
(6.5403 2.00893 2.09206e-27)
(6.52082 1.869 -1.72384e-27)
(6.59366 1.86581 -2.1442e-27)
(6.72352 1.58331 3.01334e-29)
(6.77666 1.50761 7.40729e-28)
(6.84908 0.592845 -2.75466e-28)
(6.74579 0.478638 1.76317e-28)
(6.18754 -0.331521 3.86821e-27)
(5.97594 -0.323411 3.05617e-27)
(5.03557 -0.4089 -3.11607e-28)
(4.91261 -0.405523 2.11626e-29)
(4.28796 -0.396617 -3.37398e-28)
(4.2142 -0.388855 -4.11054e-28)
(3.44815 -0.355237 0)
(3.42695 -0.340195 -1.82942e-28)
(3.05165 -0.31922 -2.5681e-28)
(3.01616 -0.318933 1.1506e-28)
(2.9835 -0.318261 2.27382e-28)
(2.56417 -0.285115 -1.92544e-29)
(2.51496 -0.280259 -6.70331e-29)
(2.09287 -0.232756 1.13051e-28)
(2.02426 -0.22595 1.18667e-28)
(1.69288 -0.191103 6.44546e-30)
(1.62049 -0.184985 -2.28917e-29)
(1.34709 -0.15651 -1.82464e-28)
(1.29446 -0.143877 -1.18919e-28)
(0.956935 -0.0947747 -1.07146e-30)
(0.483845 -0.0105259 3.23293e-29)
(0.360123 0.00941141 5.0928e-29)
(0.0655829 -0.0175067 1.08176e-28)
(0.0636218 -0.0192837 9.94945e-29)
(0.205834 -0.0292694 1.75846e-29)
(0.202813 -0.0273547 -1.12683e-29)
(0.184243 -0.0140571 -1.39039e-28)
(0.0428832 0.00515079 -4.36328e-29)
(-0.0353033 0.0168798 -1.34883e-30)
(-0.0187879 -0.0305788 -4.3709e-29)
(0.00171259 -0.0356214 -5.21667e-29)
(0.0553144 -0.00201269 -8.8619e-30)
(0.0158362 0.0024057 3.42321e-30)
(-0.177457 0.0281685 7.70071e-29)
(-0.284247 0.0427104 -2.57678e-29)
(-0.312819 0.0464663 -5.74718e-29)
(-0.329647 0.0426937 -9.69172e-30)
(-0.327721 0.0421343 -5.52682e-30)
(-0.323834 0.0395233 2.90756e-30)
(-0.306711 0.0377444 2.23004e-31)
(-0.270527 0.0336512 -6.15322e-30)
(-0.229818 0.0203268 -2.60707e-30)
(-0.214933 0.0175441 -1.63559e-30)
(0.0541433 -0.0262897 -2.7592e-29)
(0.089584 -0.0369479 -2.41179e-29)
(0.272313 -0.0850061 -1.22838e-29)
(0.153793 -0.0551425 -4.67628e-30)
(0.142025 -0.049964 -3.53116e-30)
(0.142614 -0.0102851 -9.74914e-31)
(0.109236 -0.00726554 -2.02329e-30)
(-0.022449 0.00924917 -5.14427e-30)
(-0.180018 0.0269167 -9.86725e-31)
(-0.195643 0.0283343 -4.21451e-31)
(-0.200285 0.022997 9.77473e-31)
(-0.169581 0.019541 5.10779e-30)
(-0.124026 0.0119717 9.44494e-30)
(-0.0647526 0.00673241 3.70386e-30)
(-0.0608274 0.00660547 3.47864e-30)
(-0.0358307 0.00976303 9.86396e-30)
(-0.159894 0.0236543 -4.97664e-30)
(-0.191167 0.0279196 -8.65011e-30)
(-0.23788 0.0204418 2.40786e-29)
(-0.194834 0.0151708 1.94018e-29)
(-0.0946732 0.00258726 1.22489e-29)
(-0.119541 0.0182443 2.26377e-31)
(-0.133211 0.0209112 2.51397e-31)
(-0.237075 0.0335437 -8.32747e-31)
(-0.241865 0.0249174 -6.56906e-32)
(-0.254785 0.0251023 7.80239e-31)
(-0.241761 0.018755 -1.71518e-28)
(-0.209009 0.0155491 -1.30844e-28)
(-0.210706 0.0186502 -5.74299e-30)
(-0.191597 0.0224949 -1.115e-29)
(-0.181005 0.0213379 -1.02021e-29)
(-0.0891798 0.00922183 0)
(-0.219184 0.0276967 2.25539e-29)
(-0.225318 0.0286056 2.33873e-29)
(-0.249679 0.0347162 -8.14319e-30)
(-0.31265 0.0427678 -7.15126e-30)
(-0.354199 0.0488202 -4.96765e-30)
(-0.44498 0.0589771 -1.36173e-29)
(-0.433371 0.0543584 3.21973e-30)
(-0.489908 0.0621301 1.38381e-29)
(-0.49112 0.0558814 1.32532e-29)
(-0.411034 0.0457875 1.02846e-29)
(-0.413906 0.0517552 1.612e-30)
(-0.484577 0.07152 -8.00919e-30)
(-0.495101 0.0720911 -6.53666e-30)
(-0.74649 0.108813 -1.97879e-29)
(-0.941186 0.127465 -4.28255e-32)
(-0.930944 0.124432 4.93221e-32)
(-1.03212 0.126667 -9.09785e-29)
(-1.07386 0.135323 -3.75468e-31)
(-1.07257 0.136549 -3.35369e-31)
(-1.19877 0.161993 2.7774e-32)
(-1.32937 0.177989 6.35462e-29)
(-1.32978 0.177745 5.60317e-29)
(-1.43548 0.190877 6.26845e-29)
(-1.5463 0.205511 2.65555e-29)
(-1.54581 0.205153 2.36439e-29)
(-1.66261 0.219966 2.32291e-30)
(-1.7406 0.228678 7.43559e-32)
(-1.72766 0.22668 2.15283e-31)
(-1.80812 0.236201 1.74414e-31)
(-1.84126 0.239776 1.46283e-30)
(-1.81653 0.236402 4.41732e-30)
(-1.87638 0.243669 1.03137e-29)
(-1.88866 0.244841 1.4088e-29)
(-1.85292 0.240133 1.09676e-29)
(-1.89997 0.245945 -1.35368e-30)
(-1.90613 0.246485 -7.84794e-30)
(-1.86373 0.24085 3.33127e-29)
(-1.89769 0.245185 5.10112e-29)
(-1.90386 0.24583 2.4298e-30)
(-1.86165 0.24029 1.19345e-29)
(-1.8796 0.242562 1.17304e-29)
(-1.87758 0.242167 -7.64173e-29)
(-1.84825 0.238284 -3.6944e-29)
(-1.84965 0.23844 -3.13577e-29)
(-1.72337 0.222261 -4.31639e-29)
(-1.82403 0.234912 4.11323e-29)
(-1.80818 0.232884 3.87822e-29)
(-1.81475 0.233595 1.55666e-30)
(-1.79059 0.230413 -5.62903e-30)
(-1.75671 0.226115 -1.76949e-29)
(-1.76644 0.227215 1.34408e-29)
(-1.74839 0.22479 -3.92004e-30)
(-1.69516 0.217958 3.51427e-29)
(-1.70438 0.219083 4.08554e-29)
(-1.6701 0.214614 -4.29734e-31)
(-1.64349 0.211107 4.27074e-29)
(-1.63275 0.209731 4.0708e-29)
(-1.62032 0.207993 -3.30951e-30)
(-1.58387 0.203248 -3.27586e-29)
(-1.55242 0.199296 -2.50894e-29)
(-1.54599 0.198296 1.08198e-29)
(-1.51617 0.194362 1.31429e-28)
(-1.4579 0.186935 -2.7039e-29)
(-1.45742 0.186824 -5.31522e-29)
(-1.33917 0.172026 8.60293e-29)
(-1.38274 0.177588 1.24601e-29)
(-1.36163 0.174991 8.17388e-30)
(-1.34286 0.172606 4.71814e-32)
(-1.30091 0.167152 1.23119e-28)
(-1.24072 0.15949 -1.74364e-29)
(-1.24168 0.159536 -2.64459e-29)
(-1.12882 0.14544 -1.81984e-28)
(-1.15461 0.148256 -1.34814e-28)
(-1.13668 0.146001 -1.10054e-28)
(-1.11189 0.142668 1.23428e-29)
(-1.06791 0.136979 3.17306e-28)
(-1.01114 0.129789 1.84568e-28)
(-1.00935 0.129494 1.79254e-28)
(-0.910869 0.117259 1.03663e-30)
(-0.926566 0.11883 -9.42041e-29)
(-0.908117 0.116528 -7.81454e-29)
(-0.883743 0.113291 -1.2041e-29)
(-0.846386 0.108484 -1.66799e-28)
(-0.798151 0.102413 -7.59077e-29)
(-0.792486 0.10167 -6.10364e-29)
(-0.764905 0.0981093 7.22484e-29)
(-0.72948 0.0936153 -1.08425e-28)
(-0.690356 0.0887148 -5.93528e-29)
(-0.693118 0.0890076 -4.08362e-29)
(-0.667713 0.0857805 -1.05145e-28)
(-0.637289 0.0819639 2.95554e-29)
(-0.628375 0.0808465 3.14933e-29)
(-0.616138 0.0792826 -2.57178e-31)
(-0.596679 0.0768382 5.378e-30)
(-0.571142 0.0736271 4.10465e-29)
(-0.569647 0.0734244 4.8562e-29)
(-0.55971 0.0720918 9.31855e-29)
(-0.5405 0.0696167 3.23056e-30)
(-0.518256 0.0669593 -4.29465e-29)
(-0.521678 0.0674301 -5.45716e-29)
(-0.478229 0.0620908 -2.29853e-29)
(-0.505446 0.0655928 -6.41571e-30)
(-0.498307 0.0646806 -1.14171e-29)
(-0.501132 0.0650551 9.14944e-30)
(-0.499158 0.0647981 -1.34943e-30)
(-0.486463 0.0631539 -2.21529e-29)
(-0.483327 0.0627485 -2.06589e-29)
(-0.484946 0.0629267 -6.26967e-30)
(-0.4786 0.0620673 -7.36306e-29)
(-0.463053 0.0600242 -8.87594e-31)
(-0.461984 0.0598746 1.1678e-29)
(-0.457652 0.0592259 6.44005e-30)
(-0.442313 0.0571522 3.27123e-29)
(-0.420093 0.0542263 -6.6715e-29)
(-0.418715 0.0540164 -9.37441e-29)
(-0.402267 0.0517628 4.86788e-30)
(-0.376019 0.0482813 2.14419e-28)
(-0.345626 0.0443647 1.37251e-28)
(-0.342076 0.0438623 1.04921e-28)
(-0.310118 0.0398693 2.93288e-28)
(-0.277 0.0354326 -5.14211e-29)
(-0.239672 0.0305784 -7.25253e-29)
(-0.23248 0.0295475 -4.17096e-29)
(-0.185827 0.0237518 -2.04957e-28)
(-0.148573 0.0184676 3.2241e-28)
(-0.137187 0.0170709 2.4873e-28)
(-0.0973786 0.0117459 -4.92145e-30)
(-0.0499933 0.00561425 -2.10034e-28)
(-0.00376287 -0.000502644 1.42208e-28)
(0.00611945 -0.00170223 7.94874e-29)
(0.0524781 -0.00787041 -7.23982e-29)
(0.0983327 -0.0138535 -2.16353e-28)
(0.145523 -0.0200913 -2.44118e-29)
(0.151862 -0.0210217 -1.69849e-29)
(0.196367 -0.0276381 2.9002e-29)
(0.230452 -0.0325048 3.04326e-28)
(0.266654 -0.0374248 -8.96544e-29)
(0.266663 -0.0373606 -3.32555e-29)
(0.300365 -0.0420111 7.41208e-29)
(0.326841 -0.0455558 1.40245e-30)
(0.350809 -0.0488077 6.71702e-29)
(0.347417 -0.0482894 8.00931e-30)
(0.376389 -0.0522475 -1.97872e-28)
(0.344235 -0.0476313 1.24257e-31)
(0.401439 -0.0555329 2.23648e-29)
(0.393145 -0.0543755 8.26787e-30)
(0.402465 -0.0556803 1.06116e-29)
(0.409473 -0.0572147 1.67181e-29)
(0.39753 -0.060086 -1.66019e-28)
(0.368036 -0.056164 1.21155e-29)
(0.369419 -0.0563501 1.88834e-29)
(0.35776 -0.0544723 1.62472e-28)
(0.325334 -0.0494347 1.72296e-30)
(0.291323 -0.0442163 -2.3897e-28)
(0.287914 -0.0436584 -2.71307e-28)
(0.259687 -0.0392156 -1.55074e-28)
(0.221034 -0.0332705 -9.02086e-29)
(0.180923 -0.027164 -1.06941e-28)
(0.173122 -0.0259554 -8.58824e-29)
(0.138532 -0.0205963 -2.91901e-28)
(0.102108 -0.0150236 -1.45654e-28)
(0.0633978 -0.00920464 -1.24483e-28)
(0.0558468 -0.00806458 -9.01899e-29)
(0.0307917 -0.00421404 4.78167e-28)
(-0.00301491 0.00111295 3.38845e-28)
(-0.0346363 0.00636394 5.9259e-29)
(-0.0403113 0.00730737 7.18093e-29)
(-0.0594862 0.0105332 1.82224e-28)
(-0.0771529 0.013408 4.32215e-29)
(-0.0765063 0.0131314 3.63854e-29)
(-0.0756055 0.0129559 8.99423e-29)
(-0.0701514 0.0118786 2.8836e-28)
(-0.0524592 0.00867879 3.51111e-30)
(-0.0244519 0.00375663 -1.66609e-29)
(0.00507777 -0.0013581 -4.03826e-28)
(0.0147361 -0.00306306 -4.65907e-28)
(0.0607207 -0.0110997 2.38196e-28)
(0.10594 -0.0189349 2.36337e-28)
(0.151729 -0.0270323 -3.06375e-28)
(0.16316 -0.0292324 -3.09627e-28)
(0.21401 -0.0397987 -3.31953e-29)
(0.252277 -0.0468972 -2.65171e-28)
(0.281399 -0.0521292 -3.65067e-29)
(0.283216 -0.0524268 -2.06528e-29)
(0.3172 -0.0586141 -9.2911e-29)
(0.346737 -0.0639325 -4.15646e-29)
(0.348541 -0.0641134 -1.90165e-29)
(0.339918 -0.06241 -7.36751e-29)
(0.348755 -0.0640075 -8.97187e-29)
(0.346041 -0.0633628 -5.61193e-28)
(0.323266 -0.0590564 6.40188e-30)
(0.286187 -0.0521886 3.32378e-28)
(0.28061 -0.051142 3.51198e-28)
(0.25303 -0.0459365 -3.4386e-28)
(0.208517 -0.0375611 -5.69857e-28)
(0.158796 -0.0284485 -1.1966e-28)
(0.14574 -0.0260878 -1.60011e-28)
(0.101337 -0.0178784 -5.64047e-28)
(0.0505823 -0.00856306 -5.45441e-30)
(-0.00283462 0.00114259 -2.93976e-28)
(-0.0470889 0.00913568 8.34713e-29)
(-0.0598462 0.0115188 9.02658e-29)
(-0.109472 0.0206024 1.44164e-28)
(-0.151578 0.0282157 -1.79532e-28)
(-0.18295 0.0338281 -7.65895e-29)
(-0.190699 0.0352352 -3.33298e-29)
(-0.223087 0.0411094 4.95862e-33)
(-0.250057 0.0459338 -3.4931e-32)
(-0.253677 0.0464666 2.17181e-29)
(-0.250918 0.0459417 2.62523e-29)
(-0.259344 0.0473729 1.61364e-29)
(-0.250224 0.0455943 4.16306e-31)
(-0.234873 0.0425552 -1.32987e-28)
(-0.205796 0.0368804 -1.04692e-31)
(-0.200894 0.0358982 -1.16666e-31)
(-0.17512 0.0311388 -2.82946e-31)
(-0.138899 0.0245856 -1.4392e-31)
(-0.103301 0.0182397 3.66096e-32)
(-0.0951269 0.0167914 -4.00728e-32)
(-0.0657704 0.0114989 1.41719e-28)
(-0.0356306 0.00613144 -1.04465e-28)
(-0.0138151 0.00228076 4.34111e-31)
(-0.00042705 -4.51376e-05 2.50604e-30)
(0.00319781 -0.000699311 4.03004e-30)
(0.00538061 -0.00101743 -3.03446e-29)
(0.00399709 -0.000661796 -1.16936e-28)
(-0.0127838 0.00253263 -1.31809e-28)
(-0.0162493 0.00318125 -8.54714e-29)
(-0.0342501 0.00663142 3.29551e-28)
(-0.0683288 0.0130905 -3.01797e-28)
(-0.0968447 0.0186502 4.08112e-28)
(-0.128629 0.0256397 -1.06736e-28)
(-0.141271 0.0283496 -1.9357e-28)
(-0.185948 0.0373416 4.61715e-28)
(-0.22742 0.0455758 -4.23131e-28)
(-0.257386 0.0514666 -1.66736e-28)
(-0.263579 0.0526845 -1.28593e-28)
(-0.307577 0.0614371 1.70759e-28)
(-0.35044 0.0699357 -3.05034e-28)
(-0.367394 0.0732206 9.91486e-29)
(-0.375909 0.0748326 6.55592e-30)
(-0.389493 0.0775368 1.09182e-29)
(-0.415467 0.0826446 3.01564e-29)
(-0.4217 0.0838097 -5.92039e-30)
(-0.408782 0.0811911 -2.07301e-29)
(-0.404373 0.0803104 -1.80415e-29)
(-0.411834 0.0817462 -1.71645e-29)
(-0.410097 0.0813719 -1.263e-28)
(-0.392119 0.0778146 -6.24978e-29)
(-0.373758 0.0741856 -1.66582e-29)
(-0.378785 0.0751807 -1.93765e-29)
(-0.383006 0.0760335 3.55177e-29)
(-0.381185 0.0757339 3.93289e-29)
(-0.375989 0.0747821 1.6635e-28)
(-0.373762 0.0743453 1.49185e-28)
(-0.400569 0.079745 1.39117e-29)
(-0.39731 0.0790477 1.64094e-31)
(-0.442585 0.0784159 5.23359e-29)
(-0.458807 0.0709523 8.16889e-29)
(-0.471883 0.0711828 9.66068e-29)
(-0.518678 0.0771317 3.66711e-28)
(-0.554102 0.0823573 -1.26166e-28)
(-0.57081 0.0847907 -6.50108e-29)
(-0.568631 0.0844461 -5.44733e-29)
(-0.606618 0.0900533 -1.40936e-29)
(-0.639574 0.0948961 1.12899e-28)
(-0.647926 0.0960432 4.23177e-29)
(-0.638407 0.0945548 1.13683e-28)
(-0.639818 0.0947525 1.23836e-28)
(-0.647858 0.0958629 3.94012e-28)
(-0.638542 0.0943949 -4.1823e-28)
(-0.604471 0.0893076 4.15362e-28)
(-0.567182 0.083766 6.58502e-29)
(-0.568244 0.0838929 -5.60403e-29)
(-0.543584 0.0801764 -1.22537e-27)
(-0.500409 0.0737601 -8.03575e-28)
(-0.451985 0.0666019 2.80807e-28)
(-0.439303 0.0647313 3.15149e-28)
(-0.403485 0.0593727 -5.81374e-28)
(-0.353778 0.0519981 -1.46321e-27)
(-0.303161 0.0444756 -8.96527e-29)
(-0.247866 0.0363075 1.28538e-31)
(-0.235849 0.0345075 1.67157e-31)
(-0.183307 0.0266634 -1.27348e-31)
(-0.118313 0.0170143 -6.8325e-28)
(-0.0562674 0.00786942 -5.44775e-28)
(-0.0399415 0.00549321 -4.49642e-28)
(0.0214067 -0.0036355 -6.51393e-28)
(0.0860515 -0.0132419 -1.00985e-27)
(0.151555 -0.0228918 -2.85909e-28)
(0.201022 -0.0301415 6.81133e-28)
(0.213935 -0.0320468 7.55439e-28)
(0.272679 -0.0407488 1.6654e-30)
(0.323451 -0.0483241 -4.42026e-28)
(0.35828 -0.0534248 1.04551e-28)
(0.376252 -0.0560211 -2.87445e-29)
(0.388316 -0.0578147 -5.06422e-29)
(0.421949 -0.0627508 -3.21399e-28)
(0.429678 -0.0638574 -9.89779e-30)
(0.433537 -0.0643799 1.10535e-30)
(0.422885 -0.0627597 -5.68817e-30)
(0.42139 -0.0625333 7.67349e-30)
(0.427589 -0.0634256 5.41178e-29)
(0.420358 -0.0623102 2.06184e-28)
(0.411529 -0.0609721 2.45173e-28)
(0.382954 -0.0567146 3.26383e-28)
(0.374437 -0.0554559 2.67333e-28)
(0.365273 -0.0539975 -8.71047e-29)
(0.340011 -0.0495712 -1.2402e-27)
(0.321902 -0.0381756 5.81815e-29)
(0.326409 -0.0378125 -1.33264e-28)
(0.327387 -0.0379095 -1.39978e-28)
(0.314206 -0.0363942 -1.34955e-29)
(0.33792 -0.0391711 -5.20449e-29)
(0.323546 -0.0375576 -1.24724e-28)
(0.327009 -0.0379674 -1.14026e-28)
(0.369094 -0.0429239 -1.5479e-29)
(0.381025 -0.0439634 -8.40107e-29)
(0.433708 -0.0444399 -5.53631e-28)
(0.451983 -0.045441 -5.98127e-28)
(0.543982 -0.0540493 -4.32121e-29)
(0.635944 -0.0631518 -1.31555e-27)
(0.73513 -0.0729135 3.17553e-28)
(0.778933 -0.0773188 3.57222e-28)
(0.924795 -0.0917056 1.596e-27)
(1.04236 -0.103148 2.77179e-27)
(1.0707 -0.105933 2.26731e-27)
(1.22966 -0.121596 -2.53961e-27)
(1.3378 -0.13203 -4.10119e-28)
(1.33839 -0.132021 -5.20612e-28)
(1.44724 -0.142507 -1.30945e-27)
(1.44441 -0.141916 -1.11271e-28)
(1.35896 -0.133308 -2.29769e-28)
(1.38165 -0.135455 -2.24432e-28)
(1.26276 -0.123567 -2.03208e-27)
(1.09875 -0.107565 -6.2439e-28)
(1.09292 -0.106954 -1.76517e-28)
(0.997985 -0.0977674 -7.40428e-34)
(0.899934 -0.0882685 -1.81427e-28)
(0.906922 -0.0889491 -2.20592e-28)
(0.865409 -0.0848862 2.74006e-28)
(0.777322 -0.0762591 6.31241e-28)
(0.785867 -0.0770813 6.51912e-28)
(0.732848 -0.0718745 -2.75545e-29)
(0.652267 -0.0640072 -1.05447e-27)
(0.661922 -0.0649378 -1.40851e-27)
(0.611292 -0.0600027 4.67107e-28)
(0.565601 -0.055596 3.58863e-28)
(0.580063 -0.0570169 2.18945e-29)
(0.582369 -0.0574167 1.1778e-27)
(0.585052 -0.0576998 1.48834e-27)
(0.693234 -0.0687372 5.86701e-27)
(0.941774 -0.0934908 -9.32234e-27)
(0.989019 -0.0981093 -9.55116e-27)
(1.34327 -0.133007 -4.13828e-27)
(1.48866 -0.146772 -2.48295e-28)
(1.52081 -0.149892 8.25777e-28)
(1.59114 -0.156278 9.38074e-28)
(1.39224 -0.136401 4.56204e-28)
(1.38639 -0.135708 1.13584e-28)
(1.13489 -0.110974 1.66563e-27)
(0.971187 -0.0951812 -6.28486e-28)
(0.95901 -0.093993 -7.71414e-28)
(0.920162 -0.0902722 -4.52117e-28)
(0.822132 -0.0806313 -2.52738e-28)
(0.796707 -0.078138 -3.61933e-28)
(0.747514 -0.073229 -5.43676e-28)
(0.635599 -0.0622455 -1.9033e-28)
(0.540406 -0.0529657 -4.52369e-28)
(0.539746 -0.0528837 -5.76032e-28)
(0.481421 -0.0472552 -1.05924e-27)
(0.479583 -0.047295 -4.48457e-28)
(0.487856 -0.0481366 -6.35696e-28)
(0.588165 -0.0583599 -2.50321e-27)
(0.807025 -0.0800748 -2.51232e-27)
(0.974475 -0.0963966 -1.24651e-27)
(1.05339 -0.104225 -1.70574e-27)
(1.24171 -0.122513 -1.28218e-27)
(1.26164 -0.12415 -1.22383e-28)
(1.26915 -0.124853 -1.26485e-28)
(1.28538 -0.12616 -6.77195e-33)
(1.14754 -0.112444 1.20477e-27)
(1.09446 -0.107267 1.75028e-27)
(1.00794 -0.0987535 1.70468e-27)
(0.927116 -0.0908782 1.79519e-27)
(0.8233 -0.0807114 6.38306e-29)
(0.814566 -0.0798431 -2.69989e-28)
(0.759984 -0.0744276 -2.45588e-27)
(0.650882 -0.0638672 -8.6383e-28)
(0.634692 -0.0623007 -6.72643e-28)
(0.658645 -0.0647762 -3.49915e-29)
(5.9923 0.0224737 -7.21474e-34)
(5.16449 0.0101724 1.38475e-33)
(5.03824 0.00898373 1.19249e-33)
(4.52315 0.00495892 4.364e-34)
(4.21488 0.00325782 2.05521e-33)
(4.00971 0.00234618 7.78472e-34)
(3.98193 0.00221379 7.08177e-34)
(3.83215 0.00170656 4.59364e-35)
(3.69995 0.00136675 0)
(3.62221 0.00111795 6.01311e-35)
(3.6121 0.00107379 2.06393e-34)
(3.5316 0.000951084 3.63812e-34)
(3.43115 0.000797751 9.27166e-34)
(3.41143 0.000743639 9.57455e-35)
(3.37406 0.000669095 -4.94844e-34)
(3.35742 0.000669241 -6.00099e-34)
(3.28346 0.000608363 -2.27262e-34)
(3.27186 0.000581488 3.96995e-35)
(3.24402 0.000545506 -1.93173e-34)
(3.23158 0.000548039 -3.19848e-34)
(3.18612 0.000531025 -1.33591e-34)
(3.16206 0.000520166 8.86481e-34)
(3.13995 0.000503249 -2.83269e-33)
(3.13044 0.000506366 -2.59741e-33)
(3.09106 0.000510374 -4.35969e-33)
(3.06667 0.000513159 3.61712e-34)
(3.04557 0.000514901 6.65575e-33)
(3.03775 0.000519854 8.03806e-33)
(3.00073 0.00054499 3.89089e-33)
(2.9728 0.000567222 8.30825e-33)
(2.95077 0.000591475 1.8682e-32)
(2.9438 0.000598485 1.70718e-32)
(2.9037 0.000639558 -8.64546e-33)
(2.87241 0.00069647 -1.67634e-32)
(2.8435 0.000732136 -2.85979e-32)
(2.8366 0.000742781 -3.61025e-32)
(2.79441 0.000835302 -3.51931e-32)
(2.74869 0.000901082 2.41657e-32)
(2.71741 0.00100965 1.83145e-32)
(2.70899 0.00102458 2.72961e-33)
(2.64782 0.00112386 -5.22797e-32)
(2.60308 0.00133131 -2.33919e-32)
(2.5396 0.00142847 1.04923e-31)
(2.52981 0.00146131 1.20957e-31)
(2.47312 0.0017751 1.06158e-31)
(2.36686 0.0018981 5.38394e-32)
(2.3198 0.00235581 -8.66797e-33)
(2.30085 0.00238981 -6.44812e-32)
(2.15802 0.00255062 -8.19904e-32)
(2.10906 0.00348971 2.49273e-32)
(1.90391 0.00346847 1.55573e-31)
(1.88584 0.00360337 1.74554e-31)
(1.83566 0.00505249 6.95924e-32)
(1.46594 0.00498393 2.98372e-31)
(1.44702 0.00813065 9.82927e-32)
(1.37937 0.00825886 6.30252e-32)
(0.794094 0.0168174 -3.34452e-28)
(0.974394 0.187998 -3.14227e-27)
(1.8042 0.42511 -1.10708e-27)
(1.89421 0.450498 -6.54485e-28)
(1.97366 0.479118 -1.30583e-27)
(2.25393 0.549027 -1.11177e-28)
(2.27287 0.555728 -1.01488e-28)
(2.28516 0.55904 -4.13065e-29)
(2.39003 0.586437 2.25177e-29)
(2.26259 0.561358 5.63841e-28)
(2.36601 0.698566 -7.62739e-32)
(2.40268 0.727167 -6.68173e-32)
(2.69188 0.869903 -5.27343e-29)
(2.80053 0.909885 -1.86085e-28)
(2.93258 0.953937 7.77568e-28)
(2.95842 0.962398 9.81047e-28)
(3.04644 0.99155 -1.61399e-28)
(3.09844 1.00886 1.57413e-28)
(3.18139 1.0357 4.05841e-28)
(3.19924 1.04132 4.61908e-28)
(3.23769 1.04957 8.62697e-29)
(3.2913 1.06407 -9.55364e-29)
(3.32433 1.07471 -7.94251e-29)
(3.36177 1.08654 2.15057e-28)
(3.29803 1.06616 4.43595e-32)
(3.42717 1.10786 8.42055e-33)
(3.45443 1.11669 1.08627e-32)
(3.4904 1.12835 1.27078e-32)
(3.46743 1.1212 -2.82465e-32)
(3.54348 1.14877 -2.93577e-30)
(3.56613 1.15668 -1.19083e-29)
(3.61018 1.17409 -1.05126e-28)
(3.60651 1.17323 1.15421e-29)
(3.66859 1.19352 9.06918e-29)
(3.68719 1.19954 8.71943e-29)
(3.7293 1.21321 -1.49796e-28)
(3.72788 1.21282 2.07531e-29)
(3.78205 1.23033 7.80917e-29)
(3.79808 1.23544 9.01497e-29)
(3.70147 1.20304 2.23973e-28)
(3.84157 1.24646 2.94693e-30)
(3.87142 1.25603 -4.30552e-29)
(3.90104 1.2654 -1.90919e-28)
(3.86912 1.25509 -2.4627e-28)
(3.9387 1.27766 -2.64033e-28)
(3.96138 1.28498 -2.62603e-28)
(3.99857 1.29697 -2.55024e-28)
(3.98366 1.29221 -8.8257e-29)
(4.03617 1.30926 -1.02604e-29)
(4.05471 1.31519 2.7998e-29)
(3.95748 1.28382 -8.82818e-29)
(4.08622 1.32546 2.75794e-31)
(4.11754 1.33559 2.05052e-31)
(4.15342 1.34715 3.21631e-29)
(4.12188 1.33702 2.73802e-29)
(4.18381 1.35712 9.91793e-30)
(4.20674 1.36448 1.021e-29)
(4.27667 1.38744 -1.8589e-28)
(4.22988 1.37205 6.47499e-29)
(4.26767 1.38428 8.76323e-29)
(4.30111 1.39504 9.49939e-29)
(4.25911 1.38154 -2.66537e-29)
(4.32643 1.40339 -5.03534e-29)
(4.35249 1.41176 -4.74993e-29)
(4.24148 1.37601 1.72439e-28)
(4.36975 1.41742 2.45757e-29)
(4.40929 1.43021 1.45707e-29)
(4.44384 1.44132 8.83368e-29)
(4.40142 1.42768 5.73148e-31)
(4.46478 1.44822 4.06933e-31)
(4.4926 1.45713 5.11774e-31)
(4.38548 1.42256 -5.52653e-32)
(4.50923 1.46258 6.49476e-30)
(4.54584 1.47438 6.40101e-31)
(4.5439 1.47372 -9.57617e-29)
(4.5508 1.47591 -3.9009e-30)
(4.60368 1.49299 1.68017e-29)
(4.63649 1.50331 1.09276e-28)
(4.58852 1.4874 -6.29179e-31)
(4.65988 1.50726 1.71948e-29)
(4.69292 1.51712 2.2561e-29)
(4.57323 1.47815 8.93115e-29)
(4.68676 1.51449 7.83406e-30)
(4.72595 1.52704 -7.17589e-30)
(4.78821 1.54742 -1.11847e-28)
(4.72041 1.52525 -4.08738e-29)
(4.76961 1.5411 -2.43942e-29)
(4.77117 1.54198 5.7994e-29)
(4.74399 1.5344 -2.91066e-28)
(4.80603 1.55683 -3.95966e-28)
(4.84128 1.58329 -6.67216e-28)
(4.82011 1.57838 -1.49394e-28)
(4.89859 1.60405 -1.45871e-28)
(4.93853 1.61743 -9.85852e-29)
(4.88037 1.59853 -6.90521e-29)
(4.97606 1.62974 -7.24981e-29)
(5.01837 1.64329 -6.74518e-29)
(4.94583 1.61952 -4.53681e-29)
(5.05529 1.65347 -4.56665e-29)
(5.10484 1.66932 -2.06702e-29)
(5.01038 1.6286 -7.16422e-29)
(5.09561 1.65484 -3.35456e-29)
(5.13922 1.66877 1.80696e-29)
(5.04302 1.63718 -1.89038e-29)
(5.14101 1.66868 -8.73046e-30)
(5.18827 1.68376 7.76105e-30)
(5.10099 1.65546 1.0225e-31)
(5.21355 1.69181 1.70078e-31)
(5.24286 1.70095 -2.58256e-29)
(5.17168 1.67757 6.22229e-30)
(5.27362 1.71022 6.69723e-30)
(5.28948 1.71395 -1.56929e-30)
(5.24011 1.69787 -7.52429e-29)
(5.32941 1.72661 -8.8399e-29)
(5.39308 1.74754 -2.24754e-28)
(5.3119 1.7207 3.70824e-30)
(5.38986 1.74572 1.52844e-29)
(5.45457 1.76713 0)
(5.38728 1.74479 -1.44676e-29)
(5.45577 1.76668 -1.85206e-29)
(5.32666 1.72569 -4.02391e-29)
(5.46825 1.77263 -3.44228e-29)
(5.51846 1.7889 -2.28314e-29)
(5.45414 1.76856 4.32937e-29)
(5.56474 1.80412 2.88284e-29)
(5.63497 1.82771 0)
(5.55869 1.80244 -3.72776e-29)
(5.64087 1.82873 -3.97894e-29)
(5.49953 1.7835 -6.73249e-29)
(5.67814 1.84097 -4.7287e-29)
(5.68975 1.84483 2.23715e-29)
(5.64295 1.83288 8.51849e-29)
(5.75095 1.86803 8.98027e-29)
(5.59835 1.82312 8.65561e-29)
(5.77059 1.87916 -1.00046e-28)
(5.83267 1.89893 -1.09811e-28)
(5.77199 1.88016 -2.03698e-29)
(5.89583 1.92007 -1.35442e-29)
(5.73254 1.86896 1.09881e-28)
(5.88949 1.92582 1.42072e-28)
(5.95024 1.94686 8.26657e-29)
(5.78996 1.91765 1.65645e-27)
(5.90785 1.97508 2.35625e-27)
(5.75872 2.16017 8.21981e-27)
(6.13489 2.31522 7.73186e-27)
(6.80148 2.72962 2.37078e-27)
(6.97093 2.44415 -2.119e-27)
(7.10408 2.44326 -2.50975e-27)
(6.93522 2.26128 -3.37319e-28)
(7.07891 2.29651 2.73398e-29)
(6.99266 2.15847 2.02455e-27)
(7.13347 2.19036 1.91318e-27)
(7.02942 2.03045 -5.61723e-28)
(7.16403 2.05407 -2.43841e-28)
(7.1971 1.74991 1.12678e-27)
(7.31391 1.70544 1.57161e-27)
(7.35557 0.737491 3.9144e-28)
(7.33326 0.647396 7.57647e-28)
(6.74027 -0.262162 1.81477e-27)