/*--------------------------------*- C++ -*----------------------------------*\
| =========                 |                                                 |
| \\      /  F ield         | OpenFOAM: The Open Source CFD Toolbox           |
|  \\    /   O peration     | Version:  v2012                                 |
|   \\  /    A nd           | Website:  www.openfoam.com                      |
|    \\/     M anipulation  |                                                 |
\*---------------------------------------------------------------------------*/
FoamFile
{
    version     2.0;
    format      ascii;
    class       volScalarField;
    location    "1e-06";
    object      k;
}
// * * * * * * * * * * * * * * * * * * * * * * * * * * * * * * * * * * * * * //

dimensions      [0 2 -2 0 0 0 0];


internalField   nonuniform List<scalar> 
10098
(
1.41279
1.41346
1.4294
1.44422
1.44544
1.44304
1.45395
1.47083
1.4738
1.47358
1.47259
1.48067
1.48942
1.48057
1.4755
1.47507
1.47889
1.47476
1.46511
1.46187
1.4604
1.46374
1.45233
1.44342
1.4412
1.43925
1.43396
1.41514
1.40888
1.39639
1.38714
1.36464
1.34141
1.3357
1.31996
1.30909
1.28475
1.26907
1.26577
1.26007
1.25744
1.24795
1.24338
1.2414
1.24293
1.24997
1.2519
1.24947
1.24753
1.25094
1.25938
1.26074
1.25905
1.25842
1.26097
1.25639
1.24325
1.24039
1.23138
1.21719
1.1996
1.19652
1.18277
1.1603
1.14197
1.13831
1.12227
1.10821
1.10627
1.47803
1.47717
1.48575
1.49803
1.50812
1.50773
1.51474
1.52333
1.5317
1.5364
1.53479
1.53631
1.53847
1.53756
1.53377
1.53054
1.52564
1.52276
1.51805
1.51521
1.50938
1.50625
1.50148
1.49592
1.49271
1.4853
1.47842
1.46778
1.46318
1.44853
1.4318
1.4141
1.39499
1.38914
1.36873
1.35058
1.33398
1.31986
1.31515
1.30272
1.29699
1.29281
1.2902
1.28824
1.28697
1.28795
1.29129
1.29369
1.29266
1.29366
1.29522
1.3004
1.3012
1.30005
1.29684
1.29062
1.28024
1.27708
1.26208
1.24548
1.22735
1.22329
1.20145
1.17759
1.15572
1.15053
1.12898
1.11314
1.11088
1.48271
1.48337
1.49949
1.51422
1.51466
1.51196
1.52291
1.54011
1.54228
1.54103
1.53984
1.5474
1.55502
1.544
1.53711
1.53645
1.53892
1.53314
1.52218
1.51873
1.51665
1.5196
1.50787
1.49903
1.49692
1.49548
1.49075
1.47242
1.46622
1.45425
1.44535
1.42245
1.39852
1.39266
1.37639
1.36473
1.33921
1.32249
1.31905
1.31267
1.30922
1.29877
1.29334
1.29117
1.29219
1.29879
1.30008
1.29702
1.29491
1.29795
1.30588
1.30614
1.30339
1.30256
1.30383
1.29747
1.28219
1.27893
1.26755
1.25002
1.22848
1.22472
1.20627
1.17891
1.15611
1.15141
1.13011
1.11326
1.11097
1.54958
1.54866
1.55739
1.56956
1.57919
1.57859
1.58554
1.59408
1.602
1.60589
1.60403
1.60475
1.60531
1.60223
1.5963
1.59265
1.58596
1.58094
1.57447
1.57135
1.56464
1.56084
1.5557
1.55012
1.54703
1.54034
1.53414
1.52406
1.51957
1.50567
1.48962
1.47163
1.45194
1.44593
1.42499
1.40599
1.38835
1.37327
1.36839
1.35536
1.34873
1.34358
1.34011
1.33794
1.33606
1.33663
1.33922
1.34087
1.33968
1.34021
1.34123
1.34517
1.34473
1.34334
1.33883
1.33068
1.3179
1.3143
1.29689
1.27669
1.25452
1.24939
1.22288
1.19332
1.16639
1.1602
1.13328
1.11311
1.11034
1.55416
1.55494
1.57167
1.58664
1.58583
1.58276
1.59396
1.61227
1.61302
1.61051
1.60914
1.61633
1.62307
1.60878
1.59949
1.59864
1.59968
1.59145
1.57843
1.5747
1.57179
1.57462
1.56189
1.55298
1.55103
1.55034
1.5464
1.52853
1.52241
1.51132
1.50354
1.48004
1.45535
1.44936
1.43274
1.42085
1.39358
1.3758
1.37228
1.36552
1.36141
1.34962
1.34321
1.34085
1.34136
1.34782
1.34816
1.34417
1.34185
1.34451
1.3522
1.35091
1.34681
1.34578
1.34578
1.33747
1.31974
1.31604
1.30222
1.28104
1.27817
1.25066
1.22721
1.19442
1.16668
1.16082
1.13354
1.11304
1.11024
1.09517
1.62386
1.62286
1.63164
1.64374
1.65311
1.65229
1.65925
1.66755
1.67541
1.67855
1.67642
1.67631
1.67483
1.66938
1.66078
1.65661
1.6474
1.63965
1.63077
1.62724
1.61916
1.61387
1.60849
1.6028
1.59985
1.59393
1.5885
1.57927
1.575
1.56222
1.5471
1.5293
1.50914
1.50301
1.48163
1.46161
1.44315
1.42716
1.42211
1.40853
1.40094
1.39488
1.39048
1.38809
1.38556
1.38556
1.38737
1.38814
1.38676
1.38673
1.38697
1.38964
1.38773
1.38607
1.3801
1.36982
1.35445
1.35033
1.33033
1.30623
1.27921
1.27336
1.2417
1.20597
1.17349
1.16619
1.13304
1.10744
1.10396
1.0868
1.69462
1.69219
1.69201
1.70281
1.72079
1.7229
1.72562
1.72314
1.7386
1.74752
1.74516
1.73737
1.72944
1.73065
1.72275
1.71546
1.69465
1.68778
1.6819
1.67878
1.6651
1.65147
1.65238
1.64952
1.64598
1.63501
1.6292
1.6272
1.62516
1.61126
1.58854
1.57727
1.56168
1.55579
1.52989
1.5032
1.49172
1.4777
1.47142
1.45085
1.44124
1.43937
1.43699
1.4349
1.42939
1.42226
1.42626
1.43108
1.43092
1.42821
1.42027
1.42714
1.42717
1.42502
1.41312
1.40089
1.38723
1.3828
1.3568
1.3295
1.30026
1.29355
1.25397
1.21459
1.17656
1.1681
1.12919
1.09629
1.09197
1.07359
1.6998
1.69873
1.70749
1.71941
1.72826
1.72717
1.73446
1.74269
1.75056
1.75279
1.75047
1.74996
1.74651
1.73816
1.72631
1.72161
1.70955
1.69835
1.68608
1.68193
1.67192
1.6644
1.65838
1.65223
1.64944
1.64444
1.6399
1.6316
1.6276
1.61648
1.60296
1.58577
1.56526
1.55906
1.53761
1.51672
1.49736
1.48038
1.47524
1.46145
1.45295
1.44585
1.44037
1.43776
1.43467
1.43415
1.43508
1.43467
1.43302
1.43242
1.43184
1.43302
1.42928
1.42734
1.41991
1.40734
1.38905
1.38443
1.36177
1.33347
1.30122
1.29464
1.25754
1.21524
1.17671
1.16816
1.1278
1.09578
1.09141
1.06882
1.7712
1.76851
1.76862
1.77941
1.79568
1.79749
1.80063
1.80101
1.81406
1.82216
1.81963
1.81188
1.80374
1.80022
1.78895
1.78099
1.75821
1.74648
1.73619
1.73223
1.71588
1.70184
1.69876
1.69473
1.6914
1.68194
1.67741
1.67543
1.67364
1.66195
1.6435
1.63157
1.61581
1.60991
1.58438
1.55887
1.54451
1.52953
1.52321
1.50306
1.49321
1.48935
1.48585
1.48351
1.47746
1.47101
1.47319
1.47638
1.47587
1.47249
1.46523
1.46899
1.46688
1.4644
1.45123
1.43663
1.41961
1.41463
1.38609
1.35442
1.31967
1.31201
1.26751
1.22067
1.17593
1.1663
1.11983
1.07915
1.07381
1.05
1.77679
1.77567
1.78444
1.79582
1.80361
1.80209
1.81007
1.81878
1.82657
1.82776
1.82538
1.82514
1.82019
1.8083
1.79281
1.78775
1.77281
1.75745
1.74059
1.73557
1.72291
1.71254
1.70457
1.69735
1.69475
1.6906
1.687
1.67964
1.67598
1.6671
1.65607
1.64003
1.61947
1.6133
1.59236
1.57102
1.55033
1.53228
1.52723
1.51358
1.50436
1.49602
1.48936
1.48653
1.48301
1.48211
1.48201
1.48008
1.47807
1.4769
1.47561
1.47493
1.46903
1.46679
1.45791
1.4429
1.42142
1.41627
1.39086
1.35815
1.32054
1.31303
1.27022
1.22106
1.17599
1.16602
1.11734
1.07841
1.073
1.04383
1.84937
1.84644
1.84684
1.85696
1.87097
1.87234
1.87611
1.8796
1.89022
1.89748
1.89493
1.88804
1.88011
1.87183
1.85722
1.84873
1.824
1.80658
1.79073
1.78567
1.76566
1.74975
1.74172
1.7356
1.73238
1.72406
1.72058
1.71872
1.71726
1.70838
1.69501
1.68335
1.66815
1.6624
1.63802
1.61385
1.59647
1.58034
1.57405
1.55467
1.5446
1.53875
1.53407
1.53149
1.525
1.51928
1.51952
1.52083
1.51992
1.5158
1.50915
1.50954
1.50496
1.50213
1.48765
1.47049
1.44983
1.44427
1.41305
1.37674
1.3362
1.32759
1.2778
1.22318
1.17112
1.16013
1.1051
1.05665
1.05024
1.01982
1.85515
1.854
1.86262
1.87311
1.87903
1.87702
1.88585
1.89565
1.90294
1.90316
1.9009
1.90164
1.89604
1.8803
1.86124
1.856
1.83836
1.81797
1.79528
1.78913
1.7728
1.75886
1.74717
1.73797
1.73546
1.7316
1.72875
1.72248
1.71931
1.71315
1.70551
1.69144
1.67171
1.66576
1.64609
1.62498
1.60234
1.58305
1.57815
1.5649
1.55524
1.5455
1.53761
1.53458
1.53072
1.52954
1.52829
1.52457
1.52213
1.52031
1.51838
1.51542
1.50705
1.5045
1.49408
1.47646
1.45154
1.44584
1.41748
1.38011
1.33696
1.32849
1.27964
1.22325
1.17107
1.15943
1.1015
1.05573
1.0492
1.01264
1.92812
1.92499
1.92553
1.93431
1.94545
1.94621
1.95067
1.95699
1.96545
1.97181
1.96943
1.96436
1.95705
1.94481
1.92707
1.91833
1.89176
1.86792
1.84537
1.83895
1.81437
1.79494
1.78096
1.77158
1.76824
1.76011
1.75704
1.75535
1.75432
1.74871
1.74101
1.73102
1.71749
1.71221
1.69017
1.66766
1.64741
1.62981
1.62359
1.60507
1.59476
1.58713
1.58125
1.57844
1.57168
1.56659
1.56491
1.56414
1.56273
1.55784
1.5515
1.54842
1.54106
1.53787
1.52203
1.50207
1.47752
1.47136
1.4373
1.39611
1.34962
1.34005
1.28455
1.22177
1.16196
1.14938
1.08523
1.02961
1.02211
0.984332
1.93399
1.93286
1.94119
1.95057
1.95351
1.95093
1.96048
1.97214
1.97807
1.97743
1.97547
1.97796
1.97308
1.95354
1.93117
1.92605
1.90613
1.8797
1.85001
1.84253
1.82156
1.80337
1.78596
1.77363
1.77099
1.76631
1.7636
1.75847
1.756
1.75283
1.74954
1.7384
1.72083
1.71543
1.69812
1.67856
1.6533
1.63246
1.62775
1.61497
1.60525
1.59387
1.58476
1.58158
1.57749
1.57637
1.57367
1.56786
1.56494
1.56239
1.56007
1.55417
1.54309
1.54021
1.52813
1.50772
1.47913
1.47283
1.44129
1.39904
1.35026
1.3408
1.28549
1.22146
1.16178
1.14821
1.08053
1.02851
1.02085
0.97622
2.00652
2.00318
2.00334
2.00998
2.01787
2.01782
2.02271
2.03084
2.03763
2.04299
2.04094
2.03845
2.03216
2.01725
1.99688
1.9882
1.95982
1.92949
1.89954
1.89158
1.86168
1.83691
1.81612
1.80214
1.79839
1.78894
1.78515
1.7835
1.783
1.78074
1.77883
1.77206
1.76165
1.75726
1.73917
1.71905
1.69682
1.67773
1.67157
1.65366
1.64295
1.63401
1.62696
1.62395
1.6171
1.61236
1.60899
1.60601
1.60402
1.59831
1.59172
1.58532
1.57496
1.57139
1.55402
1.531
1.50236
1.49556
1.45843
1.41217
1.35967
1.34908
1.28736
1.21611
1.14845
1.13407
1.06085
0.998893
0.990326
0.945003
2.01222
2.01108
2.019
2.02694
2.02561
2.02235
2.03219
2.04632
2.0497
2.04819
2.04671
2.05146
2.04905
2.02575
2.00076
1.99594
1.97465
1.94157
1.90404
1.89519
1.86876
1.84567
1.82058
1.80381
1.80073
1.79365
1.78985
1.78567
1.78415
1.78378
1.78518
1.77805
1.76448
1.76005
1.74651
1.7304
1.70249
1.6802
1.67569
1.66334
1.65391
1.64057
1.63034
1.62706
1.62287
1.62233
1.6178
1.60959
1.60621
1.6028
1.60042
1.59083
1.57684
1.57362
1.55973
1.53625
1.50379
1.49691
1.46188
1.41456
1.36015
1.34965
1.28724
1.21538
1.14814
1.13243
1.05497
0.997698
0.988906
0.935575
2.08442
2.08075
2.07916
2.0827
2.08716
2.08625
2.09077
2.09862
2.10454
2.10877
2.1072
2.10721
2.10194
2.086
2.06386
2.05559
2.02571
1.98985
1.95267
1.94306
1.90724
1.87475
1.84677
1.82679
1.82227
1.8094
1.80318
1.80107
1.80116
1.80168
1.8049
1.8029
1.79753
1.79454
1.78229
1.76567
1.74375
1.72376
1.71777
1.70015
1.68867
1.67905
1.67103
1.66787
1.66108
1.65617
1.65152
1.64638
1.64381
1.63715
1.6294
1.62012
1.60661
1.60264
1.58335
1.55699
1.5242
1.5167
1.47612
1.4246
1.36604
1.35439
1.28577
1.20592
1.1307
1.11442
1.0326
0.965218
0.955646
0.903216
0.875211
2.15383
2.14806
2.13595
2.13592
2.14342
2.14468
2.1438
2.14352
2.15282
2.16055
2.15932
2.1552
2.14791
2.13829
2.11902
2.10882
2.07123
2.03497
1.99719
1.98725
1.94242
1.89979
1.86784
1.84243
1.83662
1.81782
1.80821
1.80512
1.80586
1.80795
1.81299
1.8174
1.81939
1.81851
1.81049
1.79536
1.78032
1.76341
1.75667
1.73433
1.72184
1.71492
1.70888
1.70619
1.69714
1.6875
1.68375
1.68076
1.67914
1.66935
1.65558
1.6471
1.63347
1.62887
1.60442
1.57524
1.54113
1.53306
1.48737
1.43159
1.36798
1.35525
1.28093
1.19287
1.10943
1.09318
1.00803
0.930885
0.920556
0.870659
0.831922
0.830473
0.836292
0.872468
0.926374
0.942096
0.995654
1.0019
1.00283
0.958301
0.887223
0.873135
0.785979
0.719194
0.706696
0.647649
0.608546
0.601075
0.568843
0.548732
0.544756
0.530946
0.5295
0.522587
0.517403
0.517707
0.523373
0.529442
0.530682
0.5342
0.527259
0.526345
0.512665
0.50383
0.502229
0.499238
0.494792
0.493533
0.485488
0.478048
0.469405
0.467653
0.455684
0.440251
0.438028
0.426068
0.415171
0.408291
0.407299
0.400661
0.392794
0.391442
0.381155
0.37532
0.375875
0.378829
0.386854
0.39079
0.390793
0.383235
0.369424
0.367307
0.356665
2.15982
2.15572
2.15116
2.15057
2.15052
2.14861
2.1518
2.1577
2.16231
2.16473
2.16365
2.16548
2.16117
2.14517
2.12254
2.11516
2.08512
2.04537
2.00155
1.99048
1.94868
1.90749
1.87093
1.84335
1.8377
1.81912
1.80844
1.80482
1.80562
1.80786
1.8151
1.81909
1.8207
1.81967
1.81515
1.80437
1.78518
1.76572
1.76027
1.74346
1.73124
1.72096
1.71215
1.70897
1.70245
1.69731
1.69165
1.68427
1.68111
1.67344
1.6641
1.65205
1.63518
1.63079
1.6093
1.57935
1.54227
1.53407
1.4897
1.43275
1.36814
1.35537
1.27925
1.19116
1.10906
1.09078
1.00101
0.929391
0.918901
0.860055
0.828757
0.829156
0.828401
0.866898
0.925242
0.937749
0.991689
1.00176
1.00262
0.960844
0.887953
0.874653
0.790071
0.719777
0.707859
0.649537
0.608787
0.601566
0.569059
0.548756
0.544537
0.530538
0.529402
0.521035
0.517023
0.517482
0.520299
0.529197
0.530367
0.532957
0.527235
0.526247
0.51288
0.503919
0.502367
0.500745
0.494969
0.493656
0.486085
0.478219
0.469424
0.467653
0.454901
0.440125
0.43792
0.424815
0.41478
0.408219
0.406943
0.399642
0.392723
0.39137
0.380899
0.375356
0.375872
0.378918
0.387098
0.390834
0.390898
0.384097
0.369497
0.36736
0.356688
2.22625
2.21962
2.20517
2.20024
2.2
2.19963
2.19685
2.19778
2.20095
2.2049
2.20392
2.2021
2.19778
2.18493
2.16548
2.1571
2.12381
2.08314
2.03879
2.02758
1.97785
1.92916
1.88495
1.85022
1.84304
1.81773
1.80205
1.79489
1.79564
1.79907
1.80951
1.81899
1.82773
1.82916
1.8315
1.8271
1.81423
1.79946
1.79373
1.7746
1.76234
1.75335
1.74645
1.74371
1.73533
1.72762
1.7216
1.71577
1.71344
1.70272
1.68949
1.67621
1.65882
1.65374
1.62743
1.59444
1.55538
1.54657
1.49735
1.43597
1.36583
1.35198
1.2704
1.17436
1.08459
1.06663
0.97396
0.893799
0.882749
0.825551
0.7859
0.784071
0.784025
0.818033
0.877205
0.893585
0.962878
0.989381
0.994446
0.970041
0.907479
0.895116
0.810176
0.738821
0.725742
0.661222
0.616616
0.608272
0.571016
0.546894
0.542106
0.524107
0.522307
0.512452
0.506953
0.507235
0.511281
0.518754
0.520072
0.525611
0.523269
0.523197
0.514028
0.507175
0.505947
0.504841
0.500117
0.49876
0.48991
0.47998
0.468719
0.466503
0.451443
0.434
0.431567
0.418496
0.407844
0.401369
0.400406
0.394393
0.388362
0.387355
0.379351
0.375251
0.375966
0.379771
0.388287
0.392841
0.392983
0.385903
0.370472
0.368175
0.356683
2.23229
2.22753
2.21872
2.21282
2.20642
2.20334
2.20382
2.20703
2.2082
2.20808
2.20732
2.20918
2.20539
2.18987
2.16815
2.16197
2.13299
2.09112
2.04239
2.03046
1.98295
1.93361
1.88671
1.85049
1.84323
1.8161
1.79847
1.79276
1.79448
1.7966
1.80608
1.81709
1.82768
1.82911
1.83348
1.83148
1.81796
1.80144
1.79697
1.78226
1.77017
1.75893
1.74951
1.74642
1.74041
1.73556
1.72883
1.7191
1.71541
1.70671
1.69608
1.68074
1.66039
1.65556
1.6315
1.59772
1.55629
1.5474
1.49879
1.43626
1.36575
1.35179
1.26748
1.17213
1.08404
1.06366
0.966452
0.892179
0.880893
0.81595
0.782649
0.782696
0.775889
0.81198
0.875899
0.888255
0.957258
0.988938
0.993462
0.971378
0.908127
0.896523
0.814247
0.739437
0.727005
0.663248
0.616876
0.60881
0.571241
0.546922
0.541849
0.523668
0.522206
0.510906
0.506594
0.507016
0.508958
0.518501
0.519739
0.524141
0.52321
0.522974
0.514086
0.507242
0.506052
0.5058
0.500268
0.498871
0.490405
0.480079
0.468726
0.466446
0.450362
0.433856
0.431438
0.417148
0.407429
0.401288
0.400004
0.393243
0.388263
0.387244
0.378793
0.375237
0.375945
0.379794
0.388387
0.392859
0.393057
0.386316
0.370519
0.36822
0.356615
2.29601
2.28825
2.26901
2.25691
2.24855
2.24633
2.23985
2.23819
2.23531
2.23461
2.23365
2.23176
2.22794
2.21379
2.19489
2.18835
2.15885
2.11629
2.06757
2.05571
2.00202
1.94705
1.89079
1.8462
1.83735
1.80309
1.77925
1.76738
1.76831
1.77115
1.78476
1.80009
1.81702
1.82118
1.83465
1.84265
1.83632
1.82668
1.82266
1.80834
1.79696
1.7871
1.77965
1.77698
1.76953
1.76309
1.75559
1.74737
1.7444
1.73283
1.71908
1.70175
1.68053
1.67494
1.6463
1.60921
1.56532
1.55575
1.50249
1.43533
1.3589
1.3439
1.25478
1.1516
1.05648
1.0367
0.937565
0.855608
0.843984
0.78124
0.741016
0.738933
0.732755
0.762551
0.823871
0.839605
0.921024
0.967914
0.976833
0.97414
0.923365
0.913251
0.832979
0.758089
0.744641
0.675
0.624732
0.615512
0.57307
0.544868
0.539212
0.517181
0.515155
0.502898
0.497522
0.497803
0.500705
0.508611
0.509889
0.516163
0.517751
0.518325
0.513579
0.509085
0.508285
0.508859
0.504224
0.502789
0.493161
0.480722
0.466883
0.464182
0.446105
0.427251
0.424665
0.410697
0.400498
0.394393
0.393414
0.387693
0.383157
0.382425
0.376252
0.374037
0.37495
0.379665
0.388614
0.393802
0.394084
0.387406
0.370618
0.368156
0.355773
2.30171
2.29609
2.28187
2.26899
2.2539
2.24954
2.24534
2.24431
2.23983
2.23638
2.23563
2.23503
2.23031
2.21596
2.19623
2.19082
2.16262
2.12031
2.06959
2.05755
2.00467
1.94687
1.89042
1.84558
1.83627
1.79781
1.77059
1.7633
1.76611
1.76593
1.77414
1.79384
1.81534
1.81951
1.83293
1.84122
1.83816
1.82801
1.82499
1.81428
1.80389
1.79189
1.78226
1.77941
1.77406
1.77028
1.76228
1.75033
1.74624
1.73645
1.72504
1.7057
1.68185
1.67653
1.6495
1.6116
1.56591
1.55634
1.50285
1.43459
1.35856
1.34333
1.25009
1.14891
1.05577
1.03324
0.928943
0.853949
0.842009
0.771069
0.737868
0.737591
0.724771
0.75644
0.822527
0.833624
0.913913
0.967188
0.974991
0.973957
0.923859
0.914391
0.836871
0.758697
0.745947
0.677123
0.625001
0.616084
0.573311
0.5449
0.538928
0.516753
0.515064
0.501425
0.497203
0.497601
0.498544
0.508373
0.509561
0.51455
0.517664
0.51798
0.513463
0.509125
0.508345
0.509445
0.504336
0.50288
0.493508
0.480735
0.466877
0.464064
0.444714
0.427107
0.424527
0.40929
0.400084
0.394312
0.392987
0.386454
0.383036
0.382281
0.375377
0.373969
0.374909
0.37961
0.388555
0.393789
0.394114
0.387396
0.370636
0.36819
0.355604
2.36336
2.35421
2.32737
2.30586
2.28868
2.28448
2.27195
2.26357
2.25429
2.24808
2.2468
2.24184
2.23608
2.22143
2.2034
2.19801
2.17044
2.12767
2.07733
2.06553
2.00836
1.9475
1.88042
1.82692
1.81622
1.77145
1.73817
1.72119
1.7226
1.72257
1.73772
1.75802
1.78443
1.79145
1.81566
1.83719
1.842
1.84132
1.83969
1.83225
1.82342
1.81451
1.80729
1.80486
1.79855
1.79275
1.78476
1.77484
1.7714
1.759
1.74364
1.72312
1.69817
1.69206
1.66046
1.61902
1.57051
1.56014
1.50225
1.42918
1.3469
1.33071
1.23414
1.12464
1.02522
1.00351
0.899179
0.816656
0.804628
0.738609
0.698125
0.695931
0.684119
0.708272
0.768562
0.782438
0.871397
0.937731
0.949935
0.96964
0.934029
0.926615
0.853632
0.776661
0.763108
0.688892
0.632922
0.622836
0.575099
0.542778
0.536192
0.510437
0.508275
0.494085
0.489168
0.489466
0.491928
0.49934
0.500481
0.506331
0.510995
0.511989
0.51137
0.509508
0.50917
0.511205
0.507015
0.505528
0.495124
0.480266
0.463998
0.460806
0.439969
0.420183
0.417485
0.402835
0.393269
0.387529
0.386506
0.380825
0.377408
0.376872
0.372046
0.371728
0.372868
0.378501
0.387806
0.393615
0.394024
0.387622
0.369818
0.367216
0.353946
2.42113
2.40889
2.36924
2.33923
2.31593
2.31102
2.28969
2.27226
2.25739
2.24489
2.24288
2.23428
2.22493
2.20892
2.18934
2.18586
2.15912
2.11698
2.06446
2.05269
1.99461
1.92755
1.85451
1.79072
1.77982
1.7314
1.69083
1.66356
1.66169
1.66285
1.68253
1.70503
1.73352
1.74296
1.78077
1.81299
1.82962
1.839
1.84056
1.84066
1.83585
1.83017
1.8254
1.82372
1.81755
1.81069
1.80344
1.79452
1.79171
1.77734
1.75859
1.73675
1.7099
1.70317
1.66761
1.62274
1.57034
1.55918
1.49756
1.4197
1.3305
1.31353
1.21415
1.09743
0.991725
0.971542
0.867676
0.779321
0.767316
0.70676
0.661208
0.657206
0.646684
0.663363
0.715296
0.731308
0.825162
0.900876
0.917556
0.958875
0.938376
0.933699
0.868189
0.793357
0.77931
0.70046
0.640752
0.629541
0.576877
0.540603
0.533439
0.504491
0.501887
0.487381
0.482179
0.482411
0.486252
0.49141
0.492425
0.49827
0.503501
0.505044
0.507993
0.508465
0.508623
0.511795
0.508346
0.506815
0.495682
0.478791
0.460184
0.45669
0.434692
0.413045
0.410261
0.396445
0.386725
0.381017
0.380281
0.375269
0.371514
0.371118
0.368143
0.368609
0.369878
0.376518
0.386216
0.392289
0.392787
0.386646
0.368118
0.365339
0.35161
2.42709
2.41638
2.38022
2.3477
2.31953
2.31317
2.29217
2.27398
2.25659
2.24374
2.24167
2.23066
2.22011
2.20507
2.18779
2.18245
2.15402
2.11163
2.06203
2.05088
1.99011
1.92127
1.84789
1.78749
1.77489
1.71905
1.6759
1.65483
1.65716
1.65205
1.66517
1.69077
1.72769
1.73757
1.77099
1.8048
1.82604
1.83833
1.83964
1.84158
1.83812
1.83238
1.82691
1.82504
1.82028
1.81538
1.80763
1.79663
1.79297
1.77985
1.76267
1.73919
1.71072
1.70407
1.66903
1.62314
1.57028
1.55915
1.49603
1.41701
1.3296
1.31221
1.20802
1.09355
0.990955
0.967254
0.858752
0.77743
0.765176
0.697381
0.658112
0.65596
0.639565
0.65749
0.71378
0.724876
0.816047
0.89954
0.914166
0.955757
0.938545
0.934159
0.871209
0.793986
0.780614
0.702645
0.64108
0.630168
0.577121
0.540674
0.53313
0.504052
0.501807
0.486081
0.481905
0.482247
0.484634
0.491215
0.492156
0.49663
0.503368
0.504529
0.507534
0.508439
0.508564
0.51189
0.508376
0.506862
0.495701
0.478624
0.460166
0.456485
0.433144
0.412866
0.410105
0.394994
0.386282
0.380942
0.379863
0.374025
0.371361
0.37094
0.366915
0.368409
0.369792
0.376278
0.38585
0.392224
0.39274
0.386379
0.368043
0.36534
0.351212
2.48141
2.4672
2.41865
2.3761
2.33928
2.33138
2.30034
2.27292
2.24667
2.225
2.22182
2.20612
2.19109
2.17164
2.15092
2.14792
2.12082
2.07831
2.0253
2.01409
1.95396
1.88153
1.80154
1.73112
1.71893
1.6607
1.61128
1.57981
1.57842
1.57446
1.58943
1.61794
1.65502
1.6673
1.71445
1.76034
1.79264
1.81613
1.82173
1.8353
1.8388
1.83717
1.83538
1.83458
1.83135
1.82746
1.82021
1.81013
1.80704
1.79255
1.77367
1.7478
1.71717
1.70989
1.67146
1.62205
1.56488
1.55293
1.48644
1.40261
1.30836
1.29031
1.1837
1.06303
0.95509
0.933171
0.825748
0.740383
0.728443
0.6658
0.624642
0.620995
0.606607
0.617546
0.663705
0.67644
0.767885
0.856624
0.875266
0.937466
0.936301
0.935131
0.882475
0.808905
0.795345
0.71374
0.648772
0.63677
0.578912
0.538621
0.53049
0.498537
0.495913
0.480081
0.47596
0.476289
0.479694
0.484599
0.485378
0.489083
0.495448
0.49699
0.502965
0.506021
0.506639
0.511407
0.508306
0.506756
0.495067
0.476136
0.455558
0.451644
0.427442
0.405577
0.402775
0.388675
0.380062
0.374845
0.374068
0.368699
0.365394
0.36505
0.3624
0.364486
0.365969
0.373401
0.383324
0.389741
0.390336
0.384525
0.365392
0.362538
0.348151
2.48694
2.47463
2.42846
2.38339
2.34176
2.33314
2.30108
2.27005
2.24234
2.22209
2.2187
2.19759
2.17783
2.16376
2.14744
2.14065
2.10685
2.06554
2.0198
2.00991
1.94412
1.86486
1.79031
1.72596
1.71122
1.64245
1.589
1.56847
1.57237
1.56014
1.56404
1.5979
1.64701
1.6594
1.69918
1.74137
1.78503
1.81394
1.81809
1.83061
1.83543
1.83676
1.83571
1.83495
1.83247
1.82919
1.82241
1.81142
1.80791
1.79415
1.77548
1.74904
1.71751
1.71034
1.67134
1.62093
1.56433
1.5525
1.48337
1.39847
1.30708
1.28847
1.17567
1.05858
0.95402
0.928289
0.816033
0.738458
0.726176
0.65702
0.621818
0.619825
0.600341
0.612344
0.662336
0.670239
0.758265
0.855053
0.870981
0.932193
0.936197
0.934982
0.884721
0.809483
0.796587
0.715932
0.649102
0.63743
0.5792
0.538691
0.53018
0.498143
0.495843
0.478883
0.475725
0.47614
0.478555
0.48443
0.485144
0.487531
0.495304
0.496396
0.502349
0.505962
0.506516
0.510862
0.508278
0.506769
0.49487
0.475875
0.455527
0.45137
0.425666
0.4054
0.402604
0.387201
0.379634
0.374768
0.373648
0.367472
0.365233
0.364854
0.361021
0.364236
0.365861
0.373056
0.382768
0.389636
0.390221
0.383627
0.365276
0.362522
0.347638
2.53665
2.52063
2.46142
2.40477
2.35391
2.34301
2.29946
2.25919
2.21897
2.18681
2.18184
2.15524
2.13284
2.10802
2.08663
2.08259
2.05395
2.0105
1.95905
1.94875
1.88569
1.81131
1.72373
1.64925
1.63531
1.56731
1.51079
1.47589
1.4758
1.46513
1.47653
1.50647
1.55247
1.56729
1.62102
1.68137
1.72835
1.76844
1.77784
1.80583
1.82068
1.82669
1.83099
1.83191
1.83293
1.83255
1.82683
1.81723
1.81433
1.8
1.78046
1.75166
1.71798
1.7102
1.66835
1.61449
1.5532
1.54049
1.46856
1.37897
1.28065
1.26151
1.14859
1.02447
0.915666
0.891929
0.783075
0.701807
0.690144
0.628792
0.592148
0.589053
0.572607
0.578447
0.617552
0.626692
0.711235
0.808288
0.827474
0.906848
0.926806
0.929183
0.891926
0.822126
0.809407
0.726272
0.65653
0.643835
0.580978
0.536792
0.527686
0.493
0.490387
0.473492
0.470727
0.471186
0.475046
0.479186
0.479716
0.480831
0.487353
0.48868
0.496843
0.502281
0.503296
0.50937
0.506796
0.505266
0.493069
0.472408
0.450195
0.445872
0.419812
0.398002
0.395207
0.381005
0.373727
0.369134
0.368331
0.362537
0.359337
0.358984
0.356282
0.35967
0.361354
0.369357
0.379335
0.386005
0.386659
0.381128
0.361665
0.358798
0.343878
2.57553
2.55753
2.48717
2.41978
2.35693
2.34304
2.28762
2.23466
2.18201
2.13449
2.12756
2.09575
2.06495
2.03213
2.00301
2.0037
1.97954
1.93566
1.87862
1.86729
1.81025
1.73409
1.64263
1.55733
1.54497
1.47968
1.41777
1.37113
1.3653
1.35763
1.37309
1.40027
1.44119
1.45715
1.52607
1.59591
1.65188
1.70042
1.71613
1.76212
1.78652
1.80053
1.81065
1.81357
1.82125
1.82515
1.82245
1.81407
1.81152
1.79821
1.77805
1.74817
1.71169
1.70359
1.65993
1.60282
1.53615
1.52262
1.44882
1.35475
1.24919
1.22981
1.11718
0.987702
0.874866
0.853895
0.749059
0.666217
0.655355
0.602752
0.566727
0.562932
0.549806
0.550718
0.579426
0.588935
0.667148
0.760762
0.782206
0.876371
0.910402
0.916725
0.895053
0.831751
0.819718
0.735607
0.663318
0.649781
0.582667
0.534925
0.525308
0.488213
0.485294
0.468566
0.466575
0.467141
0.47262
0.475435
0.47575
0.475162
0.479895
0.481298
0.490856
0.497548
0.498981
0.506413
0.503964
0.502399
0.490262
0.468125
0.444204
0.439806
0.413606
0.390632
0.387851
0.375011
0.368222
0.364017
0.36353
0.358035
0.353749
0.353352
0.351515
0.354762
0.356395
0.365034
0.375199
0.381309
0.382016
0.377152
0.357199
0.354205
0.339589
2.57979
2.56264
2.49337
2.42272
2.35667
2.34312
2.28438
2.22691
2.17117
2.12736
2.12
2.07839
2.04399
2.01619
1.99547
1.98883
1.95632
1.91365
1.86737
1.85862
1.79237
1.71253
1.62505
1.54918
1.53301
1.45483
1.39086
1.35515
1.35693
1.33819
1.34246
1.37334
1.42855
1.44528
1.5022
1.57062
1.63628
1.69425
1.70643
1.74737
1.77463
1.79306
1.80726
1.81072
1.81757
1.8218
1.81983
1.81297
1.81095
1.79722
1.7768
1.74658
1.71099
1.70274
1.65708
1.59897
1.53452
1.52116
1.44324
1.34824
1.24718
1.22693
1.10761
0.981935
0.87372
0.848155
0.739308
0.664169
0.65302
0.595225
0.564439
0.562014
0.545473
0.547001
0.578281
0.584015
0.65839
0.758875
0.777193
0.86847
0.90972
0.915308
0.895337
0.832218
0.820661
0.737468
0.663694
0.650425
0.582932
0.535047
0.525012
0.487808
0.485227
0.467497
0.46639
0.467025
0.472012
0.475345
0.475636
0.474041
0.479757
0.480702
0.490024
0.497422
0.498732
0.505466
0.503823
0.50235
0.489682
0.467652
0.444163
0.43945
0.411773
0.390422
0.387666
0.37356
0.367793
0.363952
0.363173
0.357021
0.353587
0.353158
0.350071
0.354417
0.356259
0.364513
0.374316
0.381139
0.3818
0.37598
0.356955
0.354144
0.338844
2.60032
2.58203
2.50586
2.42525
2.34601
2.32872
2.2578
2.18692
2.11615
2.05439
2.0447
1.99645
1.9531
1.91677
1.88783
1.88667
1.85853
1.81843
1.76786
1.75841
1.70056
1.62132
1.53291
1.44798
1.43354
1.35759
1.28894
1.24241
1.23813
1.22193
1.22451
1.25536
1.30298
1.32065
1.39021
1.46614
1.53913
1.60316
1.62196
1.68033
1.7188
1.74542
1.76651
1.77258
1.7886
1.80014
1.80275
1.79777
1.79625
1.78513
1.76624
1.73486
1.69681
1.68839
1.64174
1.58075
1.51091
1.49676
1.41751
1.31848
1.21043
1.19021
1.07155
0.942105
0.83117
0.808596
0.704503
0.63009
0.620083
0.571009
0.54378
0.540996
0.528361
0.525844
0.546811
0.552732
0.618597
0.712235
0.732239
0.833993
0.886789
0.89611
0.892969
0.838054
0.827637
0.745099
0.669572
0.655606
0.58435
0.53324
0.522734
0.483268
0.480421
0.462968
0.463094
0.463909
0.470616
0.473402
0.473509
0.47005
0.473383
0.474258
0.483849
0.491865
0.4935
0.501497
0.499669
0.498172
0.485788
0.462537
0.437642
0.432932
0.40537
0.383194
0.380503
0.367881
0.362797
0.359524
0.359088
0.353285
0.348591
0.348072
0.345375
0.349394
0.351112
0.359666
0.369464
0.375471
0.376167
0.371106
0.351631
0.348737
0.333996
2.60141
2.58384
2.50555
2.42171
2.3426
2.32762
2.25075
2.16916
2.09859
2.04421
2.0339
1.97131
1.9177
1.89549
1.87786
1.8669
1.82371
1.78749
1.75384
1.74744
1.67829
1.59017
1.51262
1.43879
1.4202
1.32999
1.25696
1.22534
1.2289
1.20063
1.18761
1.22412
1.28899
1.30657
1.36178
1.42786
1.5193
1.59535
1.60849
1.65662
1.69471
1.73212
1.76046
1.76705
1.78069
1.7891
1.79469
1.79473
1.79457
1.78197
1.76001
1.73084
1.69522
1.6866
1.63626
1.57426
1.50851
1.49465
1.40969
1.30988
1.1684
1.18659
1.05911
0.935727
0.829605
0.8023
0.693832
0.628102
0.617734
0.564432
0.541973
0.54024
0.525259
0.523085
0.545917
0.548591
0.61043
0.710409
0.727051
0.824627
0.885776
0.893812
0.89152
0.838349
0.828225
0.746625
0.669908
0.656183
0.584614
0.533342
0.522437
0.482916
0.480367
0.461965
0.462952
0.46381
0.470622
0.473366
0.473476
0.469387
0.47327
0.473737
0.482988
0.491716
0.493188
0.4997
0.499454
0.498075
0.484946
0.461973
0.437582
0.432503
0.403305
0.382998
0.380309
0.366508
0.362411
0.359464
0.358766
0.352473
0.348452
0.34789
0.344029
0.349047
0.350965
0.359057
0.368405
0.375262
0.375869
0.369068
0.351344
0.34865
0.33314
2.59233
2.57472
2.49446
2.40386
2.31095
2.29173
2.20366
2.11529
2.02283
1.94717
1.9343
1.86758
1.81408
1.77173
1.74555
1.74101
1.71291
1.67657
1.63642
1.62991
1.57375
1.50241
1.41427
1.33327
1.3168
1.23403
1.16062
1.11101
1.10817
1.08191
1.07717
1.10223
1.15389
1.17213
1.23862
1.32253
1.40446
1.4833
1.5033
1.57135
1.62287
1.66198
1.69672
1.70661
1.73157
1.75274
1.7628
1.76489
1.76553
1.75737
1.74112
1.7095
1.67174
1.66311
1.61353
1.54937
1.47754
1.46291
1.37812
1.27473
1.16551
1.1444
1.02157
0.89255
0.785301
0.761154
0.660746
0.595859
0.586979
0.545237
0.526296
0.524435
0.514122
0.508479
0.520747
0.523432
0.5757
0.665657
0.683541
0.78799
0.857147
0.868575
0.883116
0.839605
0.831089
0.751924
0.674461
0.660225
0.585432
0.531429
0.520091
0.478504
0.475749
0.457822
0.460629
0.461766
0.470824
0.473689
0.473642
0.467576
0.468505
0.468751
0.476978
0.485594
0.487269
0.495363
0.494051
0.492654
0.48
0.456058
0.430593
0.425589
0.39714
0.375992
0.373424
0.361347
0.358082
0.355918
0.355588
0.349813
0.344366
0.343666
0.339956
0.344082
0.345809
0.353814
0.362947
0.368731
0.36935
0.364052
0.3452
0.342476
0.327751
2.54698
2.53244
2.45391
2.3584
2.25481
2.2306
2.13466
2.03111
1.92552
1.82907
1.81392
1.7431
1.6782
1.62923
1.59351
1.59702
1.57639
1.54632
1.50596
1.49944
1.45917
1.39354
1.31184
1.22709
1.21353
1.13721
1.06075
1.00139
0.991971
0.966797
0.959482
0.9787
1.01813
1.03507
1.10963
1.19325
1.2791
1.35773
1.38404
1.46771
1.52573
1.5737
1.61414
1.6265
1.66482
1.6956
1.71439
1.72071
1.7215
1.72058
1.70821
1.67855
1.63858
1.63043
1.58269
1.51678
1.43943
1.42413
1.34024
1.23389
1.11821
1.09735
0.977346
0.846975
0.739125
0.719007
0.62639
0.565936
0.558744
0.528351
0.516174
0.514744
0.508918
0.500862
0.50392
0.505648
0.546671
0.624986
0.643124
0.750012
0.824227
0.838814
0.869484
0.835684
0.829367
0.754656
0.676931
0.662575
0.585522
0.529014
0.517498
0.474227
0.471277
0.454113
0.459464
0.461024