/*--------------------------------*- C++ -*----------------------------------*\
| =========                 |                                                 |
| \\      /  F ield         | OpenFOAM: The Open Source CFD Toolbox           |
|  \\    /   O peration     | Version:  v2012                                 |
|   \\  /    A nd           | Website:  www.openfoam.com                      |
|    \\/     M anipulation  |                                                 |
\*---------------------------------------------------------------------------*/
FoamFile
{
    version     2.0;
    format      ascii;
    class       volScalarField;
    location    "1e-06";
    object      kMean;
}
// * * * * * * * * * * * * * * * * * * * * * * * * * * * * * * * * * * * * * //

dimensions      [0 2 -2 0 0 0 0];


internalField   nonuniform List<scalar> 
10098
(
1.41236
1.41305
1.4291
1.44396
1.44505
1.44262
1.4536
1.47058
1.47349
1.4732
1.47222
1.48038
1.4892
1.48023
1.47512
1.47473
1.47867
1.47451
1.46478
1.46153
1.46012
1.46354
1.45204
1.44309
1.44088
1.43901
1.43375
1.41482
1.40854
1.39608
1.38693
1.36437
1.34108
1.33537
1.31969
1.30891
1.28448
1.26878
1.26551
1.25988
1.25728
1.24774
1.24315
1.24117
1.24273
1.24983
1.25174
1.24926
1.2473
1.25074
1.25925
1.26056
1.25885
1.25823
1.26082
1.25625
1.24308
1.24022
1.23126
1.21708
1.19947
1.1964
1.18271
1.16023
1.14192
1.13826
1.12226
1.10819
1.10626
1.47846
1.47757
1.48606
1.4983
1.50851
1.50816
1.51511
1.52358
1.53205
1.53683
1.53521
1.53663
1.5387
1.5379
1.53414
1.53088
1.52586
1.52301
1.51838
1.51554
1.50966
1.50644
1.50176
1.49624
1.49302
1.48554
1.47863
1.4681
1.46351
1.44883
1.432
1.41437
1.39531
1.38946
1.36898
1.35075
1.33425
1.32016
1.31542
1.30292
1.29715
1.29304
1.29046
1.2885
1.2872
1.2881
1.29147
1.29392
1.29291
1.29388
1.29537
1.30059
1.30143
1.30028
1.29701
1.29077
1.28044
1.27726
1.26221
1.24559
1.22748
1.22341
1.20151
1.17766
1.15577
1.15057
1.129
1.11316
1.11089
1.48231
1.48298
1.49921
1.51398
1.51429
1.51156
1.52259
1.53988
1.54199
1.54068
1.5395
1.54713
1.55481
1.54369
1.53675
1.53613
1.53871
1.5329
1.52187
1.51843
1.5164
1.51943
1.50761
1.49873
1.49663
1.49526
1.49055
1.47213
1.46591
1.45397
1.44516
1.4222
1.39822
1.39236
1.37615
1.36457
1.33895
1.32222
1.31881
1.31249
1.30907
1.29857
1.29312
1.29096
1.292
1.29866
1.29993
1.29683
1.29471
1.29777
1.30575
1.30598
1.3032
1.30238
1.3037
1.29735
1.28204
1.27878
1.26744
1.24992
1.22839
1.22462
1.20622
1.17885
1.15607
1.15138
1.1301
1.11326
1.11097
1.54999
1.54905
1.55768
1.56981
1.57957
1.57899
1.58589
1.59432
1.60233
1.60629
1.60442
1.60505
1.60552
1.60255
1.59665
1.59296
1.58616
1.58117
1.57476
1.57165
1.56489
1.56101
1.55595
1.55041
1.5473
1.54055
1.53433
1.52435
1.51988
1.50595
1.4898
1.47188
1.45223
1.44623
1.42523
1.40614
1.3886
1.37355
1.36864
1.35554
1.34888
1.3438
1.34035
1.33818
1.33628
1.33678
1.33939
1.34109
1.33991
1.34041
1.34136
1.34535
1.34494
1.34355
1.33898
1.33082
1.31808
1.31446
1.29701
1.27679
1.25451
1.24949
1.22293
1.19337
1.16643
1.16024
1.13329
1.11311
1.11034
1.55387
1.55465
1.57147
1.58647
1.58556
1.58246
1.59372
1.6121
1.61281
1.61025
1.60888
1.61612
1.62292
1.60855
1.59923
1.59841
1.59953
1.59128
1.57821
1.57448
1.57161
1.5745
1.56171
1.55277
1.55084
1.55018
1.54626
1.52832
1.52218
1.51111
1.5034
1.47985
1.45512
1.44914
1.43256
1.42073
1.39339
1.37559
1.37209
1.36538
1.36129
1.34947
1.34304
1.34069
1.34122
1.34771
1.34804
1.34402
1.34169
1.34438
1.35211
1.35079
1.34668
1.34565
1.34568
1.33738
1.31964
1.31594
1.30215
1.28097
1.27827
1.25061
1.22717
1.19438
1.16666
1.1608
1.13354
1.11306
1.11026
1.09518
1.62384
1.62284
1.63163
1.64372
1.65309
1.65226
1.65923
1.66754
1.67539
1.67853
1.67639
1.67629
1.6748
1.66935
1.66075
1.65657
1.64738
1.63963
1.63074
1.62722
1.61914
1.61386
1.60848
1.60279
1.59984
1.59392
1.58849
1.57926
1.57498
1.5622
1.5471
1.52928
1.50912
1.50299
1.48162
1.4616
1.44313
1.42714
1.42209
1.40852
1.40093
1.39487
1.39046
1.38808
1.38555
1.38556
1.38737
1.38813
1.38675
1.38672
1.38697
1.38964
1.38772
1.38606
1.3801
1.36982
1.35444
1.35032
1.33032
1.30622
1.27913
1.27335
1.2417
1.20596
1.17348
1.16619
1.13304
1.10743
1.10396
1.0868
1.69492
1.69248
1.6922
1.703
1.72106
1.72321
1.72588
1.7233
1.73885
1.74783
1.74547
1.7376
1.72961
1.73088
1.72301
1.71567
1.69478
1.68793
1.68209
1.67898
1.66526
1.65157
1.65253
1.64971
1.64616
1.63514
1.62933
1.62738
1.62536
1.61145
1.58865
1.57744
1.56189
1.556
1.53006
1.50332
1.4919
1.47792
1.47161
1.45099
1.44136
1.43954
1.43718
1.4351
1.42956
1.42237
1.4264
1.43125
1.4311
1.42837
1.42036
1.42727
1.42733
1.42517
1.41323
1.40098
1.38736
1.38291
1.35687
1.32957
1.30034
1.29361
1.254
1.21461
1.17656
1.1681
1.12918
1.09626
1.09194
1.07357
1.69946
1.69839
1.70726
1.71919
1.72797
1.72683
1.73417
1.7425
1.75033
1.7525
1.75018
1.74973
1.74632
1.73789
1.72602
1.72136
1.70938
1.69816
1.68585
1.68171
1.67174
1.66428
1.65821
1.65203
1.64927
1.6443
1.63977
1.6314
1.62739
1.61628
1.60283
1.58559
1.56502
1.55882
1.53742
1.51658
1.49715
1.48016
1.47505
1.46131
1.45283
1.44569
1.44019
1.43758
1.43451
1.43404
1.43496
1.43452
1.43286
1.43228
1.43175
1.4329
1.42915
1.42721
1.41982
1.40726
1.38895
1.38433
1.36169
1.33341
1.30115
1.29458
1.25751
1.21523
1.17671
1.16817
1.12782
1.09582
1.09145
1.06885
1.77157
1.76885
1.76886
1.77965
1.79601
1.79786
1.80093
1.80123
1.81435
1.82251
1.81998
1.81214
1.80394
1.80049
1.78925
1.78124
1.75837
1.74665
1.73641
1.73245
1.71606
1.70196
1.69892
1.69494
1.69158
1.68207
1.67754
1.67562
1.67385
1.66215
1.64364
1.63175
1.61604
1.61014
1.58457
1.55902
1.54471
1.52977
1.52343
1.50321
1.49335
1.48953
1.48605
1.48372
1.47764
1.47113
1.47333
1.47657
1.47607
1.47267
1.46534
1.46914
1.46705
1.46456
1.45134
1.43673
1.41974
1.41475
1.38617
1.35448
1.31973
1.31207
1.26753
1.22068
1.17592
1.1663
1.11981
1.07911
1.07377
1.04996
1.77649
1.77535
1.78421
1.79561
1.80334
1.80177
1.80982
1.8186
1.82636
1.8275
1.82513
1.82494
1.82001
1.80806
1.79253
1.78752
1.77264
1.75727
1.74038
1.73537
1.72275
1.71242
1.70443
1.69719
1.69463
1.6905
1.68689
1.67949
1.67581
1.66694
1.65595
1.63987
1.61926
1.61309
1.59219
1.57088
1.55014
1.53208
1.52706
1.51345
1.50424
1.49588
1.4892
1.48637
1.48287
1.48201
1.4819
1.47995
1.47792
1.47677
1.47552
1.47483
1.46891
1.46668
1.45783
1.44283
1.42133
1.41618
1.3908
1.35809
1.32048
1.31299
1.27021
1.22105
1.176
1.16604
1.11736
1.07846
1.07305
1.04386
1.84973
1.84676
1.84706
1.85719
1.87126
1.87268
1.87638
1.87982
1.89049
1.89781
1.89526
1.88829
1.88031
1.87208
1.85751
1.84896
1.82415
1.80674
1.79094
1.78586
1.76582
1.74987
1.74185
1.73578
1.73253
1.72417
1.72069
1.71888
1.71743
1.70853
1.69513
1.6835
1.66835
1.6626
1.63818
1.61398
1.59665
1.58055
1.57425
1.55481
1.54474
1.53892
1.53427
1.53168
1.52517
1.5194
1.51965
1.52101
1.5201
1.51596
1.50925
1.50967
1.50511
1.50228
1.48775
1.47057
1.44994
1.44438
1.41311
1.37679
1.33625
1.32764
1.27781
1.22318
1.1711
1.16011
1.10507
1.0566
1.05019
1.01978
1.85487
1.85373
1.86242
1.87291
1.8788
1.87674
1.88564
1.89548
1.90276
1.90294
1.90068
1.90147
1.89587
1.8801
1.86098
1.85579
1.83819
1.81781
1.79509
1.78897
1.77266
1.75875
1.74706
1.73785
1.73537
1.73152
1.72867
1.72237
1.71919
1.71303
1.70541
1.69131
1.67153
1.66558
1.64594
1.62485
1.60218
1.58287
1.578
1.56478
1.55513
1.54537
1.53746
1.53443
1.5306
1.52945
1.52819
1.52444
1.522
1.5202
1.5183
1.51533
1.50695
1.5044
1.49401
1.4764
1.45147
1.44577
1.41743
1.38007
1.33692
1.32846
1.27963
1.22325
1.17108
1.15946
1.10152
1.05579
1.04926
1.01268
1.92845
1.92529
1.92574
1.93452
1.94571
1.94652
1.95092
1.9572
1.96569
1.97212
1.96973
1.96458
1.95725
1.94504
1.92734
1.91854
1.8919
1.86806
1.84556
1.83913
1.81451
1.79505
1.78107
1.77173
1.76836
1.76019
1.75713
1.75548
1.75445
1.74883
1.74112
1.73115
1.71766
1.71238
1.69031
1.66778
1.64757
1.63
1.62377
1.6052
1.59488
1.58728
1.58143
1.57862
1.57183
1.56671
1.56504
1.5643
1.56289
1.55799
1.5516
1.54854
1.5412
1.53801
1.52212
1.50215
1.47762
1.47144
1.43735
1.39615
1.34966
1.34008
1.28455
1.22176
1.16193
1.14935
1.0852
1.02954
1.02205
0.98429
1.93375
1.93262
1.94102
1.9504
1.95331
1.95069
1.96031
1.972
1.97793
1.97725
1.97529
1.97781
1.97294
1.95337
1.93094
1.92587
1.90598
1.87956
1.84984
1.8424
1.82144
1.80328
1.78589
1.77355
1.77094
1.76625
1.76355
1.75839
1.75594
1.75274
1.74946
1.7383
1.72068
1.71529
1.698
1.67844
1.65315
1.6323
1.62762
1.61486
1.60516
1.59376
1.58464
1.58146
1.57738
1.57628
1.57359
1.56775
1.56483
1.5623
1.56
1.5541
1.54301
1.54013
1.52808
1.50767
1.47907
1.47278
1.44125
1.399
1.35023
1.34078
1.28548
1.22147
1.16181
1.14824
1.08055
1.02857
1.02091
0.976255
2.00682
2.00346
2.00352
2.01017
2.01811
2.0181
2.02292
2.03102
2.03784
2.04326
2.04121
2.03865
2.03232
2.01745
1.99712
1.98839
1.95994
1.9296
1.89971
1.89174
1.8618
1.83698
1.81621
1.80226
1.79849
1.78901
1.7852
1.7836
1.78309
1.78083
1.77891
1.77216
1.76179
1.7574
1.73929
1.71915
1.69697
1.67791
1.67173
1.65378
1.64305
1.63414
1.62712
1.62411
1.61724
1.61246
1.60909
1.60616
1.60417
1.59843
1.59181
1.58543
1.57508
1.57151
1.55409
1.53106
1.50245
1.49563
1.45847
1.4122
1.35969
1.34911
1.28735
1.21609
1.1484
1.13404
1.06081
0.998828
0.990271
0.944961
2.01207
2.01094
2.0189
2.02684
2.02548
2.0222
2.03209
2.04624
2.04962
2.04809
2.04661
2.05137
2.04896
2.02565
2.00061
1.99583
1.97455
1.94149
1.90395
1.89511
1.86868
1.84561
1.82055
1.80378
1.80072
1.79362
1.78984
1.78565
1.78414
1.78375
1.78515
1.778
1.7644
1.75999
1.74643
1.73033
1.70241
1.6801
1.67561
1.66327
1.65384
1.64049
1.63025
1.62697
1.6228
1.62227
1.61774
1.60952
1.60613
1.60273
1.60037
1.59079
1.57678
1.57357
1.5597
1.53622
1.50375
1.49689
1.46185
1.41454
1.36013
1.34964
1.28723
1.21539
1.14816
1.13246
1.05499
0.997739
0.988956
0.935599
2.08438
2.08072
2.07915
2.08269
2.08714
2.08623
2.09076
2.09863
2.10453
2.10875
2.10719
2.1072
2.10193
2.08597
2.06382
2.05555
2.02567
1.98981
1.95262
1.94301
1.90719
1.87472
1.84673
1.82675
1.82224
1.80939
1.80317
1.80106
1.80116
1.80168
1.80491
1.8029
1.79753
1.79454
1.78228
1.76566
1.74373
1.72374
1.71776
1.70014
1.68866
1.67904
1.67102
1.66787
1.66108
1.65617
1.65151
1.64638
1.64381
1.63715
1.6294
1.62012
1.6066
1.60263
1.58335
1.55698
1.52419
1.51669
1.47611
1.42459
1.36602
1.35438
1.28576
1.2059
1.13068
1.11441
1.03258
0.965202
0.955642
0.903206
0.875204
2.15405
2.14826
2.13606
2.13604
2.1436
2.14488
2.14393
2.14361
2.15296
2.16073
2.15949
2.15532
2.14799
2.13839
2.11918
2.10894
2.07128
2.03502
1.9973
1.98737
1.94249
1.89981
1.8679
1.84249
1.83669
1.81784
1.80821
1.80516
1.80589
1.80799
1.813
1.81743
1.81947
1.81857
1.81056
1.7954
1.78041
1.76352
1.75678
1.7344
1.72191
1.71501
1.70899
1.7063
1.69724
1.68757
1.68383
1.68086
1.67925
1.66945
1.65563
1.64717
1.63355
1.62895
1.60446
1.57527
1.54117
1.5331
1.48739
1.4316
1.36798
1.35526
1.28091
1.19283
1.10938
1.09315
1.00799
0.930831
0.920516
0.870629
0.831875
0.83043
0.836261
0.87244
0.926362
0.942077
0.995658
1.0019
1.00283
0.958303
0.887239
0.873166
0.785986
0.71921
0.706722
0.647655
0.608552
0.601084
0.568844
0.54873
0.544754
0.530939
0.529493
0.522579
0.517392
0.517696
0.523369
0.529433
0.530671
0.534195
0.527255
0.526346
0.512667
0.503835
0.502237
0.499241
0.494799
0.493541
0.485491
0.478051
0.469405
0.467654
0.455682
0.440246
0.438023
0.426063
0.415164
0.408283
0.407294
0.400657
0.39279
0.391439
0.381152
0.375321
0.375877
0.378832
0.386858
0.390795
0.390796
0.383235
0.369424
0.367309
0.356664
2.15967
2.15556
2.15105
2.15047
2.15042
2.14848
2.15173
2.15764
2.16226
2.16467
2.16359
2.16543
2.16111
2.14509
2.12241
2.11509
2.08504
2.0453
2.00147
1.99042
1.94862
1.90745
1.87092
1.84337
1.83773
1.81913
1.80846
1.80486
1.80568
1.80789
1.81512
1.8191
1.82068
1.81967
1.81511
1.80433
1.78513
1.76565
1.76021
1.7434
1.73118
1.7209
1.71208
1.7089
1.70239
1.69726
1.6916
1.68421
1.68104
1.67338
1.66406
1.65201
1.63514
1.63075
1.60928
1.57933
1.54224
1.53406
1.48968
1.43274
1.36814
1.35538
1.27925
1.19118
1.1091
1.09082
1.00103
0.929437
0.918958
0.860079
0.82881
0.829221
0.828446
0.866957
0.925321
0.937815
0.99173
1.00177
1.00263
0.960823
0.887909
0.874625
0.790033
0.719738
0.707834
0.649514
0.60877
0.601558
0.569056
0.54876
0.544544
0.530545
0.529413
0.521043
0.517038
0.517497
0.520307
0.529214
0.530384
0.532963
0.527239
0.52625
0.512875
0.503914
0.502364
0.500741
0.494962
0.49365
0.48608
0.478217
0.469424
0.467655
0.454905
0.440131
0.43793
0.424821
0.414787
0.408227
0.406951
0.399646
0.392727
0.391374
0.380898
0.375355
0.375873
0.378918
0.387099
0.390832
0.390896
0.384095
0.369494
0.36736
0.356688
2.2265
2.21984
2.2053
2.20038
2.20017
2.19983
2.19697
2.1979
2.20108
2.20507
2.20408
2.20221
2.19787
2.18503
2.16563
2.15719
2.12387
2.0832
2.0389
2.02771
1.97792
1.92919
1.88499
1.85027
1.84309
1.81773
1.80204
1.7949
1.79565
1.79908
1.8095
1.81899
1.82777
1.8292
1.83155
1.82716
1.81431
1.79958
1.79384
1.77467
1.76241
1.75344
1.74657
1.74382
1.73543
1.7277
1.72168
1.71587
1.71355
1.70282
1.68955
1.67628
1.6589
1.65382
1.62748
1.59448
1.55542
1.5466
1.49736
1.43597
1.36581
1.35198
1.27037
1.17432
1.08453
1.06659
0.973915
0.893736
0.882699
0.825513
0.785847
0.784021
0.783988
0.817997
0.877177
0.893552
0.962876
0.989369
0.994435
0.970043
0.907494
0.895147
0.810182
0.738838
0.725771
0.661229
0.616622
0.608283
0.571016
0.546891
0.542103
0.524097
0.522299
0.512443
0.506942
0.507224
0.511275
0.518744
0.520061
0.525606
0.523263
0.523196
0.514029
0.507179
0.505953
0.504845
0.500123
0.498767
0.489912
0.479982
0.468718
0.466503
0.45144
0.433993
0.43156
0.418489
0.407835
0.401361
0.4004
0.394389
0.388357
0.387351
0.379347
0.375252
0.375968
0.379773
0.388291
0.392844
0.392986
0.385903
0.370471
0.368177
0.356681
2.23216
2.22741
2.21863
2.21272
2.20635
2.20325
2.20378
2.20699
2.20818
2.20807
2.20731
2.20917
2.20537
2.18985
2.16808
2.16194
2.13293
2.09107
2.04235
2.03044
1.9829
1.93358
1.88672
1.85053
1.84328
1.81613
1.79851
1.79284
1.79458
1.79667
1.80614
1.81714
1.82773
1.82916
1.83348
1.83147
1.81794
1.8014
1.79694
1.78222
1.77013
1.75888
1.74946
1.74637
1.74036
1.73552
1.72878
1.71905
1.71536
1.70667
1.69605
1.68071
1.66036
1.65553
1.63148
1.59771
1.55628
1.5474
1.49878
1.43626
1.36576
1.3518
1.26749
1.17215
1.08408
1.0637
0.966471
0.892221
0.880947
0.815972
0.782697
0.782755
0.775927
0.812035
0.875979
0.888318
0.957307
0.988973
0.993481
0.971367
0.908091
0.896501
0.814213
0.739399
0.726983
0.663225
0.616859
0.608802
0.571238
0.546925
0.541855
0.523674
0.522216
0.510913
0.506606
0.507029
0.508965
0.518517
0.519754
0.524148
0.523215
0.522979
0.514084
0.50724
0.506051
0.505797
0.500263
0.498867
0.490401
0.480078
0.468727
0.466449
0.450365
0.433863
0.431448
0.417154
0.407436
0.401296
0.400011
0.393246
0.388268
0.387249
0.378793
0.375237
0.375946
0.379795
0.388389
0.392859
0.393057
0.386314
0.370517
0.36822
0.356615
2.29622
2.28845
2.26913
2.257
2.24868
2.24649
2.23996
2.23828
2.2354
2.23473
2.23377
2.23184
2.228
2.21385
2.19499
2.18841
2.15889
2.11632
2.06766
2.05579
2.00206
1.94705
1.8908
1.84622
1.83738
1.80307
1.77921
1.76736
1.76829
1.77114
1.78474
1.80008
1.81704
1.82119
1.83467
1.84267
1.83638
1.82677
1.82275
1.8084
1.79701
1.78718
1.77975
1.77708
1.76962
1.76315
1.75565
1.74746
1.7445
1.7329
1.71913
1.70181
1.6806
1.67501
1.64634
1.60923
1.56535
1.55577
1.50249
1.43532
1.35887
1.34389
1.25475
1.15156
1.05642
1.03666
0.937519
0.855547
0.843938
0.781204
0.740967
0.738889
0.732722
0.762519
0.823844
0.839571
0.92102
0.967898
0.976811
0.974138
0.923373
0.913274
0.832982
0.758101
0.744668
0.675004
0.624736
0.615522
0.573069
0.544865
0.53921
0.517171
0.515148
0.50289
0.497513
0.497793
0.5007
0.508603
0.50988
0.516158
0.517746
0.518323
0.513579
0.509087
0.508289
0.508861
0.504229
0.502795
0.493162
0.480721
0.46688
0.46418
0.446101
0.427244
0.424659
0.410691
0.40049
0.394385
0.393408
0.387689
0.383152
0.38242
0.376248
0.374037
0.37495
0.379666
0.388616
0.393804
0.394085
0.387406
0.370616
0.368156
0.355771
2.30164
2.29603
2.28181
2.26893
2.25387
2.24951
2.24534
2.24429
2.23985
2.23642
2.23567
2.23506
2.23031
2.216
2.19622
2.19083
2.1626
2.1203
2.0696
2.05758
2.00465
1.94684
1.89044
1.84563
1.83633
1.79784
1.77061
1.7634
1.76621
1.76602
1.77418
1.79391
1.81543
1.81959
1.83296
1.84123
1.83818
1.82801
1.825
1.81426
1.80387
1.79188
1.78224
1.77939
1.77404
1.77026
1.76226
1.7503
1.74621
1.73643
1.72503
1.70569
1.68184
1.67653
1.64949
1.6116
1.56592
1.55635
1.50285
1.4346
1.35857
1.34335
1.25009
1.14893
1.05579
1.03327
0.928952
0.853979
0.842052
0.771081
0.737903
0.737635
0.724797
0.756483
0.822594
0.833672
0.913957
0.96723
0.975013
0.973957
0.923835
0.914379
0.836843
0.758665
0.745931
0.677103
0.624986
0.616078
0.573307
0.544902
0.538934
0.516756
0.515072
0.501429
0.497212
0.497611
0.498549
0.508386
0.509574
0.514557
0.51767
0.517985
0.513463
0.509125
0.508346
0.509444
0.504334
0.502879
0.493505
0.480734
0.466879
0.464068
0.444717
0.427112
0.424535
0.409295
0.400089
0.394319
0.392993
0.386457
0.38304
0.382286
0.375377
0.373971
0.37491
0.379611
0.388558
0.39379
0.394115
0.387394
0.370634
0.368191
0.355605
2.3633
2.35416
2.32733
2.30582
2.28864
2.28445
2.27193
2.26355
2.25427
2.24806
2.24678
2.24184
2.23609
2.22142
2.20338
2.198
2.17042
2.12764
2.07728
2.06549
2.00831
1.94746
1.88037
1.82686
1.81618
1.77141
1.73815
1.72117
1.72259
1.72257
1.73773
1.75803
1.78444
1.79146
1.81568
1.83721
1.842
1.84132
1.83969
1.83225
1.82342
1.81451
1.80729
1.80485
1.79855
1.79275
1.78476
1.77484
1.7714
1.759
1.74363
1.72312
1.69816
1.69206
1.66045
1.61901
1.5705
1.56013
1.50224
1.42917
1.34688
1.3307
1.23412
1.12462
1.0252
1.00351
0.899161
0.81664
0.804627
0.738598
0.698118
0.695933
0.684115
0.708274
0.768571
0.782432
0.871411
0.937736
0.949924
0.969636
0.934017
0.926613
0.853617
0.776646
0.763108
0.688879
0.63291
0.622833
0.575089
0.54277
0.536188
0.510429
0.508272
0.494082
0.489167
0.489464
0.491927
0.499342
0.500482
0.506332
0.510995
0.511988
0.511368
0.509507
0.509171
0.511206
0.507015
0.505528
0.495121
0.480262
0.463993
0.460804
0.439966
0.420178
0.417484
0.402833
0.393268
0.387528
0.386506
0.380824
0.377408
0.376873
0.372044
0.371728
0.372868
0.378501
0.387808
0.393616
0.394025
0.387621
0.369813
0.367215
0.353942
2.42128
2.40904
2.36929
2.33929
2.31601
2.31113
2.28972
2.27229
2.25743
2.24494
2.24293
2.23431
2.22493
2.20891
2.18936
2.18585
2.1591
2.11695
2.06447
2.0527
1.99459
1.9275
1.85448
1.79069
1.77981
1.73135
1.69078
1.66351
1.66165
1.66281
1.68248
1.705
1.73349
1.74294
1.78076
1.81298
1.82963
1.83903
1.84059
1.84067
1.83587
1.83021
1.82545
1.82378
1.81759
1.81073
1.80348
1.79458
1.79178
1.77738
1.75862
1.73678
1.70994
1.70321
1.66763
1.62274
1.57035
1.55919
1.49755
1.41968
1.33046
1.31351
1.21411
1.09738
0.991669
0.971511
0.867637
0.779273
0.767286
0.706734
0.661174
0.65718
0.646663
0.663344
0.715285
0.731288
0.825164
0.900862
0.917526
0.958874
0.938375
0.933706
0.868187
0.793361
0.779329
0.700459
0.640751
0.629548
0.576873
0.540599
0.533437
0.504483
0.501884
0.487375
0.482174
0.482406
0.48625
0.491406
0.49242
0.498267
0.503496
0.505041
0.507992
0.508465
0.508624
0.511797
0.508347
0.506817
0.495681
0.478789
0.460178
0.456688
0.434687
0.413038
0.410257
0.396441
0.38672
0.381012
0.380277
0.375265
0.37151
0.371113
0.36814
0.368608
0.369877
0.376518
0.386218
0.39229
0.392787
0.386645
0.368114
0.365338
0.351606
2.427
2.41631
2.38016
2.34765
2.31952
2.31317
2.2922
2.274
2.25664
2.24383
2.24177
2.23073
2.22019
2.20516
2.18787
2.18255
2.15407
2.11167
2.06208
2.05099
1.99014
1.92131
1.84795
1.7876
1.77502
1.7191
1.67596
1.65497
1.65733
1.6522
1.66529
1.6909
1.72786
1.73773
1.77111
1.80489
1.82613
1.8384
1.83969
1.8416
1.83813
1.83238
1.82692
1.82505
1.82029
1.81538
1.80763
1.79663
1.79296
1.77984
1.76267
1.73919
1.71072
1.70409
1.66903
1.62315
1.57029
1.55918
1.49604
1.41702
1.32963
1.31225
1.20803
1.09358
0.99099
0.967298
0.858764
0.777461
0.765221
0.697393
0.658143
0.656
0.639586
0.657526
0.713844
0.724922
0.816105
0.899608
0.914202
0.955776
0.93854
0.934156
0.871186
0.793954
0.780599
0.702622
0.641063
0.630162
0.577116
0.540674
0.533135
0.504054
0.501814
0.486084
0.481912
0.482255
0.484638
0.491225
0.492166
0.496636
0.503377
0.504535
0.507538
0.508442
0.508568
0.511891
0.508377
0.506863
0.4957
0.478624
0.460168
0.45649
0.433146
0.412871
0.410113
0.394998
0.386287
0.380948
0.379869
0.374028
0.371366
0.370946
0.366916
0.368413
0.369796
0.376281
0.385854
0.392228
0.392742
0.386378
0.368042
0.365342
0.351213
2.48156
2.46736
2.41871
2.37613
2.33934
2.33147
2.30036
2.27292
2.24668
2.22501
2.22184
2.20611
2.19106
2.17159
2.15088
2.14787
2.12077
2.07825
2.02526
2.01402
1.95391
1.88146
1.80146
1.73104
1.71888
1.66061
1.61119
1.57972
1.57833
1.57438
1.58935
1.61787
1.65495
1.66723
1.71441
1.76031
1.79262
1.81613
1.82172
1.83529
1.83881
1.83719
1.83541
1.83462
1.83138
1.82749
1.82024
1.81018
1.80709
1.79259
1.7737
1.74782
1.7172
1.70993
1.67147
1.62204
1.56487
1.55293
1.48643
1.40258
1.30832
1.29028
1.18366
1.06297
0.955025
0.933132
0.825702
0.740329
0.728408
0.66577
0.624607
0.620968
0.606584
0.617524
0.663688
0.676416
0.767881
0.856603
0.875226
0.937462
0.936296
0.935131
0.882471
0.808907
0.795364
0.713738
0.64877
0.636778
0.578906
0.538616
0.530489
0.498529
0.495909
0.480074
0.475956
0.476284
0.479691
0.484595
0.485374
0.489079
0.495443
0.496986
0.502962
0.50602
0.506638
0.511408
0.508306
0.506757
0.495064
0.476132
0.455551
0.45164
0.427436
0.40557
0.402771
0.388671
0.380056
0.37484
0.374063
0.368695
0.365389
0.365046
0.362397
0.364484
0.365967
0.3734
0.383325
0.38974
0.390335
0.384522
0.365387
0.362536
0.348146
2.4869
2.47462
2.42841
2.38334
2.34176
2.33317
2.30111
2.27007
2.24239
2.22219
2.2188
2.19767
2.17789
2.16388
2.14754
2.14076
2.1069
2.06559
2.01986
2.01004
1.94415
1.86486
1.79036
1.72606
1.71133
1.64248
1.58903
1.56858
1.57252
1.56026
1.56412
1.59802
1.64717
1.65955
1.6993
1.74143
1.78513
1.81404
1.81816
1.83064
1.83545
1.83678
1.83574
1.83497
1.83249
1.8292
1.82242
1.81143
1.80793
1.79416
1.77548
1.74905
1.71753
1.71036
1.67135
1.62094
1.56435
1.55253
1.48339
1.39848
1.3071
1.2885
1.17568
1.0586
0.954045
0.928324
0.816038
0.73848
0.726211
0.657026
0.621839
0.619855
0.600355
0.61237
0.662388
0.670272
0.758313
0.855122
0.871015
0.932221
0.936203
0.934986
0.884704
0.809457
0.796579
0.715912
0.649086
0.637426
0.579194
0.538689
0.530184
0.498143
0.49585
0.478885
0.47573
0.476146
0.478557
0.484437
0.485152
0.487535
0.495313
0.496402
0.502354
0.505967
0.50652
0.510863
0.508279
0.506772
0.49487
0.475875
0.455529
0.451375
0.425667
0.405403
0.402611
0.387204
0.379639
0.374773
0.373653
0.367475
0.365238
0.364859
0.361022
0.36424
0.365864
0.373059
0.382773
0.389641
0.390225
0.383627
0.365276
0.362525
0.347639
2.53656
2.52057
2.46135
2.4047
2.35383
2.34296
2.29941
2.25915
2.21893
2.18677
2.18182
2.15522
2.13284
2.10801
2.08662
2.08259
2.05395
2.01048
1.95901
1.94873
1.88565
1.81127
1.72366
1.64918
1.63528
1.56726
1.51075
1.47585
1.47578
1.4651
1.47654
1.50648
1.55248
1.56729
1.62104
1.6814
1.72837
1.76845
1.77785
1.80584
1.82069
1.82669
1.83099
1.83192
1.83293
1.83255
1.82683
1.81723
1.81433
1.79999
1.78046
1.75165
1.71797
1.7102
1.66834
1.61447
1.55318
1.54049
1.46855
1.37895
1.28063
1.26151
1.14858
1.02445
0.915646
0.891928
0.783057
0.701792
0.690146
0.628782
0.592141
0.589054
0.572602
0.578447
0.617559
0.626687
0.711248
0.808299
0.827458
0.906856
0.926801
0.929176
0.891914
0.82211
0.809406
0.726256
0.656514
0.643831
0.580966
0.536781
0.527682
0.492992
0.490385
0.473489
0.470726
0.471185
0.475046
0.479187
0.479716
0.480831
0.487353
0.488679
0.496844
0.502281
0.503296
0.509371
0.506795
0.505265
0.493066
0.472403
0.450188
0.44587
0.419808
0.397997
0.395206
0.381003
0.373726
0.369133
0.368331
0.362537
0.359337
0.358984
0.356281
0.35967
0.361354
0.369357
0.379337
0.386005
0.386658
0.381127
0.36166
0.358797
0.343874
2.5756
2.55763
2.48716
2.41976
2.35694
2.3431
2.28758
2.23463
2.18197
2.13445
2.12754
2.0957
2.06489
2.03204
2.00294
2.00363
1.97947
1.93558
1.87853
1.8672
1.81018
1.734
1.64254
1.55724
1.54492
1.4796
1.41769
1.37105
1.36524
1.35755
1.37303
1.40022
1.44113
1.45708
1.52603
1.59587
1.65185
1.70039
1.71609
1.7621
1.7865
1.80052
1.81063
1.81357
1.82125
1.82515
1.82246
1.81409
1.81154
1.79823
1.77805
1.74817
1.71169
1.7036
1.65993
1.6028
1.53613
1.52261
1.4488
1.35472
1.24914
1.22978
1.11714
0.987648
0.874809
0.853868
0.74902
0.666177
0.655334
0.602731
0.566707
0.56292
0.549792
0.550705
0.57942
0.588924
0.667151
0.760753
0.782172
0.876371
0.910394
0.916712
0.895048
0.831746
0.819729
0.7356
0.663312
0.649787
0.582659
0.534919
0.525307
0.488205
0.485293
0.468561
0.466574
0.46714
0.47262
0.475434
0.475749
0.475159
0.479892
0.481294
0.490853
0.497546
0.498979
0.506413
0.503962
0.502397
0.490258
0.468119
0.444196
0.439803
0.4136
0.390625
0.387849
0.375008
0.368219
0.364014
0.363528
0.358033
0.353745
0.353349
0.351512
0.354761
0.356393
0.365033
0.375199
0.381307
0.382013
0.377149
0.357193
0.354202
0.339584
2.57978
2.56265
2.49333
2.42269
2.35669
2.34318
2.28443
2.22695
2.17125
2.1275
2.12016
2.07852
2.04412
2.01636
1.99565
1.98902
1.95643
1.91375
1.8675
1.8588
1.79245
1.7126
1.62514
1.54931
1.53316
1.45489
1.39092
1.35528
1.35708
1.33832
1.34257
1.37348
1.42876
1.44547
1.50235
1.57076
1.63643
1.69442
1.70656
1.74746
1.7747
1.79312
1.80734
1.81078
1.81762
1.82184
1.81986
1.81301
1.811
1.79726
1.77683
1.7466
1.71102
1.70278
1.6571
1.59899
1.53455
1.52121
1.44326
1.34826
1.24721
1.22698
1.10763
0.981957
0.87375
0.848196
0.739316
0.664189
0.653055
0.595231
0.564454
0.562037
0.545482
0.547017
0.578317
0.584037
0.658434
0.758947
0.777229
0.868514
0.909749
0.915321
0.895331
0.832198
0.820655
0.737447
0.663677
0.650421
0.582923
0.535044
0.525016
0.487806
0.485233
0.467498
0.466395
0.467029
0.472014
0.475349
0.47564
0.474042
0.479764
0.480707
0.490029
0.497429
0.498738
0.50547
0.503827
0.502354
0.489682
0.467653
0.444164
0.439455
0.411774
0.390425
0.387673
0.373563
0.367797
0.363956
0.363177
0.357023
0.353591
0.353163
0.350072
0.354422
0.356263
0.364517
0.374321
0.381145
0.381805
0.375982
0.356956
0.354148
0.338846
2.60037
2.58211
2.50582
2.42519
2.34598
2.32875
2.25774
2.18683
2.11606
2.05429
2.04464
1.99635
1.95299
1.91664
1.8877
1.88655
1.85842
1.81832
1.76773
1.75829
1.70044
1.6212
1.5328
1.44786
1.43346
1.35747
1.28883
1.24229
1.23803
1.22181
1.22442
1.25527
1.30288
1.32055
1.39015
1.46608
1.53907
1.60309
1.62188
1.68028
1.71876
1.74538
1.76646
1.77255
1.78858
1.80013
1.80274
1.79777
1.79626
1.78514
1.76624
1.73486
1.6968
1.68839
1.64173
1.58073
1.51088
1.49673
1.41747
1.31843
1.2104
1.19017
1.0715
0.942044
0.831107
0.808563
0.704462
0.63005
0.62006
0.570988
0.543765
0.540987
0.52835
0.525833
0.546805
0.552723
0.618597
0.712227
0.732204
0.83399
0.886778
0.896089
0.892963
0.838046
0.827645
0.74509
0.669564
0.655611
0.58434
0.533232
0.522733
0.483259
0.480419
0.462964
0.463094
0.463908
0.470616
0.473403
0.473509
0.470047
0.47338
0.474254
0.483847
0.491863
0.493497
0.501498
0.499665
0.498169
0.485783
0.46253
0.437634
0.432929
0.405364
0.383187
0.380501
0.367878
0.362794
0.359522
0.359086
0.353283
0.348588
0.348069
0.345373
0.349392
0.35111
0.359664
0.369464
0.375469
0.376164
0.371102
0.351624
0.348733
0.33399
2.60144
2.5839
2.50551
2.42166
2.34262
2.32771
2.25079
2.16915
2.09863
2.04432
2.03404
1.97139
1.91775
1.89564
1.87804
1.86706
1.82379
1.78757
1.75396
1.7476
1.67836
1.59019
1.51269
1.43889
1.42031
1.33002
1.25698
1.22543
1.22901
1.20072
1.18766
1.22421
1.28916
1.30672
1.36191
1.42795
1.51943
1.59551
1.60861
1.6567
1.69477
1.73219
1.76055
1.76712
1.78076
1.78913
1.79473
1.79479
1.79463
1.78202
1.76003
1.73087
1.69527
1.68665
1.63628
1.57428
1.50855
1.4947
1.40971
1.3099
1.16834
1.18665
1.05911
0.935743
0.829626
0.802333
0.693833
0.628118
0.617763
0.564435
0.541985
0.540257
0.525263
0.523095
0.545945
0.548608
0.610466
0.710477
0.727083
0.824673
0.885815
0.89383
0.89152
0.838336
0.828224
0.746608
0.669892
0.656182
0.584605
0.533337
0.52244
0.482913
0.480372
0.461965
0.462956
0.463814
0.470623
0.473367
0.473478
0.469386
0.473275
0.473741
0.482993
0.491723
0.493194
0.499703
0.499459
0.49808
0.484947
0.461974
0.437583
0.432508
0.403304
0.383
0.380314
0.36651
0.362415
0.359467
0.358769
0.352474
0.348455
0.347894
0.344029
0.349051
0.350968
0.359061
0.36841
0.375269
0.375874
0.369068
0.351344
0.348655
0.33314
2.59223
2.57467
2.49437
2.40377
2.31083
2.29166
2.20356
2.11521
2.02273
1.94707
1.93425
1.86752
1.81406
1.7717
1.74553
1.74101
1.71291
1.67656
1.6364
1.62991
1.57372
1.50238
1.41422
1.3332
1.31677
1.23397
1.16058
1.11096
1.10814
1.08187
1.07716
1.10223
1.15389
1.17212
1.23863
1.32257
1.40448
1.48332
1.5033
1.57137
1.62289
1.66198
1.69672
1.70661
1.73158
1.75275
1.76281
1.76489
1.76553
1.75737
1.74112
1.7095
1.67172
1.66311
1.61352
1.54936
1.47752
1.4629
1.3781
1.27472
1.16554
1.1444
1.02155
0.892526
0.785283
0.761156
0.66073
0.595848
0.586983
0.545229
0.526291
0.524434
0.514117
0.508475
0.520751
0.523432
0.57571
0.665673
0.68353
0.788005
0.857151
0.868563
0.883113
0.839591
0.831087
0.751907
0.674443
0.660222
0.585417
0.531415
0.520087
0.478495
0.475748
0.457819
0.460628
0.461764
0.470823
0.473687
0.473641
0.467572
0.468505
0.468751
0.476978
0.485595
0.487269
0.495365
0.494049
0.492653
0.479996
0.456052
0.430586
0.425587
0.397136
0.375987
0.373424
0.361346
0.358081
0.355917
0.355588
0.349812
0.344365
0.343666
0.339955
0.344084
0.34581
0.353814
0.362948
0.368731
0.36935
0.36405
0.345194
0.342474
0.327747
2.54693
2.53244
2.45383
2.3583
2.25471
2.23057
2.13454
2.03098
1.92539
1.82895
1.81385
1.74299
1.67808
1.62913
1.5934
1.59694
1.5763
1.54623
1.50585
1.49934
1.45908
1.39345
1.31175
1.22699
1.21348
1.13713
1.06067
1.00131
0.991915
0.966724
0.959424
0.978655
1.01807
1.03501
1.10958
1.19322
1.27907
1.35767
1.38397
1.46767
1.52569
1.57365
1.61409
1.62645
1.66478
1.69557
1.71436
1.72068
1.72148
1.72056
1.7082
1.67853
1.63855
1.63042
1.58266
1.51675
1.43939
1.42411
1.3402
1.23384
1.11814
1.09732
0.977298
0.846921
0.739073
0.718986
0.626358
0.56591
0.558733
0.528341
0.516171
0.514744
0.508917
0.500858
0.503919
0.505646
0.546672
0.624985
0.643099
0.750015
0.824221
0.83879
0.869481
0.835672
0.829367
0.754643
0.676918
0.662578
0.58551
0.529005
0.517497
0.474218