/*--------------------------------*- C++ -*----------------------------------*\
| =========                 |                                                 |
| \\      /  F ield         | OpenFOAM: The Open Source CFD Toolbox           |
|  \\    /   O peration     | Version:  v2012                                 |
|   \\  /    A nd           | Website:  www.openfoam.com                      |
|    \\/     M anipulation  |                                                 |
\*---------------------------------------------------------------------------*/
FoamFile
{
    version     2.0;
    format      ascii;
    class       volScalarField;
    location    "1e-06";
    object      kPrime2Mean;
}
// * * * * * * * * * * * * * * * * * * * * * * * * * * * * * * * * * * * * * //

dimensions      [0 4 -4 0 0 0 0];


internalField   nonuniform List<scalar> 
10098
(
8.89743e-08
8.04001e-08
4.36017e-08
3.347e-08
7.49566e-08
8.61663e-08
5.93797e-08
2.88655e-08
4.6635e-08
6.93854e-08
6.62222e-08
4.11584e-08
2.40485e-08
5.6092e-08
6.92815e-08
5.584e-08
2.54022e-08
3.21931e-08
5.3951e-08
5.48163e-08
3.88263e-08
1.87112e-08
4.07568e-08
5.41951e-08
4.83022e-08
2.79402e-08
2.26975e-08
5.11945e-08
5.64314e-08
4.69186e-08
2.12347e-08
3.66585e-08
5.22443e-08
5.0429e-08
3.41044e-08
1.48476e-08
3.65237e-08
4.1151e-08
3.33413e-08
1.76368e-08
1.19046e-08
2.1779e-08
2.63353e-08
2.59904e-08
1.99707e-08
9.91077e-09
1.31437e-08
2.17123e-08
2.45675e-08
1.88399e-08
8.41821e-09
1.50536e-08
1.97407e-08
1.84836e-08
9.79353e-09
8.58253e-09
1.34867e-08
1.30253e-08
7.46069e-09
6.3262e-09
7.72587e-09
6.7221e-09
1.76504e-09
2.3539e-09
1.54495e-09
9.55112e-10
1.69889e-10
1.417e-10
1.01547e-10
8.96906e-08
7.87361e-08
4.42452e-08
3.52933e-08
7.66116e-08
8.63165e-08
6.62954e-08
3.14756e-08
5.71305e-08
8.69971e-08
8.21519e-08
4.80738e-08
2.46592e-08
5.71976e-08
6.68044e-08
5.33104e-08
2.4329e-08
3.04172e-08
5.09075e-08
5.1884e-08
3.61595e-08
1.78255e-08
3.82868e-08
5.1474e-08
4.6447e-08
2.69602e-08
2.16978e-08
4.81752e-08
5.40865e-08
4.38487e-08
1.95921e-08
3.40416e-08
4.96176e-08
4.87224e-08
3.14023e-08
1.362e-08
3.43765e-08
4.30717e-08
3.54171e-08
1.83252e-08
1.25015e-08
2.62624e-08
3.26753e-08
3.2444e-08
2.53302e-08
1.20571e-08
1.57037e-08
2.52294e-08
2.96366e-08
2.2732e-08
9.79884e-09
1.84799e-08
2.52371e-08
2.40891e-08
1.29076e-08
1.13099e-08
1.79875e-08
1.54085e-08
7.74126e-09
6.49273e-09
7.57275e-09
6.84718e-09
1.88356e-09
2.2925e-09
1.50321e-09
1.12112e-09
2.26494e-10
1.85218e-10
1.72145e-10
7.89228e-08
7.1861e-08
3.85371e-08
2.92633e-08
6.73102e-08
7.782e-08
5.16713e-08
2.49098e-08
4.05686e-08
6.10604e-08
5.81797e-08
3.58647e-08
2.07836e-08
4.70479e-08
6.00902e-08
4.79374e-08
2.13416e-08
2.64624e-08
4.39743e-08
4.45681e-08
3.09381e-08
1.42535e-08
3.20454e-08
4.30018e-08
3.81474e-08
2.19504e-08
1.78514e-08
4.15548e-08
4.61576e-08
3.86715e-08
1.75294e-08
3.08907e-08
4.50684e-08
4.34214e-08
2.94362e-08
1.25534e-08
3.20137e-08
3.63968e-08
2.89863e-08
1.54821e-08
1.03264e-08
1.89644e-08
2.30707e-08
2.2716e-08
1.72708e-08
8.45839e-09
1.12894e-08
1.85476e-08
2.08575e-08
1.57202e-08
7.02922e-09
1.24156e-08
1.63373e-08
1.51784e-08
7.9426e-09
6.85465e-09
1.07271e-08
1.02964e-08
5.86722e-09
4.8269e-09
3.67175e-09
4.90124e-09
1.19307e-09
1.40761e-09
7.47088e-10
3.88715e-10
2.8274e-11
1.24878e-12
1.07061e-11
8.15481e-08
7.12e-08
3.96063e-08
3.1031e-08
6.95031e-08
7.90595e-08
5.99129e-08
2.68781e-08
5.21164e-08
7.98176e-08
7.52448e-08
4.39883e-08
2.07388e-08
5.02484e-08
5.823e-08
4.57219e-08
2.00117e-08
2.48677e-08
4.15816e-08
4.22828e-08
2.87917e-08
1.3034e-08
3.01889e-08
4.10397e-08
3.6885e-08
2.13179e-08
1.70906e-08
3.92688e-08
4.44691e-08
3.62233e-08
1.58662e-08
2.87313e-08
4.27849e-08
4.21207e-08
2.69268e-08
1.10097e-08
3.00338e-08
3.85676e-08
3.13321e-08
1.63604e-08
1.06201e-08
2.34277e-08
2.93714e-08
2.91589e-08
2.25343e-08
1.03797e-08
1.37538e-08
2.23403e-08
2.63787e-08
2.02788e-08
8.16258e-09
1.62381e-08
2.18923e-08
2.08049e-08
1.08495e-08
9.3427e-09
1.49301e-08
1.25905e-08
6.09273e-09
4.91099e-09
6.17517e-11
5.07778e-09
1.23206e-09
1.32454e-09
6.96109e-10
5.09901e-10
4.25837e-11
4.81837e-14
4.44089e-16
4.05587e-08
3.8296e-08
1.99357e-08
1.45766e-08
3.60811e-08
4.22275e-08
2.59804e-08
1.28459e-08
2.16276e-08
3.20807e-08
3.06172e-08
1.96093e-08
1.11601e-08
2.40633e-08
3.29357e-08
2.6073e-08
1.13923e-08
1.36715e-08
2.22526e-08
2.23876e-08
1.52178e-08
6.13079e-09
1.53418e-08
2.07737e-08
1.84986e-08
1.08979e-08
8.7911e-09
2.13514e-08
2.38895e-08
2.06266e-08
9.56551e-09
1.73673e-08
2.55902e-08
2.45916e-08
1.69884e-08
6.84104e-09
1.86578e-08
2.13099e-08
1.64762e-08
9.49102e-09
6.22474e-09
1.1255e-08
1.35261e-08
1.33252e-08
1.01863e-08
5.28927e-09
6.92632e-09
1.04607e-08
1.1558e-08
8.52381e-09
3.96313e-09
6.62992e-09
8.2986e-09
7.59428e-09
4.02981e-09
3.41104e-09
5.0387e-09
4.75449e-09
2.93126e-09
1.82095e-09
4.08152e-09
1.49614e-09
5.10784e-10
4.97679e-10
1.78566e-10
5.83451e-11
1.27987e-12
1.0837e-10
1.58363e-10
8.66636e-11
2.33485e-10
2.95768e-10
7.08842e-11
1.48562e-10
2.21702e-10
3.51335e-10
1.80273e-10
2.8944e-11
1.44753e-10
3.28981e-10
4.03852e-10
2.45059e-10
3.84381e-10
4.07457e-10
5.52222e-10
4.88387e-10
1.39126e-10
2.50087e-10
2.86167e-10
3.11414e-10
1.73022e-10
3.55125e-11
8.0572e-11
9.86917e-11
9.10485e-11
2.65312e-11
5.90381e-11
7.3662e-11
1.06901e-10
1.14562e-10
1.85123e-11
1.34695e-10
2.01008e-10
1.98575e-10
1.70926e-10
1.71271e-10
1.34559e-10
1.40519e-10
1.09087e-10
4.0441e-11
8.62064e-11
4.63811e-11
5.47054e-11
6.45075e-11
4.11029e-11
1.59428e-13
1.31486e-11
2.69484e-11
4.91969e-11
3.42466e-11
2.87992e-13
1.2131e-11
3.65761e-11
3.99389e-11
1.43703e-11
1.90687e-11
5.25873e-11
4.81555e-11
3.03226e-11
3.37776e-11
3.22462e-09
4.20659e-11
1.5415e-11
4.37892e-11
3.80056e-11
9.93938e-12
6.92801e-12
5.21561e-12
4.44089e-15
8.17124e-14
4.48876e-08
3.91133e-08
1.85426e-08
1.78448e-08
3.53602e-08
4.62563e-08
3.20146e-08
1.33964e-08
3.04115e-08
4.56751e-08
4.42886e-08
2.57003e-08
1.37859e-08
2.51652e-08
3.24551e-08
2.28435e-08
8.47406e-09
1.11247e-08
1.72241e-08
1.80434e-08
1.21688e-08
4.82353e-09
1.10367e-08
1.77265e-08
1.43883e-08
8.30295e-09
7.71057e-09
1.58763e-08
1.91896e-08
1.64698e-08
6.46084e-09
1.35609e-08
2.09381e-08
2.16672e-08
1.38026e-08
6.9401e-09
1.53339e-08
2.21157e-08
1.87716e-08
9.20383e-09
7.40774e-09
1.38503e-08
1.76849e-08
1.82329e-08
1.4106e-08
5.68748e-09
8.76424e-09
1.41944e-08
1.58239e-08
1.17356e-08
3.89976e-09
8.93327e-09
1.17972e-08
1.11436e-08
5.37143e-09
3.96705e-09
7.07147e-09
6.37403e-09
2.52321e-09
1.86353e-09
2.86418e-09
1.71897e-09
2.75515e-10
1.96239e-10
1.29632e-11
1.93403e-11
4.55407e-11
3.73299e-10
3.09791e-10
1.98772e-10
5.53065e-08
5.48859e-08
2.73861e-08
2.40762e-08
4.34329e-08
5.69047e-08
3.97501e-08
1.71602e-08
2.63005e-08
4.04492e-08
3.95811e-08
2.41514e-08
1.76158e-08
3.40456e-08
4.24241e-08
3.11074e-08
1.38385e-08
1.7048e-08
2.51689e-08
2.40408e-08
1.60367e-08
7.17456e-09
1.35691e-08
1.811e-08
1.40598e-08
8.77719e-09
8.25775e-09
1.81366e-08
2.1411e-08
1.88723e-08
8.34935e-09
1.70443e-08
2.68244e-08
2.6787e-08
1.85778e-08
1.00968e-08
2.03918e-08
2.44658e-08
1.84348e-08
1.0209e-08
7.94621e-09
1.24572e-08
1.52001e-08
1.54091e-08
1.15634e-08
5.37608e-09
7.09191e-09
1.13355e-08
1.33109e-08
1.01437e-08
3.96331e-09
6.5656e-09
9.029e-09
8.45434e-09
4.16719e-09
3.46812e-09
5.53835e-09
4.82617e-09
2.76474e-09
2.06403e-09
2.17911e-09
1.63637e-09
2.98201e-10
1.68676e-10
8.43769e-15
2.92737e-11
1.08005e-10
8.69272e-10
1.12352e-09
4.72978e-10
6.6953e-08
5.8049e-08
2.79819e-08
2.6879e-08
5.03961e-08
6.44241e-08
4.34352e-08
2.21755e-08
3.96674e-08
6.14352e-08
5.90866e-08
3.33442e-08
2.02338e-08
3.42352e-08
4.52245e-08
3.09652e-08
1.24432e-08
1.4619e-08
2.37294e-08
2.34146e-08
1.48709e-08
7.35243e-09
1.25396e-08
2.06739e-08
1.58631e-08
8.94735e-09
8.46022e-09
1.74589e-08
2.10471e-08
1.79764e-08
8.64851e-09
1.57138e-08
2.51066e-08
2.59062e-08
1.63597e-08
9.71857e-09
1.88173e-08
2.72462e-08
2.28536e-08
1.09877e-08
9.48094e-09
1.62524e-08
2.11335e-08
2.1614e-08
1.62906e-08
7.33232e-09
9.99374e-09
1.69487e-08
1.90409e-08
1.42482e-08
5.43612e-09
1.03805e-08
1.41472e-08
1.33624e-08
6.25468e-09
4.57728e-09
8.24679e-09
7.30704e-09
2.7905e-09
1.97851e-09
1.81101e-09
1.74894e-09
2.28926e-10
7.92719e-11
2.06595e-11
9.00879e-12
2.36819e-10
1.12587e-09
9.55472e-10
5.28441e-10
4.54346e-08
4.65671e-08
2.38021e-08
2.15176e-08
3.43181e-08
4.68704e-08
3.04428e-08
1.61561e-08
2.04685e-08
3.19021e-08
3.11215e-08
1.94694e-08
1.62356e-08
2.66434e-08
3.7057e-08
2.55459e-08
1.37912e-08
1.48919e-08
2.09693e-08
1.79331e-08
1.24379e-08
7.01882e-09
9.27217e-09
1.1801e-08
8.0012e-09
5.50683e-09
5.3325e-09
1.1445e-08
1.2741e-08
1.22881e-08
6.9693e-09
1.24216e-08
2.05634e-08
2.06357e-08
1.46131e-08
9.8943e-09
1.64674e-08
1.98629e-08
1.43405e-08
8.53331e-09
6.98767e-09
9.80595e-09
1.23107e-08
1.24197e-08
9.19104e-09
4.91871e-09
5.71869e-09
9.03761e-09
1.04656e-08
7.65381e-09
3.66871e-09
4.99222e-09
6.79098e-09
6.26155e-09
3.08181e-09
2.52631e-09
3.91175e-09
3.31761e-09
1.93454e-09
1.38469e-09
1.3866e-09
9.4618e-10
1.72516e-10
3.98288e-11
4.80624e-11
1.4406e-10
1.83423e-10
1.18191e-09
1.50998e-09
6.02408e-10
5.96933e-08
5.14929e-08
2.4545e-08
2.39494e-08
4.19214e-08
5.52807e-08
3.59182e-08
2.25976e-08
3.37591e-08
5.30287e-08
5.07882e-08
2.88532e-08
1.9397e-08
2.89989e-08
4.02737e-08
2.59445e-08
1.14351e-08
1.17977e-08
2.05122e-08
1.84829e-08
1.15124e-08
6.29266e-09
8.37633e-09
1.49357e-08
1.03629e-08
5.88921e-09
5.71258e-09
1.20654e-08
1.39378e-08
1.21258e-08
7.3672e-09
1.14553e-08
1.91073e-08
1.9977e-08
1.2701e-08
9.01303e-09
1.49988e-08
2.26788e-08
1.89351e-08
9.42803e-09
8.63848e-09
1.36398e-08
1.80046e-08
1.8402e-08
1.37121e-08
7.1965e-09
8.49787e-09
1.43196e-08
1.6141e-08
1.20193e-08
5.60409e-09
8.40041e-09
1.14827e-08
1.08233e-08
4.94315e-09
3.49156e-09
6.30104e-09
5.32026e-09
1.95922e-09
1.28992e-09
1.04863e-09
1.05798e-09
9.59712e-11
1.55875e-13
1.86061e-10
1.06975e-10
4.33326e-10
1.56418e-09
1.26106e-09
7.308e-10
3.6224e-08
3.64373e-08
2.00303e-08
1.80706e-08
2.65237e-08
3.74336e-08
2.16544e-08
1.35917e-08
1.50066e-08
2.37022e-08
2.3064e-08
1.48823e-08
1.36812e-08
2.00925e-08
3.22442e-08
2.07668e-08
1.28095e-08
1.22436e-08
1.71951e-08
1.30305e-08
9.64705e-09
5.91267e-09
5.82865e-09
7.39162e-09
3.96503e-09
3.14402e-09
2.98334e-09
6.35264e-09
6.11815e-09
7.09649e-09
5.07532e-09
8.38009e-09
1.4983e-08
1.51741e-08
1.12374e-08
8.90405e-09
1.32696e-08
1.59064e-08
1.08645e-08
6.95246e-09
5.75511e-09
7.65082e-09
9.71737e-09
9.74045e-09
7.15922e-09
4.30767e-09
4.50431e-09
7.04691e-09
8.05883e-09
5.75524e-09
3.18553e-09
3.69393e-09
4.96872e-09
4.5026e-09
2.20501e-09
1.76946e-09
2.62046e-09
2.14823e-09
1.29961e-09
8.79568e-10
8.18401e-10
4.80737e-10
8.43006e-11
4.55191e-14
1.65503e-10
3.06145e-10
2.37955e-10
1.3591e-09
1.74121e-09
6.52533e-10
5.16973e-08
4.52154e-08
2.1082e-08
2.05325e-08
3.39397e-08
4.61289e-08
2.8858e-08
2.16226e-08
2.77342e-08
4.43798e-08
4.2266e-08
2.41556e-08
1.79976e-08
2.39461e-08
3.53278e-08
2.11657e-08
9.32701e-09
8.63626e-09
1.73616e-08
1.42722e-08
9.19455e-09
5.18531e-09
5.30227e-09
1.05855e-08
6.92129e-09
3.57805e-09
3.35665e-09
8.1927e-09
8.27274e-09
7.38707e-09
5.33556e-09
7.70941e-09
1.40729e-08
1.45914e-08
9.51158e-09
7.2794e-09
1.16766e-08
1.85815e-08
1.55328e-08
7.84858e-09
7.13695e-09
1.12248e-08
1.50895e-08
1.54035e-08
1.13923e-08
6.5397e-09
7.03284e-09
1.19321e-08
1.34843e-08
9.90285e-09
5.0699e-09
6.69104e-09
9.15274e-09
8.61869e-09
3.82918e-09
2.64289e-09
4.66509e-09
3.64002e-09
1.31301e-09
7.77387e-10
5.24035e-10
5.80299e-10
1.87323e-11
4.92162e-11
4.60697e-10
2.74594e-10
6.12688e-10
1.84886e-09
1.41592e-09
8.50532e-10
2.77995e-08
2.61645e-08
1.46085e-08
1.35942e-08
1.9629e-08
2.70464e-08
1.35997e-08
9.58474e-09
1.00835e-08
1.60147e-08
1.55917e-08
1.03916e-08
1.00109e-08
1.40901e-08
2.60334e-08
1.60846e-08
1.06921e-08
9.4077e-09
1.34935e-08
8.95727e-09
7.28969e-09
3.8295e-09
2.2597e-09
3.03453e-09
1.53041e-09
1.58035e-09
1.30011e-09
2.85319e-09
1.98551e-09
3.33464e-09
2.81685e-09
4.83478e-09
9.71879e-09
9.07269e-09
7.99458e-09
6.63191e-09
1.04776e-08
1.19089e-08
7.95867e-09
5.40193e-09
4.25541e-09
5.76958e-09
7.40869e-09
7.34244e-09
5.39458e-09
3.40057e-09
3.40818e-09
5.34695e-09
6.05859e-09
4.23382e-09
2.44427e-09
2.63968e-09
3.50535e-09
3.09543e-09
1.51e-09
1.16505e-09
1.61877e-09
1.27298e-09
8.2118e-10
5.16055e-10
4.28136e-10
1.89856e-10
2.90417e-11
1.977e-11
3.00524e-10
4.62172e-10
2.48088e-10
1.3978e-09
1.807e-09
5.83964e-10
4.38846e-08
3.91727e-08
1.71407e-08
1.55898e-08
2.6737e-08
3.7291e-08
2.23727e-08
1.59605e-08
2.17353e-08
3.57303e-08
3.38339e-08
1.93301e-08
1.16838e-08
1.87473e-08
2.96861e-08
1.64504e-08
7.16782e-09
6.12107e-09
1.49296e-08
1.12382e-08
7.5254e-09
2.4656e-09
4.27142e-09
7.26825e-09
4.77228e-09
2.4079e-09
1.53379e-09
5.07607e-09
4.11264e-09
3.79313e-09
2.98343e-09
4.51275e-09
1.02445e-08
9.6129e-09
6.59501e-09
4.70709e-09
9.78645e-09
1.50899e-08
1.2791e-08
6.10881e-09
4.93456e-09
9.08303e-09
1.24418e-08
1.26603e-08
9.34541e-09
5.10185e-09
5.53698e-09
9.85366e-09
1.11079e-08
8.01388e-09
3.741e-09
5.24924e-09
7.18559e-09
6.76599e-09
2.86991e-09
1.99519e-09
3.338e-09
2.47678e-09
8.183e-10
4.15389e-10
1.99128e-10
2.66512e-10
2.69318e-12
2.02204e-10
7.86736e-10
4.38977e-10
7.28584e-10
1.98717e-09
1.43413e-09
8.27208e-10
1.06615e-08
9.06924e-09
4.93827e-09
4.93992e-09
7.7654e-09
1.0117e-08
4.11532e-09
3.18018e-09
3.15748e-09
4.8153e-09
4.70192e-09
3.3289e-09
3.6668e-09
4.60825e-09
1.05675e-08
6.21248e-09
4.48679e-09
3.30463e-09
4.06852e-09
2.62663e-09
3.22653e-09
1.45061e-09
3.94328e-10
2.59322e-10
6.74314e-11
3.93359e-10
9.77125e-11
1.04263e-10
2.52776e-11
6.0318e-10
5.6499e-10
1.25086e-09
3.15262e-09
2.26658e-09
3.05412e-09
2.24246e-09
3.41067e-09
4.56118e-09
3.20405e-09
2.40818e-09
1.84915e-09
2.66145e-09
3.45154e-09
3.39171e-09
2.55472e-09
1.65032e-09
1.66963e-09
2.51904e-09
2.76778e-09
1.87881e-09
1.09088e-09
1.12253e-09
1.39229e-09
1.14887e-09
5.89876e-10
4.34373e-10
4.97683e-10
3.30795e-10
3.14893e-10
1.82828e-10
1.26992e-10
2.21343e-11
5.15854e-12
3.26474e-11
2.22265e-10
3.7646e-10
1.12654e-10
8.11943e-10
1.17862e-09
2.695e-10
4.8149e-10
4.02487e-10
9.17773e-11
9.89289e-11
1.76321e-10
2.79144e-10
7.96119e-11
4.13625e-12
3.65699e-11
1.27711e-10
1.67303e-10
6.65388e-11
8.93703e-11
4.64187e-10
9.22918e-10
8.11701e-10
6.46817e-10
8.08972e-10
1.45627e-09
1.28875e-09
1.2791e-09
5.07458e-10
6.19131e-10
4.86917e-10
3.03158e-10
9.27587e-11
2.41944e-11
2.4007e-11
1.71583e-11
8.79297e-13
3.93974e-11
8.81517e-13
1.17049e-11
1.44542e-11
3.413e-11
2.85318e-11
1.18123e-10
1.1359e-10
6.74101e-11
2.94413e-11
2.77498e-11
2.05871e-11
1.88161e-11
1.63731e-11
1.09632e-11
4.01013e-13
4.79927e-12
1.23617e-11
1.93268e-11
1.51599e-11
1.21236e-13
1.19127e-11
3.24967e-11
2.33031e-11
1.46789e-11
2.39142e-11
6.65072e-11
3.03468e-11
4.13389e-11
6.44835e-11
1.26311e-10
3.31735e-11
6.85483e-11
1.44891e-10
1.53268e-10
2.43647e-11
1.13902e-10
1.20326e-10
9.95104e-12
5.18968e-11
2.06657e-11
2.34111e-08
1.8552e-08
5.3994e-09
6.61034e-09
1.39359e-08
1.755e-08
7.72356e-09
3.91068e-09
8.98463e-09
1.44109e-08
1.38531e-08
7.18834e-09
3.19808e-09
5.12254e-09
1.22468e-08
7.46611e-09
1.18428e-09
1.19086e-09
5.87824e-09
7.05458e-09
2.34322e-09
2.0567e-10
1.3464e-09
1.93862e-09
1.86976e-09
1.91853e-10
1.30975e-11
7.94055e-10
4.96453e-10
9.24696e-10
1.03097e-10
4.0043e-10
2.42901e-09
1.72079e-09
2.32979e-09
9.19735e-10
4.15586e-09
6.37472e-09
5.91268e-09
2.20776e-09
2.24126e-09
4.27033e-09
6.08486e-09
6.51297e-09
4.82785e-09
2.13357e-09
2.99915e-09
5.02226e-09
5.81129e-09
4.03616e-09
1.30889e-09
2.45043e-09
3.19512e-09
3.12349e-09
1.098e-09
5.81266e-10
1.11459e-09
9.5681e-10
1.45392e-10
3.05369e-11
1.05171e-11
4.04943e-12
1.12727e-10
4.89686e-10
1.01174e-09
4.11844e-10
6.37056e-10
1.35789e-09
7.77862e-10
4.42682e-10
1.07719e-09
8.98303e-10
4.53443e-10
3.81284e-10
7.27844e-11
1.68223e-10
7.98184e-12
7.25664e-12
1.06803e-13
2.5896e-12
1.24062e-10
4.66283e-10
2.14886e-11
1.14801e-10
3.1899e-10
2.07859e-11
1.6688e-11
4.3698e-11
4.77396e-14
9.22651e-13
1.21186e-12
2.44403e-11
1.90141e-11
3.20787e-11
5.42277e-11
5.20461e-11
7.47075e-12
4.37767e-11
5.17302e-11
1.17384e-11
8.79191e-12
8.80518e-13
2.01195e-12
1.23254e-11
3.26156e-11
3.91903e-12
2.73424e-11
2.98137e-11
6.01194e-12
4.59408e-12
5.55112e-17
2.53547e-13
1.58626e-12
1.28109e-11
9.79247e-12
1.29016e-11
2.66661e-11
2.46926e-11
1.46499e-11
7.87698e-12
1.13672e-11
4.73144e-12
4.13969e-12
5.67768e-13
3.27133e-12
4.13763e-12
9.40426e-12
1.00512e-11
7.53811e-12
1.16573e-15
4.16334e-16
3.22795e-12
4.25215e-13
1.20048e-08
1.17443e-08
5.69233e-09
5.1534e-09
4.79738e-09
8.08819e-09
2.67497e-09
1.69931e-09
1.2131e-09
1.41046e-09
1.44325e-09
1.01608e-09
1.43342e-09
2.69935e-09
7.66911e-09
2.36775e-09
3.591e-09
2.83085e-09
3.8573e-09
1.398e-09
1.88657e-09
1.10134e-09
6.95368e-11
1.41889e-10
3.00897e-10
9.42832e-11
2.47069e-10
1.00222e-09
1.98185e-09
4.6043e-10
3.36196e-10
4.36318e-12
1.1054e-10
2.62279e-12
6.78076e-10
7.38249e-10
1.46504e-09
2.36445e-09
1.97041e-09
1.66501e-09
1.62478e-09
1.89014e-09
2.48139e-09
2.48954e-09
1.91729e-09
1.30561e-09
1.34422e-09
1.90657e-09
2.19972e-09
1.4714e-09
8.57375e-10
8.0453e-10
9.43529e-10
7.29594e-10
3.67332e-10
2.40327e-10
3.21245e-10
7.85167e-11
1.17117e-10
4.22409e-11
9.15934e-13
4.96116e-11
1.47673e-11
1.93144e-10
6.25476e-10
8.60725e-10
1.99505e-10
1.0062e-09
1.57363e-09
2.69083e-10
1.35044e-09
2.01506e-09
9.60827e-10
1.69384e-09
2.97249e-09
2.0637e-09
7.92267e-10
1.68796e-10
4.86737e-11
2.16444e-10
9.49212e-10
3.7934e-10
6.70384e-10
7.43207e-10
2.9232e-10
2.50924e-10
1.33789e-10
3.50299e-11
4.6268e-12
6.37163e-12
2.13597e-11
2.64077e-11
5.65088e-11
3.55164e-11
1.11643e-10
1.10013e-10
2.676e-11
1.46139e-10
1.46565e-10
2.08874e-11
4.81687e-12
5.64959e-12
1.25235e-11
8.63309e-12
2.66354e-12
5.19162e-12
1.9661e-11
1.58002e-11
1.22691e-11
2.48634e-12
7.69107e-14
2.53747e-12
7.16002e-12
2.3177e-11
4.90798e-11
1.9419e-11
2.63322e-11
3.21846e-11
3.18087e-11
5.30767e-12
6.14109e-12
1.06256e-11
9.99256e-13
2.68341e-13
5.54834e-14
1.65729e-13
3.97349e-13
6.64552e-13
1.56702e-12
2.57924e-12
4.30159e-12
1.75443e-13
2.41474e-15
2.88146e-08
2.40477e-08
7.89194e-09
8.82536e-09
1.36723e-08
1.84021e-08
7.67738e-09
6.93589e-09
8.05711e-09
1.28247e-08
1.22703e-08
6.455e-09
3.60208e-09
4.48234e-09
1.12798e-08
4.16527e-09
1.90312e-09
1.39052e-09
6.51703e-09
7.40774e-09
2.08974e-09
4.38054e-10
8.336e-10
1.091e-09
1.05256e-09
1.57385e-12
2.75748e-11
5.84492e-11
3.53708e-11
8.33706e-11
4.13758e-12
1.7534e-11
1.17781e-09
7.55549e-10
1.5007e-09
1.39289e-09
3.57167e-09
6.22561e-09
5.74307e-09
2.50543e-09
2.58861e-09
4.23147e-09
6.18918e-09
6.51512e-09
4.79122e-09
2.8233e-09
3.03328e-09
5.12267e-09
5.98716e-09
4.04045e-09
1.93471e-09
2.37738e-09
3.14395e-09
3.08074e-09
1.04562e-09
4.95912e-10
8.99695e-10
6.19886e-10
7.73195e-11
9.12159e-13
1.06277e-10
1.68114e-11
2.86716e-10
9.32055e-10
1.70012e-09
7.5037e-10
9.83127e-10
1.92202e-09
1.15282e-09
7.04664e-10
1.3893e-09
1.18553e-09
6.30451e-10
6.00748e-10
3.52839e-10
5.31552e-10
2.60358e-12
6.92405e-11
5.97115e-11
6.04183e-13
1.16118e-10
4.5845e-10
2.04766e-11
1.36156e-10
3.86886e-10
2.09713e-11
1.79108e-11
5.25879e-11
1.87572e-13
2.7286e-12
2.66653e-12
4.09905e-11
2.96572e-11
4.2681e-11
6.24664e-11
6.32864e-11
1.45405e-11
4.84715e-11
5.95173e-11
1.36945e-11
1.4126e-11
3.21188e-13
4.66405e-13
6.51468e-12
1.81046e-11
5.2931e-12
1.86475e-11
2.31095e-11
3.26358e-12
1.3291e-12
1.75282e-12
1.66311e-13
5.43807e-12
2.53334e-11
1.8223e-11
1.87456e-11
3.57245e-11
3.23393e-11
1.95257e-11
9.33859e-12
1.5537e-11
9.00957e-12
4.91307e-12
3.11418e-14
1.18702e-12
2.1762e-12
6.44546e-12
7.65635e-12
3.95042e-12
4.996e-15
8.25423e-13
1.29807e-12
1.53808e-12
8.39723e-09
6.70619e-09
3.93804e-09
4.22058e-09
2.45758e-09
3.41606e-09
7.1085e-10
5.03489e-10
1.50893e-10
4.56e-11
4.30234e-11
3.41869e-11
1.53373e-10
2.02266e-10
2.57024e-09
3.91814e-10
1.67049e-09
1.13544e-09
8.5448e-10
9.89697e-11
8.67759e-10
4.09641e-10
2.10747e-11
8.62285e-10
1.21111e-09
4.40935e-10
6.7593e-10
3.59846e-09
4.74057e-09
2.61124e-09
1.47728e-09
1.21841e-09
8.7008e-10
1.22681e-09
5.77316e-15
5.43845e-11
2.29706e-10
6.93345e-10
5.75705e-10
8.41593e-10
9.20698e-10
9.88853e-10
1.31924e-09
1.27419e-09
1.01426e-09
8.25152e-10
7.86629e-10
1.09988e-09
1.23322e-09
8.05949e-10
5.50529e-10
4.26111e-10
4.57587e-10
2.96898e-10
1.6381e-10
9.05511e-11
6.68945e-11
1.31894e-13
2.92695e-11
1.9984e-12
2.2625e-11
1.68375e-10
3.69691e-11
2.44354e-10
6.37028e-10
8.73041e-10
1.58315e-10
8.64559e-10
1.38871e-09
2.2613e-10
1.06904e-09
1.66188e-09
6.9075e-10
1.42783e-09
3.04658e-09
1.93972e-09
1.131e-09
5.63842e-10
1.75773e-10
5.77398e-11
6.14743e-10
2.21976e-10
5.64338e-10
6.85104e-10
2.33302e-10
2.43905e-10
1.33788e-10
2.79261e-11
5.72731e-12
4.52849e-12
1.98507e-11
1.76903e-11
4.81359e-11
2.20305e-11
7.3098e-11
8.12554e-11
2.26956e-11
1.22665e-10
1.18887e-10
2.46972e-11
1.47011e-11
1.10332e-11
3.2252e-12
2.22006e-12
2.40086e-13
2.85616e-12
1.00651e-11
7.18189e-12
7.53259e-12
6.87256e-13
8.93813e-13
5.82451e-12
6.06987e-12
2.51258e-11
4.70423e-11
1.59477e-11
2.52262e-11
2.97859e-11
2.84046e-11
5.84341e-12
9.89991e-12
1.43408e-11
1.68143e-13
1.32561e-13
7.87648e-13
5.17086e-14
1.94109e-12
3.8608e-14
9.80604e-14
2.06971e-12
2.40635e-12
8.04079e-14
1.73306e-13
2.21765e-08
2.02401e-08
6.77997e-09
4.25918e-09
8.49613e-09
1.23306e-08
5.18746e-09
3.31392e-09
4.31381e-09
7.11369e-09
6.78472e-09
3.22095e-09
1.76801e-09
1.6038e-09
5.06007e-09
1.39668e-09
6.85866e-10
3.3347e-10
3.43524e-09
3.34337e-09
6.82244e-10
6.52811e-12
6.52807e-11
1.88776e-10
2.73458e-10
2.42235e-10
5.74351e-10
1.63195e-10
1.28039e-10
1.05113e-10
1.98314e-10
1.35739e-10
1.23893e-10
1.21672e-11
3.55404e-10
3.52208e-10
1.70836e-09
3.66995e-09
3.37288e-09
1.45035e-09
1.23088e-09
2.89301e-09
4.45701e-09
4.61637e-09
3.44031e-09
1.92251e-09
2.01173e-09
3.78089e-09
4.43663e-09
2.93159e-09
1.25655e-09
1.61446e-09
2.14018e-09
2.14114e-09
6.33571e-10
2.5217e-10
4.48087e-10
2.59188e-10
7.61435e-12
2.36393e-11
2.86737e-10
9.14362e-11
4.15658e-10
1.13703e-09
1.81234e-09
7.6328e-10
9.67596e-10
1.78603e-09
9.8167e-10
6.28154e-10
1.13938e-09
9.14514e-10
5.20377e-10
4.7918e-10
3.31978e-10
5.54323e-10
7.13707e-12
1.33362e-10
2.13425e-10
1.09845e-12
3.65875e-11
2.64073e-10
5.40745e-12
7.96211e-11
3.27959e-10
8.84259e-12
7.9956e-12
4.48055e-11
1.72989e-12
4.37556e-12
2.58266e-12
4.09036e-11
2.27193e-11
3.59474e-11
3.92536e-11
4.38626e-11
1.12303e-11
3.32748e-11
4.22229e-11
1.18378e-11
1.4833e-11
2.51638e-12
9.71445e-15
2.217e-12
8.40589e-12
3.49165e-12
9.21019e-12
1.32433e-11
6.30218e-13
2.7367e-14
5.97569e-12
1.17842e-12
8.03127e-12
2.59785e-11
1.57981e-11
1.63406e-11
3.1961e-11
2.77225e-11
1.6821e-11
8.48241e-12
1.5503e-11
1.02793e-11
5.0748e-12
1.18489e-13
9.15379e-14
6.89421e-13
3.62504e-12
3.53745e-12
1.55556e-12
1.87655e-13
3.53606e-12
1.59095e-13
3.64903e-12
2.5782e-09
1.37258e-09
1.38008e-09
1.39383e-09
4.96218e-10
3.22398e-10
9.84102e-13
5.90932e-11
1.09737e-10
6.30003e-10
6.5531e-10
3.51899e-10
1.43059e-11
6.9635e-10
9.56533e-11
9.41691e-11
2.28156e-10
8.77431e-11
6.25739e-11
5.63518e-10
2.55831e-10
4.51961e-10
1.92809e-10
1.55713e-09
2.0914e-09
3.77987e-10
2.91235e-10
4.06515e-09
5.59007e-09
3.94157e-09
1.1205e-09
2.613e-09
3.64472e-09
3.21941e-09
4.0487e-10
5.37792e-12
1.49484e-10
1.41784e-11
5.74119e-12
1.2229e-10
2.43126e-10
1.6884e-10
2.4053e-10
2.10429e-10
2.09623e-10
2.34718e-10
2.24163e-10
2.86223e-10
2.91315e-10
1.91603e-10
1.73902e-10
9.367e-11
6.91922e-11
1.68048e-11
2.40301e-11
9.16911e-12
4.31744e-12
7.11222e-11
8.37108e-13
2.33413e-12
4.12279e-11
2.21337e-10
9.64784e-12
1.36012e-10
3.26429e-10
5.604e-10
3.73573e-11
4.46014e-10
8.60418e-10
6.24972e-11
5.73737e-10
9.16659e-10
3.3719e-10
8.8354e-10
2.11002e-09
1.08788e-09
9.22437e-10
8.43635e-10
2.22443e-10
1.48548e-13
2.61679e-10
6.21029e-11
3.82628e-10
4.85497e-10
1.10364e-10
1.94235e-10
1.07942e-10
1.39229e-11
6.95982e-12
1.19188e-12
1.43611e-11
5.53818e-12
2.82182e-11
8.58291e-12
3.68819e-11
5.08869e-11
1.03845e-11
8.17254e-11
7.93407e-11
2.18372e-11
1.97878e-11
1.18779e-11
1.74027e-13
7.66054e-15
4.88998e-13
4.44367e-13
2.26558e-12
9.41747e-13
2.98372e-12
2.25653e-14
1.17431e-12
7.10326e-12
3.05986e-12
1.21906e-11
3.22219e-11
1.01062e-11
1.58305e-11
1.87224e-11
1.86103e-11
4.26897e-12
9.98929e-12
1.35315e-11
9.49241e-15
1.04322e-12
1.68823e-12
5.35377e-13
4.58317e-12
1.58878e-12
4.80366e-13
1.13415e-12
1.13412e-12
7.8762e-13
2.01839e-13
1.81922e-09
1.08855e-09
7.50561e-10
6.47447e-10
7.86774e-10
5.81386e-10
3.43008e-10
6.12026e-11
1.20299e-10
2.04424e-10
1.43787e-10
1.93108e-11
5.27756e-12
7.15747e-11
1.90799e-10
1.05504e-10
1.19216e-10
4.84114e-10
1.05765e-09
6.64235e-10
1.27304e-09
7.4243e-10
1.50667e-09
1.46591e-09
6.92852e-10
6.89985e-10
3.07782e-10
2.22263e-10
9.0659e-11
9.65406e-12
9.30891e-11
4.0572e-11
4.60783e-11
1.89533e-11
5.88365e-11
1.62429e-10
7.31859e-13
8.39062e-12
6.20526e-12
6.47971e-12
9.38094e-12
1.47633e-11
1.05542e-11
4.27614e-12
1.34825e-12
2.76223e-13
1.4504e-12
7.14229e-12
6.75682e-12
9.87477e-12
2.70806e-12
1.69007e-11
4.41278e-11
1.39364e-11
2.42331e-11
3.93476e-11
9.59086e-11
1.98859e-11
6.29141e-11
9.87095e-11
1.85248e-10
2.04035e-11
1.26479e-10
2.28219e-10
1.97274e-10
8.21987e-12
1.55158e-10
1.24263e-10
2.90878e-13
5.37096e-11
2.96732e-11
3.06505e-12
6.87006e-12
1.95188e-12
3.85776e-11
1.70934e-11
9.18169e-11
9.63496e-12
6.05475e-11
7.1132e-12
7.7546e-11
1.66445e-12
1.09683e-10
1.14597e-10
1.33116e-13
8.02395e-11
6.7676e-11
4.67409e-12
4.16387e-11
3.64936e-11
7.42501e-12
2.41647e-11
4.83219e-12
5.6945e-12
1.80278e-12
1.0851e-12
2.7589e-14
1.73686e-12
7.15261e-13
2.30094e-13
1.11022e-16
2.68618e-13
1.08091e-12
5.90639e-14
3.39062e-13
4.95715e-14
2.03559e-13
2.57017e-14
2.85283e-12
5.57077e-12
1.09653e-11
2.24207e-12
6.17409e-12
1.10973e-11
1.09429e-12
1.631e-12
1.12013e-12
4.08812e-13
3.13638e-15
6.03406e-14
7.46903e-14
1.1266e-13
1.075e-12
3.64153e-14
2.77556e-16
2.75335e-14
1.93784e-12
3.68677e-13
2.11497e-14
8.81212e-13
8.03344e-12
5.51698e-13
5.34045e-12
1.05839e-08
1.00586e-08
8.13738e-10
1.37141e-09
3.02987e-09
5.04071e-09
3.9942e-10
4.56638e-10
6.66694e-10
1.06606e-09
1.22007e-09
2.82003e-10
5.41434e-12
7.00826e-11
2.07136e-10
8.57581e-11
2.29707e-10
3.82567e-10
7.18092e-12
4.13394e-11
1.31203e-10
9.95005e-10
5.40687e-10
3.07318e-10
3.61773e-11
1.24786e-09
1.40461e-09
9.61943e-10
7.17764e-10
6.99902e-10
8.0754e-10
5.2503e-10
2.93784e-10
3.46744e-10
3.22329e-11
6.22529e-11
5.29345e-11
4.33976e-10
3.15544e-10
4.79852e-11
2.40238e-10
7.28583e-10
1.23378e-09
1.492e-09
8.95133e-10
6.46693e-10
8.02983e-10
1.44839e-09
1.82404e-09
1.13842e-09
4.06081e-10
5.37866e-10
6.55502e-10
7.69665e-10
1.26624e-10
8.39506e-12
2.60676e-11
2.35563e-11
5.16476e-11
1.81898e-10
6.41308e-10
2.06426e-10
5.31328e-10
1.08609e-09
1.48224e-09
4.49133e-10
7.45725e-10
1.10661e-09
4.32242e-10
3.42869e-10
5.3493e-10
3.28146e-10
2.09235e-10
1.74262e-10
5.67184e-11
1.94089e-10
1.43685e-12
1.02731e-10
4.13556e-10
1.13709e-12
9.35363e-13
2.35286e-11
2.59825e-12
6.80023e-12
1.66513e-10
8.04357e-13
5.0826e-13
2.41671e-11
9.52299e-12
8.21565e-12
1.31961e-12
2.90997e-11
6.10872e-12
1.77023e-11
8.36692e-12
1.11198e-11
2.06679e-12
7.98586e-12
1.21465e-11
6.41634e-12
1.03711e-11
5.05512e-12
1.08052e-12
1.58762e-14
6.66911e-13
1.06187e-12
1.51662e-12
2.87681e-12
7.79932e-13
3.45091e-12
1.41235e-11
2.57186e-12
1.18534e-11
1.90577e-11
6.61401e-12
8.88814e-12
1.32573e-11
1.13804e-11
6.85407e-12
5.13389e-12
1.12214e-11
7.60669e-12
3.86427e-12
8.06799e-13
6.25167e-13
1.66533e-16
1.14425e-12
2.76473e-13
6.71685e-15
1.83495e-12
8.83282e-12
3.02286e-13
7.12148e-12
3.35963e-09
2.04179e-09
2.03702e-09
9.98989e-10
6.98934e-11
1.74945e-11
2.68127e-10
3.0672e-10
1.22232e-09
3.88897e-09
4.45329e-09
2.93684e-09
3.01343e-09
3.65549e-09
3.08978e-09
4.85177e-09
1.04008e-09
7.0044e-10
1.03425e-09
5.81289e-09
3.15091e-10
5.20823e-10
2.07802e-09
6.50847e-09
7.49462e-09
1.5624e-09
1.82536e-09
9.41995e-09
1.41823e-08
1.04654e-08
6.72562e-09
8.46114e-09
1.42527e-08
1.23368e-08
6.74437e-09
3.46894e-09
3.34866e-09
2.61365e-09
1.21116e-09
2.06433e-10
4.37339e-11
1.27596e-11
1.87055e-11
8.68328e-12
3.68283e-12
8.33555e-12
1.43938e-11
8.31157e-12
4.71179e-12
5.67546e-12
1.92055e-11
6.20837e-13
9.20064e-12
5.8253e-11
7.90434e-12
2.15299e-11
9.74181e-11
4.31049e-10
4.89084e-11
8.23972e-11
2.81219e-10
7.27095e-10
1.04914e-10
2.85133e-10
5.92119e-10
9.18521e-10
7.39644e-11
4.56443e-10
9.61082e-10
7.43758e-11
4.47613e-10
7.79121e-10
2.12806e-10
5.93359e-10
1.98973e-09
1.01627e-09
1.58045e-09
2.22198e-09
6.45697e-10
1.86316e-10
1.32495e-11
3.73712e-12
2.62659e-10
4.82816e-10
1.09386e-10
2.42607e-10
1.49414e-10
1.62116e-11
1.57082e-11
2.77556e-16
1.32413e-11
1.34959e-12
2.63712e-11
4.12753e-12
2.48846e-11
3.15828e-11
6.35594e-12
4.7013e-11
4.7662e-11
1.62884e-11
3.80166e-11
2.07095e-11
4.94804e-12
5.68273e-12
4.72677e-12
2.07057e-13
1.60427e-14
2.28095e-13
7.66887e-13
1.29369e-13
2.50236e-12
1.34901e-11
2.16394e-12
1.26982e-11
3.57617e-11
8.47045e-12
1.48403e-11
1.78233e-11
1.84215e-11
4.38602e-12
1.29591e-11
1.74191e-11
3.42809e-13
5.02476e-12
4.88673e-12
3.0409e-12
9.11468e-12
6.65729e-12
3.37111e-12
6.3366e-14
2.30371e-13
3.3728e-12
7.15428e-13
1.08831e-08
1.20849e-08
1.5323e-09
4.81505e-10
1.54568e-09
3.79367e-09
2.26293e-10
1.5385e-11
2.26068e-11
5.65263e-11
1.44287e-10
3.23102e-11
2.73777e-10
1.247e-09
5.15349e-10
1.31066e-09
1.15841e-09
1.59426e-09
8.99981e-10
2.16077e-09
1.21972e-09
2.50841e-09
2.81896e-09
2.75415e-09
1.33101e-09
3.72437e-09
3.79239e-09
3.95125e-09
3.35311e-09
3.06781e-09
2.85851e-09
2.25269e-09
2.2788e-09
2.5169e-09
9.00788e-10
5.57194e-10
2.10282e-10
1.57723e-11
3.41682e-12
4.96181e-12
2.35341e-11
2.52525e-10
3.81658e-10
7.65054e-10
4.16305e-10
4.55796e-10
4.85298e-10
1.03254e-09
1.33729e-09
8.10858e-10
3.05795e-10
3.21074e-10
3.83217e-10
4.9231e-10
3.99698e-11
3.72102e-12
4.5044e-12
1.63722e-11
1.66252e-10
3.9269e-10
1.13044e-09
4.66772e-10
8.68461e-10
1.61239e-09
2.06332e-09
7.18157e-10
9.66387e-10
1.38126e-09