/*--------------------------------*- C++ -*----------------------------------*\
| =========                 |                                                 |
| \\      /  F ield         | OpenFOAM: The Open Source CFD Toolbox           |
|  \\    /   O peration     | Version:  v2012                                 |
|   \\  /    A nd           | Website:  www.openfoam.com                      |
|    \\/     M anipulation  |                                                 |
\*---------------------------------------------------------------------------*/
FoamFile
{
    version     2.0;
    format      ascii;
    class       volScalarField;
    location    "1e-06";
    object      nut;
}
// * * * * * * * * * * * * * * * * * * * * * * * * * * * * * * * * * * * * * //

dimensions      [0 2 -1 0 0 0 0];


internalField   nonuniform List<scalar> 
10098
(
0.00246193
0.00246527
0.00249221
0.00251948
0.0025347
0.00253597
0.0025595
0.00258911
0.00260775
0.0026244
0.00262719
0.00265071
0.00267658
0.00269085
0.00270816
0.00271236
0.00273815
0.00276088
0.00278142
0.00278519
0.00281264
0.00284812
0.00287582
0.0029058
0.00291185
0.00295018
0.00298941
0.00301433
0.00301695
0.0030437
0.00307667
0.00308683
0.00308691
0.00308423
0.00308996
0.00310245
0.00307713
0.00306204
0.00305821
0.00306165
0.0030666
0.00304939
0.00304257
0.00303811
0.00304642
0.00306986
0.00307886
0.00307517
0.00307038
0.00308312
0.00311052
0.00311664
0.00311239
0.00311029
0.0031129
0.00309276
0.00304431
0.00303378
0.00299296
0.00293076
0.00285645
0.00284291
0.00277454
0.00267654
0.00258877
0.00257112
0.00248168
0.00239502
0.00238192
0.00251952
0.00252148
0.00254029
0.00256335
0.00258376
0.00258664
0.00260502
0.00262684
0.002647
0.0026656
0.00266804
0.00268579
0.00270641
0.0027241
0.00274148
0.00274416
0.00276413
0.00278662
0.00280973
0.00281419
0.00283908
0.00287248
0.00290367
0.00293817
0.00294465
0.00298229
0.00302437
0.00306244
0.00306912
0.003101
0.00313338
0.00315823
0.00317482
0.00317454
0.00318119
0.00318815
0.00318622
0.00318191
0.00317637
0.00316872
0.00316942
0.00316911
0.00317029
0.0031666
0.00316891
0.00317654
0.00318999
0.00320021
0.00319823
0.00320391
0.00321152
0.00322731
0.00322892
0.00322522
0.00321115
0.00318571
0.00314437
0.00313291
0.00307563
0.00300715
0.00293227
0.00291627
0.00282704
0.00272711
0.00263077
0.00260908
0.00250446
0.00241176
0.0023971
0.00252399
0.00252717
0.0025515
0.00257558
0.00258913
0.00259036
0.00261125
0.00263728
0.00265399
0.00266909
0.00267176
0.00269254
0.00271481
0.00272808
0.00274394
0.00274779
0.00277047
0.00279166
0.0028123
0.00281645
0.0028429
0.00287656
0.00290716
0.00294044
0.00294746
0.00298842
0.00303226
0.00306666
0.00307207
0.00310697
0.0031478
0.00316943
0.00318048
0.00318025
0.00319478
0.00321433
0.00319735
0.00318785
0.00318535
0.00319274
0.00319974
0.00318451
0.00317853
0.00317433
0.003183
0.00320604
0.0032141
0.00320938
0.00320432
0.00321574
0.00324061
0.00324296
0.00323478
0.00323196
0.00322993
0.003204
0.00314955
0.00313787
0.00309021
0.00301936
0.00293533
0.00292016
0.00284086
0.00273108
0.00263203
0.00261198
0.00250935
0.00241235
0.00239765
0.00257335
0.00257532
0.00259254
0.00261273
0.00263023
0.0026327
0.00264874
0.00266779
0.00268511
0.00270118
0.00270348
0.00271908
0.00273668
0.00275159
0.00276673
0.00276938
0.0027874
0.0028075
0.00282895
0.00283352
0.00285768
0.00289017
0.00292173
0.0029578
0.00296534
0.00300652
0.00305321
0.00309788
0.00310683
0.00314746
0.00319041
0.0032257
0.00325298
0.00325544
0.00327308
0.00328986
0.00329574
0.00329791
0.00329414
0.00329267
0.0032964
0.00329784
0.00330015
0.00329681
0.00330002
0.00330832
0.00332064
0.00332929
0.003327
0.00333151
0.00333728
0.00334878
0.00334602
0.00334158
0.00332348
0.0032924
0.00324468
0.00323209
0.00316874
0.00309178
0.00177768
0.00298942
0.00289002
0.0027775
0.00266938
0.00264535
0.00252764
0.00242316
0.0024068
0.00257707
0.00258017
0.00260219
0.00262327
0.00263471
0.00263576
0.00265391
0.00267649
0.00269072
0.00270393
0.0027064
0.00272424
0.00274275
0.00275444
0.00276849
0.00277192
0.00279127
0.00281047
0.00283055
0.00283493
0.00285977
0.00289095
0.00292348
0.00295912
0.00296687
0.00300955
0.00305723
0.00310054
0.00310868
0.00315157
0.00320063
0.0032344
0.00325752
0.00326005
0.00328476
0.00331356
0.00330577
0.00330319
0.00330239
0.00331543
0.00332584
0.00331263
0.00330796
0.00330416
0.00331377
0.00333754
0.00334432
0.00333811
0.00333274
0.00334307
0.0033664
0.00336402
0.0033515
0.003348
0.00334178
0.00331024
0.00324953
0.00323676
0.00318293
0.00310363
0.00307637
0.00299305
0.00290335
0.0027812
0.00267045
0.00264793
0.00253159
0.00242353
0.00240712
0.0023136
0.00145372
0.00148067
0.00167338
0.00177322
0.00155085
0.00151314
0.00164738
0.00199872
0.00179371
0.00163288
0.00164902
0.001863
0.00205851
0.00172397
0.00162177
0.0016888
0.00197636
0.00184925
0.00165503
0.0016409
0.00177194
0.00210738
0.00179791
0.00172132
0.00178733
0.00208342
0.00220299
0.00194842
0.00192015
0.00206795
0.00249587
0.00223515
0.00210434
0.00212292
0.00229341
0.00265322
0.00223349
0.00218117
0.00226554
0.00257599
0.00274191
0.00244483
0.00234512
0.00235131
0.00245687
0.00283376
0.00265096
0.00233705
0.00226873
0.00233389
0.00276947
0.00238717
0.00216209
0.00216218
0.00240394
0.00238381
0.00202615
0.00200764
0.00221645
0.00211226
0.00307936
0.00182383
0.00216016
0.00175359
0.00157624
0.00164381
0.00176163
0.00136867
0.00134878
0.00152674
0.00265611
0.0026573
0.00266711
0.00268176
0.00269788
0.00270063
0.00271009
0.00271918
0.00273374
0.002746
0.00274767
0.00275664
0.00276661
0.0027772
0.00278734
0.00278944
0.00280212
0.00281733
0.00283444
0.00283883
0.00286044
0.00288887
0.0029192
0.00295483
0.00296382
0.00300928
0.00306137
0.00311545
0.00312843
0.00318399
0.00324249
0.0033011
0.00335374
0.00336264
0.00340102
0.0034314
0.00346806
0.00349161
0.00349045
0.00349221
0.00350121
0.00351948
0.00353251
0.00353154
0.00353267
0.00352664
0.00354542
0.00356394
0.00356476
0.00356208
0.00354467
0.00356304
0.00356062
0.00355423
0.00351729
0.00347617
0.00342807
0.00341378
0.00333041
0.00323941
0.00314378
0.00312215
0.00299278
0.0028634
0.00273247
0.00270238
0.00255655
0.00242926
0.00240934
0.00217375
0.00265911
0.00266095
0.00267456
0.00268924
0.00270129
0.00270291
0.00271367
0.00272589
0.00273729
0.0027478
0.00274947
0.00275935
0.00276955
0.00277835
0.00278815
0.0027902
0.00280259
0.00281704
0.0028345
0.002839
0.00285977
0.00288805
0.00291805
0.00295455
0.00296327
0.00300733
0.00305969
0.00311531
0.00312859
0.0031845
0.003247
0.00330482
0.00335627
0.00336507
0.00340838
0.00344905
0.00347626
0.00349603
0.00349699
0.00351247
0.00352548
0.00353347
0.00354013
0.00353803
0.00354514
0.00355588
0.00356731
0.00357295
0.00357
0.00357276
0.00357446
0.00357802
0.00356601
0.00356016
0.00353477
0.00349299
0.00343287
0.00341813
0.00334401
0.00325087
0.00314675
0.00312556
0.00300573
0.00286674
0.00273352
0.00270443
0.00255874
0.00242079
0.00239326
0.00209652
0.0026884
0.00268954
0.00269853
0.00271084
0.00272309
0.00272509
0.00273233
0.00273969
0.0027496
0.00275803
0.00275924
0.00276559
0.00277214
0.00277784
0.00278419
0.00278618
0.00279671
0.00280837
0.00282232
0.00282645
0.00284657
0.0028733
0.00290086
0.00293473
0.00294409
0.00299034
0.00304358
0.00309962
0.00311375
0.00317579
0.00324544
0.00331266
0.00337583
0.00338805
0.00344183
0.00348991
0.00353495
0.0035687
0.00357084
0.00358573
0.00360257
0.00362263
0.00363849
0.00363835
0.00364304
0.00364295
0.00365955
0.00367548
0.00367576
0.00367283
0.00365833
0.00366882
0.00366129
0.00365424
0.00361513
0.00356934
0.00351461
0.00349934
0.00341189
0.00331327
0.00320777
0.00318436
0.00304638
0.00290197
0.00275808
0.00272555
0.00256592
0.00242495
0.00234728
0.00208071
0.00269118
0.0026851
0.00268235
0.00271682
0.00272608
0.00272718
0.00273539
0.00274429
0.00275226
0.00275947
0.00276069
0.00276716
0.00277316
0.00277815
0.00278464
0.00278616
0.00279505
0.00280632
0.00282168
0.00282606
0.00284453
0.00287001
0.00289829
0.00293381
0.00294259
0.00298577
0.00303871
0.00309803
0.00311307
0.00317445
0.00324481
0.00331326
0.00337718
0.00338941
0.00344669
0.00350165
0.00354173
0.00357256
0.00357671
0.00360343
0.00362329
0.00363582
0.00364586
0.00364474
0.00365538
0.00366883
0.00368046
0.00368443
0.00368107
0.00368366
0.00368429
0.00368364
0.00366672
0.00366028
0.00363221
0.00358572
0.00351947
0.00350376
0.00342535
0.00332463
0.00321066
0.00318783
0.00305803
0.00290514
0.00275906
0.00272736
0.00252198
0.00237436
0.00235436
0.00203498
0.00271557
0.00271662
0.00272456
0.00273434
0.00274314
0.00274443
0.00274941
0.00275445
0.00276006
0.00276464
0.00276528
0.00276831
0.00277051
0.00277116
0.0027734
0.002775
0.00278225
0.00279047
0.00280144
0.00280528
0.00282333
0.00284724
0.00287243
0.00290413
0.00291357
0.00295882
0.00301161
0.00306882
0.00308391
0.00315044
0.00322803
0.00330379
0.00337749
0.00339305
0.00346239
0.00352834
0.0035843
0.00362982
0.00363574
0.00366552
0.00369142
0.00371487
0.00373462
0.00373561
0.00374505
0.00375162
0.00376684
0.00378052
0.00378032
0.00377759
0.00376628
0.00376919
0.00375658
0.00374896
0.00370825
0.00365815
0.00359695
0.00358074
0.00348976
0.00338373
0.00326818
0.00324309
0.00309635
0.0029367
0.00277977
0.00274473
0.00248532
0.00237868
0.00227981
0.00200665
0.00271799
0.00271963
0.00272968
0.00273908
0.0027456
0.0027462
0.0027519
0.00275744
0.00276191
0.00276566
0.0027663
0.00276886
0.00276998
0.0027706
0.00277344
0.0027741
0.00270443
0.00270723
0.00274434
0.00280429
0.00280114
0.00284181
0.00286839
0.00290255
0.00291108
0.00295191
0.00300382
0.00306576
0.00308231
0.00314713
0.00322281
0.00330097
0.00337742
0.00339306
0.00346416
0.00353435
0.00358916
0.00363284
0.00364051
0.00368001
0.00370845
0.00372679
0.00374139
0.00374159
0.00375685
0.00377401
0.00378656
0.00378916
0.00378545
0.00378831
0.00378869
0.00378358
0.0037618
0.00375488
0.00372467
0.00367394
0.00360165
0.00358509
0.00350284
0.00339481
0.00327096
0.00324649
0.00310663
0.00293965
0.00278063
0.00274628
0.00246718
0.00234178
0.00232079
0.00197897
0.00273833
0.00273929
0.00274599
0.00275327
0.00275897
0.00275961
0.00276243
0.00276473
0.00276646
0.00276727
0.00276723
0.00276643
0.00276332
0.00275884
0.0027566
0.00275749
0.0027422
0.00272721
0.00277276
0.00277628
0.00279144
0.00281171
0.00283461
0.00286401
0.00287329
0.00291607
0.00296714
0.00302463
0.00304047
0.00310927
0.00319135
0.00327493
0.00335869
0.00337756
0.00346166
0.00354512
0.00361444
0.00367319
0.00368331
0.0037293
0.00376549
0.00379437
0.00381931
0.0038218
0.00383728
0.00385105
0.00386621
0.00387821
0.00387756
0.00387571
0.00386744
0.0038636
0.00384603
0.00383796
0.00379628
0.0037422
0.00367468
0.00365761
0.00356362
0.00345036
0.0033247
0.00329798
0.00314226
0.0029676
0.00279764
0.00275997
0.00241761
0.00233683
0.00222763
0.00192645
0.00274044
0.00274192
0.00275023
0.00275717
0.00276101
0.00276111
0.00276443
0.00276679
0.0027677
0.00276798
0.00276792
0.0027663
0.00276169
0.00275764
0.00275632
0.00275594
0.00260886
0.00275971
0.0027707
0.00277467
0.00267451
0.00280375
0.00282912
0.00286178
0.0028698
0.00290693
0.00295635
0.00302021
0.003038
0.00310401
0.00318164
0.00326865
0.00335717
0.00337607
0.00346001
0.00354531
0.00361706
0.00367529
0.00368673
0.00374019
0.00377905
0.00380465
0.00382531
0.00382722
0.00384823
0.00387064
0.00388464
0.00388641
0.00388246
0.00388613
0.00388753
0.00387742
0.00385104
0.00384375
0.00381192
0.00375742
0.00367924
0.00366185
0.00357616
0.00346104
0.00332736
0.00330127
0.00315137
0.00297032
0.00279835
0.00276119
0.00243395
0.0023196
0.00228844
0.00192837
0.00275767
0.00275847
0.00276389
0.00276879
0.00277182
0.00277184
0.00277262
0.00277215
0.00277043
0.00276773
0.00276695
0.00276217
0.00275326
0.00274373
0.00273673
0.00273649
0.00273365
0.00261749
0.00273751
0.00274054
0.00275169
0.00264789
0.00278799
0.00281504
0.0028239
0.00286308
0.00291153
0.00296857
0.00298505
0.00305412
0.00313785
0.00322774
0.00332062
0.00334249
0.0034394
0.00353948
0.0036239
0.00369748
0.00371204
0.00377493
0.00382265
0.00385937
0.003891
0.00389539
0.00391826
0.00393943
0.00395631
0.00396766
0.00396667
0.0039664
0.00396065
0.00395149
0.00392937
0.00392098
0.00387878
0.003821
0.00374745
0.00372957
0.0036329
0.00351266
0.00337695
0.0033486
0.0031837
0.00299456
0.00281138
0.0027046
0.00236544
0.00230511
0.00217534
0.00183678
0.00275941
0.00276069
0.00276749
0.00277223
0.00277347
0.00277305
0.00277423
0.00277387
0.00277132
0.00276819
0.00276741
0.00276173
0.00275121
0.00274231
0.00273624
0.00273456
0.00253378
0.00272695
0.00273486
0.00273839
0.00251575
0.00272733
0.00278117
0.00281229
0.00281949
0.00285159
0.00289718
0.00296296
0.00298175
0.00304708
0.00312294
0.00321824
0.00331774
0.0033395
0.00343415
0.00353257
0.00362393
0.00369847
0.00371375
0.00378179
0.00383274
0.0038675
0.00389597
0.00389996
0.0039279
0.00395726
0.0039734
0.0039751
0.00397123
0.00397623
0.00398025
0.00396447
0.00393398
0.00392646
0.0038936
0.00383561
0.00375168
0.00373362
0.00364477
0.00352278
0.00337937
0.0033517
0.00319207
0.00299696
0.0028119
0.00277173
0.002453
0.00235295
0.00227607
0.00190119
0.00150453
0.0015485
0.00173228
0.00181151
0.0016303
0.00158363
0.00172705
0.00197424
0.00184202
0.00165272
0.00166249
0.00184345
0.00190293
0.00160574
0.0014458
0.00149638
0.00164196
0.00153939
0.00136928
0.00135016
0.00145339
0.00164203
0.00149439
0.00144059
0.00150927
0.00175836
0.0018465
0.00167923
0.0016579
0.00181839
0.00211292
0.00197545
0.00186714
0.00189797
0.00209925
0.00236048
0.00216179
0.00219873
0.00232677
0.00273121
0.0029345
0.00275462
0.00268339
0.00271515
0.00288395
0.0032357
0.0031259
0.00280554
0.00271978
0.00282324
0.00319477
0.00287687
0.00257757
0.00258602
0.00286437
0.0028252
0.00238293
0.00235677
0.00258479
0.00243968
0.00201059
0.00200638
0.00221938
0.00174009
0.00146885
0.00153488
0.00156194
0.00119572
0.00117781
0.0012536
0.00101706
0.00278921
0.00278919
0.00274228
0.0027917
0.00279203
0.00279159
0.00278851
0.00278319
0.00277701
0.00276925
0.00276715
0.00275638
0.00273982
0.00272062
0.00270236
0.00269959
0.00259698
0.00242154
0.00266099
0.00266084
0.00266354
0.00261097
0.00268123
0.00269815
0.00270691
0.00274529
0.00275656
0.00283554
0.00284959
0.00292047
0.00301274
0.00310294
0.00320136
0.00322693
0.00334557
0.00347174
0.00358244
0.00368558
0.00370947
0.00380493
0.00387558
0.0039349
0.0039864
0.00399627
0.00403385
0.00406258
0.00409066
0.00411174
0.00411381
0.00411443
0.00410126
0.00409438
0.00407219
0.00406305
0.00401172
0.00394812
0.00387247
0.00385354
0.00374461
0.003613
0.00346434
0.00343251
0.00324404
0.00303235
0.00279128
0.00272994
0.00235484
0.0021896
0.00214208
0.00177995
0.00179051
0.00183267
0.00151929
0.00155167
0.00199623
0.00201103
0.00208241
0.00213518
0.00212764
0.00184521
0.00225247
0.00226253
0.00220301
0.00245082
0.00246843
0.00255835
0.00258209
0.00258492
0.00253935
0.00245337
0.00243643
0.00232635
0.00231143
0.00221096
0.00219208
0.00189258
0.00154306
0.00211408
0.00224911
0.0016994
0.00214276
0.00218592
0.00208148
0.00202634
0.00201666
0.00175292
0.00211374
0.00212938
0.00213044
0.00232442
0.00237442
0.00238278
0.00239748
0.0023838
0.00238044
0.00235718
0.00215751
0.00219745
0.00207603
0.00190173
0.00194779
0.0020427
0.00174734
0.00201756
0.00201173
0.00198596
0.00204145
0.00215255
0.00217123
0.00196178
0.00238965
0.00240031
0.00245158
0.00279076
0.00279108
0.00279357
0.00279455
0.00279349
0.00279259
0.00278989
0.0027849
0.002778
0.00276973
0.00276761
0.00275648
0.00273899
0.0027199
0.00270209
0.00269825
0.00240144
0.0026656
0.0026578
0.00265848
0.00265615
0.00266126
0.00267232
0.00269408
0.00270116
0.00273042
0.00277207
0.00282765
0.00284545
0.00291112
0.0029939
0.0030894
0.00319579
0.0032218
0.0033346
0.00346027
0.00357728
0.00368398
0.00370747
0.00380461
0.00387874
0.00393836
0.00398912
0.00399875
0.00404005
0.00407688
0.00410338
0.00411796
0.00411732
0.00412244
0.00411951
0.00410559
0.00407636
0.00406775
0.00402485
0.00396058
0.00387635
0.00385702
0.00375504
0.00362154
0.00346653
0.00343513
0.00325129
0.00303381
0.00282334
0.00277665
0.00234635
0.00218986
0.00218654
0.00171006
0.00175914
0.00172333
0.00153224
0.00159097
0.00199501
0.00200657
0.00173447
0.00213477
0.00213177
0.00179629
0.00204313
0.00217396
0.00210918
0.00245119
0.00246994
0.00256192
0.00258242
0.00258624
0.00254013
0.00245357
0.00243612
0.00232547
0.00231132
0.00205013
0.00219137
0.00197452
0.00147171
0.00200604
0.00224861
0.00179064
0.00219795
0.00218723
0.0018161
0.00202715
0.002018
0.00169639
0.00211473
0.00205556
0.00208869
0.00232582
0.00237445
0.00238329
0.00239858
0.0023837
0.00238038
0.00235603
0.0021642
0.00204585
0.00194476
0.00169379
0.00189891
0.00207496
0.00184552
0.00201935
0.00201229
0.00177014
0.00204642
0.00212314
0.00216192
0.00187239
0.00239031
0.00240054
0.00245297
0.00280402
0.00280374
0.00280402
0.00280372
0.00280192
0.00280102
0.00279661
0.00279016
0.0027817
0.00277192
0.00276937
0.00275648
0.00273754
0.00271509
0.00269225
0.00265248
0.00266471
0.00238678
0.00262429
0.00262226
0.00261499
0.00261328
0.00261742
0.00263004
0.00263771
0.00266921
0.0027081
0.00275527
0.00276994
0.00283839
0.00292551
0.00301983
0.00312186
0.00314867
0.0032711
0.00340399
0.00352978
0.00364762
0.00367633
0.00379056
0.00387643
0.00394749
0.00400978
0.00402275
0.00407201
0.00411381
0.00414674
0.00416964
0.00417198
0.00417711
0.00417131
0.0041593
0.00413374
0.00412461
0.00407472
0.00400831
0.00392656
0.00390695
0.00379661
0.00365855
0.00350013
0.00346687
0.00327081
0.00304323
0.00281961
0.00271136
0.0023089
0.00217528
0.0020592
0.00169049
0.00176504
0.00180584
0.00144124
0.00148412
0.00194667
0.00196258
0.00204982
0.00211951
0.0020895
0.00178473
0.00226367
0.00227558
0.0021344
0.00247206
0.0024907
0.00258063
0.00259825
0.00260055
0.00254555
0.00245005
0.00243114
0.00231177
0.00229656
0.00204897
0.00217277
0.0018007
0.00150871
0.00202403
0.00223414
0.00168856
0.00214724
0.00220684
0.00211912
0.0020688
0.00206011
0.00183777
0.00214256
0.00214994
0.00213917
0.0023451
0.00238694
0.00239398
0.00240138
0.0023805
0.00237634
0.00234906
0.0021867
0.00223054
0.00217593
0.00195524
0.00191893
0.00204673
0.00171688
0.00205435
0.00204858
0.0020248
0.00207896
0.0021858
0.00220398
0.0019385
0.00240928
0.00241856
0.00246335
0.00280557
0.00280568
0.00280696
0.00280642
0.00280336
0.00280201
0.00279797
0.0027917
0.00278274
0.00277241
0.00276987
0.00275687
0.0027376
0.00271491
0.0026922
0.0026867
0.00244059
0.00263782
0.00262139
0.00262002
0.00260772
0.00260178
0.00260773
0.00262548
0.002631
0.00265328
0.00269025
0.00274623
0.00276492
0.00282739
0.00290656
0.00300411
0.00311523
0.00314222
0.00324489
0.00338784
0.00352162
0.0036448
0.00367201
0.00378493
0.00387342
0.00394769
0.00401099
0.0040239
0.00407602
0.00412242
0.0041562
0.0041748
0.00417504
0.00418423
0.00418444
0.00416921
0.00413755
0.00412904
0.00408608
0.00401917
0.00393009
0.00391023
0.00380561
0.00366594
0.00350206
0.00346922
0.0032755
0.00304401
0.00281995
0.00276966
0.00234937
0.00218973
0.00216279
0.00169081
0.00173881
0.00169193
0.00147523
0.00152778
0.00194526
0.00195714
0.00168736
0.00211887
0.00212435
0.00180135
0.00205275
0.00219696
0.00211462
0.00247233
0.00249197
0.00258342
0.00259851
0.00260161
0.00254599
0.00245022
0.0024306
0.00231087
0.00229646
0.00206755
0.00212065
0.00203621
0.00151495
0.0020518
0.00223353
0.00180802
0.00221496
0.00220783
0.00183322
0.00206958
0.00206147
0.00180323
0.00215324
0.00216715
0.00218892
0.00234634
0.00238695
0.00239439
0.00240169
0.00238033
0.00237619
0.00234723
0.00229685
0.00213643
0.0020054
0.00174078
0.00195051
0.00213633
0.00181976
0.00205606
0.00204911
0.00179171
0.00208368
0.00218612
0.00220479
0.00196034
0.00240976
0.00241872
0.0024643
0.00281856
0.00281798
0.00281703
0.00281503
0.00281107
0.00280972
0.00280392
0.00279643
0.00278573
0.00277408
0.00277124
0.00275699
0.00273723
0.00271255
0.0026866
0.00267527
0.00264723
0.00238646
0.00259375
0.00258946
0.00257046
0.00205719
0.00255225
0.00255851
0.00256435
0.0025871
0.00240441
0.00266742
0.00268295
0.00274798
0.00283123
0.00292789
0.00303326
0.00306094
0.00318408
0.0031343
0.00345846
0.00358947
0.00362208
0.00375239
0.00385374
0.00393844
0.0040134
0.00403001
0.00409185
0.00414621
0.00418668
0.00421397
0.00421716
0.00422794
0.00422832
0.00421424
0.00418631
0.00417733
0.00412876
0.00405968
0.00397269
0.00395247
0.00384035
0.00369604
0.00352855
0.00349388
0.00328912
0.00304626
0.00280902
0.00267933
0.00224729
0.00215835
0.0020093
0.00164892
0.00175516
0.00177792
0.00138449
0.00141434
0.00189228
0.00190825
0.00200981
0.00209769
0.00206437
0.00174746
0.0022034
0.0022843
0.00210601
0.00248812
0.0025076
0.00259724
0.00260969
0.00261151
0.00254833
0.00244492
0.00242414
0.0022973
0.00228198
0.00203924
0.00215452
0.00178685
0.00149692
0.00203468
0.00221755
0.00170132
0.00215758
0.0022214
0.00215109
0.002107
0.00209955
0.00189589
0.00218812
0.00220131
0.00221551
0.00236279
0.00239655
0.00240224
0.00240183
0.00237384
0.00236887
0.00233744
0.00229572
0.00229351
0.00210629
0.00199645
0.00194368
0.0020901
0.00169626
0.00208667
0.00208112
0.00206011
0.002113
0.00221573
0.00223344
0.00194941
0.00242462
0.00243254
0.00247051
0.00281995
0.00281981
0.00281979
0.00280827
0.00281222
0.00281053
0.00280495
0.00279718
0.00278622
0.00277425
0.00277146
0.00275683
0.00273665
0.00271231
0.00268654
0.00267991
0.00251125
0.00261709
0.00259139
0.00258759
0.0023758
0.00210529
0.00254231
0.00255375
0.00255699
0.00256917
0.0024579
0.0026574
0.00267712
0.00273533
0.00280719
0.00290975
0.00302593
0.00305337
0.00313449
0.00320729
0.00344779
0.0035856
0.00361538
0.00374066
0.00384293
0.00393489
0.00401286
0.00402937
0.00409304
0.00414988
0.00419264
0.00421764
0.00421938
0.00423354
0.00423879
0.00422248
0.00418948
0.00418119
0.00413824
0.00406898
0.00397562
0.00395535
0.00384758
0.00370194
0.00353004
0.0034957
0.00329128
0.0030462
0.00280895
0.00275471
0.00238216
0.00225406
0.00215616
0.00171478
0.00181734
0.00170404
0.00143938
0.00148164
0.00189083
0.00190212
0.00164715
0.00209686
0.00211253
0.0018307
0.00214773
0.00228472
0.00218218
0.00248824
0.00250857
0.00259916
0.00260984
0.00261221
0.00254843
0.00244507
0.00242341
0.00229648
0.00228192
0.00214655
0.00214776
0.00215456
0.00159777
0.00217326
0.00221689
0.00183682
0.00222593
0.00222202
0.00187321
0.00210772
0.00210089
0.00194812
0.00218902
0.00220178
0.00228989
0.00236379
0.00239652
0.00240252
0.00240118
0.00237362
0.00236866
0.00233493
0.00231378
0.00230331
0.00211955
0.0018686
0.00204911
0.00222145
0.00181243
0.00208826
0.00208163
0.00180944
0.00211738
0.00221599
0.00223421
0.00211483
0.00242491
0.00243265
0.00247095
0.00152778
0.00157818
0.00173362
0.00180127
0.00164805
0.00160634
0.00175453
0.00195457
0.00187123
0.0016858
0.00170475
0.00190447
0.00196287
0.00170708
0.00153059
0.00157799
0.00164954
0.00150686
0.00128903
0.0012471
0.00126287
0.00131423
0.00117669
0.00109228
0.0011352
0.00128031
0.00135709
0.00129174
0.00128832
0.00145825
0.0017014
0.00168282
0.00164043
0.0016808
0.00188275
0.00207317
0.00192385
0.00193702
0.00206119
0.00239368
0.00262006
0.00258281
0.00260612
0.00268809
0.00295593
0.00329187
0.00325511
0.00298573
0.00290945
0.00305665
0.00338359
0.00312761
0.00281011
0.00283126
0.00312106
0.00307217
0.00259614
0.00256965
0.00280616
0.00263063
0.00212686
0.00211993
0.00229354
0.00182442
0.00150736
0.0015744
0.00153516
0.00115779
0.00113063
0.00114593
0.000964281
0.000907642
0.000918938
0.000902606
0.00102381
0.00111135
0.00107803
0.00119821
0.00124493
0.00126485
0.00126044
0.00136059
0.00152462
0.00152072
0.00164926
0.00191213
0.00163059
0.00170253
0.00189163
0.00142327
0.00148174
0.00134857
0.00128233
0.00137942
0.00121042
0.00112665
0.00126301
0.00143017
0.00170069
0.00146799
0.00157426
0.00167659
0.00156
0.00173358
0.00192214
0.00163779
0.00157459
0.00152947
0.00162345
0.00174073
0.00153091
0.00156363
0.0022451
0.00145997
0.00144937
0.00192116
0.00139053
0.00129782
0.00128697
0.00144666
0.00138864
0.00153239
0.00152316
0.00170408
0.00170093
0.00143854
0.00195401
0.00156918
0.0017191
0.00165093
0.00154012
0.00160218
0.00146153
0.00284248
0.00284083
0.00274147
0.00282764
0.00281854
0.00281634
0.00280618
0.00279438
0.00277885
0.00276222
0.00275915
0.00274326
0.00272327
0.00269737
0.00266988
0.00266398
0.00254587
0.00236625
0.00254854
0.00253977
0.00250232
0.0022621
0.00243542
0.00241619
0.00241785
0.00225656
0.00222748
0.0024752
0.00248673
0.00254954
0.00263808
0.00273229
0.00283666
0.00286565
0.00299903
0.0031453
0.00328802
0.00343072
0.00347007
0.00357229
0.00375285
0.00386157
0.00396071
0.00398477
0.00407344
0.00415117
0.00421135
0.00425429
0.00426164
0.00428496
0.00429236
0.00428346
0.00425746
0.00424898
0.00419825
0.00412551
0.00403401
0.00401293
0.0038928
0.00373779
0.00355578
0.00351822
0.00329396
0.00302466
0.00276002
0.00270395
0.00226204
0.00209246
0.0020267
0.0016776
0.0016861
0.00175663
0.00135388
0.00136147
0.00177662
0.00179517
0.00191875
0.00203654
0.00203426
0.00177933
0.0022419
0.00224061
0.0021288
0.00250736
0.0025273
0.00261415
0.00261961
0.00262021
0.0025453
0.00243005
0.00240706
0.00227001
0.00225373
0.00216065
0.00212065
0.00205781
0.00166437
0.00217546
0.00218225
0.00171228
0.00220867
0.00223264
0.00219585
0.00216936
0.00216455
0.00218129
0.00224957
0.00226096
0.00233006
0.00238798
0.00240611
0.00240879
0.00239248
0.00235017
0.00234371
0.00230769
0.0022846
0.00227888
0.00221762
0.00209906
0.00203114
0.00217253
0.00168154
0.00213646
0.00213278
0.00211755
0.00216664
0.00226465
0.00228106
0.00221987
0.00244284
0.00244824
0.0024724
0.00284354
0.00284214
0.00283616
0.00282814
0.00281829
0.0028163
0.00280527
0.0027927
0.00277629
0.00276073
0.00275759
0.00273975
0.0027194
0.0026948
0.00266906
0.00266197
0.00254714
0.00247181
0.00244116
0.00253814
0.00214064
0.00233244
0.00242575
0.00241079
0.00240994
0.00230085
0.00227467
0.0024619
0.00247956
0.00253318
0.00261097
0.0027097
0.00282645
0.0028561
0.00297895
0.00312205
0.00327343
0.00342404
0.00345992
0.00360956
0.00373636
0.00385106
0.00395588
0.00398067
0.00406861
0.00414781
0.0042102
0.00425472
0.00426193
0.00428696
0.0042979
0.00428778
0.00425936
0.00425119
0.00420386
0.00413059
0.00403576
0.00401458
0.00389645
0.00373989
0.00355635
0.00351869
0.00329229
0.00302198
0.00275984
0.00269963
0.00227093
0.00210211
0.00208976
0.0015979
0.00177968
0.00166516
0.00141726
0.0014645
0.00177486
0.00178811
0.00164653
0.00203514
0.0020571
0.0018163
0.00203045
0.00212962
0.00203403
0.00250727
0.00252777
0.00261489
0.00261967
0.00262043
0.00254481
0.00243028
0.00240608
0.00226905
0.00225368
0.00215777
0.00211997
0.00212029
0.00161465
0.0021749
0.00218152
0.00180014
0.00223145
0.00223263
0.00199355
0.00216992
0.0021656
0.00200906
0.00225038
0.00226135
0.00233283
0.00238869
0.00240604
0.0024088
0.00239038
0.00234974
0.00234335
0.00230399
0.0022834
0.00227866
0.00221815
0.00187981
0.00204651
0.00224613
0.00174447
0.00213767
0.00213312
0.00183778
0.0021703
0.0022648
0.00228161
0.00216217
0.00244291
0.00244824
0.00247197
0.00285012
0.00284779
0.00283798
0.00279982
0.00281188
0.00280886
0.00279465
0.00277892
0.00275884
0.00273892
0.00273573
0.00271762
0.00269707
0.00267203
0.0026467
0.00264156
0.00252105
0.00241536
0.00252381
0.0024013
0.00246869
0.00218506
0.00237615
0.00234396
0.00234131
0.00210285
0.0018912
0.00235909
0.00237117
0.00242535
0.00245557
0.00260388
0.00271514
0.00274611
0.00288061
0.00294633
0.00318072
0.00333056
0.00337081
0.00339716
0.00366684
0.00378882
0.00390139
0.0039297
0.00403162
0.00412349
0.00419656
0.00424934
0.00425909
0.00429163
0.00430828
0.00430114
0.00427556
0.00426771
0.00421936
0.0041449
0.004049
0.00402743
0.00390487
0.00374306
0.00355253
0.00351347
0.003279
0.00299564
0.0027196
0.00265979
0.00218367
0.00207335
0.00194098
0.00162685
0.00172548
0.0017122
0.00135436
0.00137383
0.00171663
0.00173321
0.00186236
0.00199697
0.00202293
0.00174123
0.00218447
0.00221413
0.0020184
0.00251163
0.00253195
0.00261693
0.00261896
0.00261916
0.00253985
0.00242071
0.00239633
0.00225543
0.0022392
0.00214336
0.00210341
0.00199051
0.00164771
0.00215698
0.00216372
0.00172012
0.00222734
0.00223074
0.00221121
0.00219386
0.00219083
0.00221347
0.00227525
0.00228559
0.0023485
0.00239651
0.00240618
0.00240735
0.00238174
0.00233343
0.00232633
0.00228675
0.0022656
0.00226293
0.00226329
0.00213049
0.00213378
0.00224485
0.00166645
0.00215533
0.00215231
0.00209829
0.00218995
0.00228317
0.0022991
0.00219913
0.00244606
0.00245019
0.00246773
0.00285071
0.00284854
0.00283768
0.0026687
0.0028102
0.00280806
0.00279167
0.00277216
0.00275272
0.0027358
0.00273241
0.00271
0.00268662
0.00266663
0.00264461
0.00263721
0.00260286
0.00254562
0.00252102
0.00251205
0.00216548
0.00222534
0.00236669
0.00233862
0.00233325
0.0021351
0.0019199
0.00234443
0.00236282
0.00240642
0.00247105
0.00257662
0.00270346
0.00273438
0.00285704
0.00298384
0.00316394
0.00332335
0.00335863
0.00350975
0.00364271
0.00377428
0.00389455
0.00392311
0.00402281
0.00411269
0.00418967
0.0042476
0.00425796
0.00429108
0.00430799
0.0043025
0.0042764
0.00426881
0.00422164
0.00414691
0.00404977
0.00402833
0.00390537
0.00374224
0.00355221
0.00351285
0.00327242
0.00299125
0.00271854
0.00265356
0.002342
0.00209449
0.0020555
0.0016703
0.00172068
0.00171026
0.00149057
0.00152352
0.00171493
0.00172585
0.00170127
0.00199538
0.00201905
0.00188421
0.0021716
0.00228512
0.00209711
0.00251144
0.00253216
0.0026169
0.00261893
0.00261899
0.00253906
0.00242086
0.00239509
0.00225446
0.00223915
0.00214028
0.00210273
0.00210306
0.00176282
0.00215641
0.00216296
0.00182963
0.00222717
0.00223036
0.00204212
0.00219434
0.00219181
0.00218768
0.00227595
0.00228594
0.00235088
0.00239695
0.00240607
0.00240718
0.00237856
0.00233296
0.00232588
0.00228235
0.00226424
0.00226264
0.00226206
0.00205833
0.00224896
0.00224475
0.0017551
0.00215636
0.00215261
0.0018873
0.00219314
0.00228323
0.00229955
0.00239532
0.00244589
0.00245012
0.00246676
0.00147737
0.00152234
0.001634
0.00167331
0.001544
0.00150536
0.00163242
0.00177472
0.00172062
0.00155954
0.00158872
0.00178563
0.00183041
0.00164682
0.00152203
0.00159368
0.00169735
0.00159709
0.00140426
0.00136012
0.00135026
0.00134827
0.00119209
0.00106281
0.00108721