/*--------------------------------*- C++ -*----------------------------------*\
| =========                 |                                                 |
| \\      /  F ield         | OpenFOAM: The Open Source CFD Toolbox           |
|  \\    /   O peration     | Version:  v2012                                 |
|   \\  /    A nd           | Website:  www.openfoam.com                      |
|    \\/     M anipulation  |                                                 |
\*---------------------------------------------------------------------------*/
FoamFile
{
    version     2.0;
    format      ascii;
    class       volScalarField;
    location    "1e-06";
    object      omega;
}
// * * * * * * * * * * * * * * * * * * * * * * * * * * * * * * * * * * * * * //

dimensions      [0 0 -1 0 0 0 0];


internalField   nonuniform List<scalar> 
10098
(
573.855
573.348
573.549
573.224
570.26
569.029
568.06
568.083
565.16
561.492
560.517
558.596
556.463
550.222
544.834
543.832
540.108
534.164
526.75
524.872
519.228
513.931
505.013
496.739
494.942
487.851
479.681
469.471
466.989
458.779
450.856
442.086
434.548
433.073
427.176
421.952
417.517
414.452
413.894
411.566
410.044
409.247
408.663
408.609
407.998
407.175
406.611
406.31
406.31
405.737
404.879
404.518
404.528
404.6
405.078
406.234
408.383
408.859
411.428
415.316
419.961
420.878
426.295
433.506
441.126
442.727
452.224
462.715
464.447
586.633
585.833
584.876
584.403
583.69
582.892
581.471
579.909
578.656
576.383
575.25
572.015
568.456
564.426
559.468
557.745
551.942
546.452
540.283
538.419
531.645
524.371
517.099
509.133
506.922
498.04
488.836
479.285
476.742
467.117
456.952
447.751
439.393
437.588
430.257
423.626
418.671
414.802
414.042
411.119
409.22
407.941
406.967
406.82
406.123
405.455
404.795
404.252
404.181
403.774
403.305
402.935
402.983
403.089
403.857
405.127
407.154
407.633
410.348
414.171
418.568
419.471
424.986
431.807
439.308
440.97
450.787
461.547
463.424
587.447
586.968
587.69
587.916
585.006
583.688
583.211
583.975
581.116
577.362
576.34
574.699
572.793
565.966
560.182
559.158
555.472
549.183
541.257
539.236
533.488
528.269
518.675
509.797
507.867
500.424
491.629
480.14
477.274
468.06
459.163
448.803
439.72
437.91
430.826
424.578
418.85
414.853
414.099
411.143
409.163
407.84
406.898
406.755
405.965
405.109
404.494
404.136
404.115
403.624
402.972
402.762
402.929
403.025
403.673
404.954
407.104
407.577
410.183
414.001
418.513
419.401
424.613
431.663
439.248
440.817
450.358
461.482
463.357
602.163
601.347
600.721
600.736
600.401
599.607
598.6
597.53
596.623
594.512
593.318
590.179
586.59
582.292
576.963
575.092
568.975
563.114
556.554
554.557
547.521
540.052
532.457
524.078
521.703
512.334
502.469
491.971
489.106
478.377
466.906
456.222
446.339
444.158
435.367
427.371
421.256
416.406
415.401
411.629
409.152
407.412
406.074
405.828
404.864
404.022
403.302
402.75
402.669
402.282
401.893
401.689
401.889
402.007
402.838
404.168
406.174
406.64
409.278
412.931
417.091
417.937
423.139
429.637
436.952
438.582
448.354
459.363
461.334
603.072
602.649
603.98
604.833
601.9
600.493
600.608
602.381
599.476
595.618
594.566
593.314
591.767
584.068
577.748
576.726
573.102
566.258
557.64
555.463
549.622
544.671
534.257
524.812
522.785
515.138
505.817
492.988
489.727
479.544
469.764
457.593
446.767
444.583
436.179
428.799
421.561
416.506
415.54
411.869
409.343
407.417
406.053
405.808
404.784
403.835
403.12
402.674
402.626
402.18
401.677
401.575
401.853
401.964
402.712
404.04
406.133
406.594
409.128
412.753
415.481
417.855
422.686
429.461
436.884
438.385
447.757
459.265
461.23
472.757
619.82
618.985
618.681
619.189
619.277
618.492
617.987
617.458
617.058
615.17
613.934
610.997
607.347
602.745
596.923
594.899
588.329
581.941
574.807
572.64
565.273
557.454
549.685
540.945
538.438
528.725
518.291
506.903
503.718
491.949
479.167
466.926
455.339
452.737
442.31
432.724
425.28
419.304
418.021
413.289
410.13
407.847
406.069
405.707
404.411
403.332
402.493
401.88
401.783
401.372
401.018
400.923
401.215
401.337
402.167
403.476
405.389
405.824
408.285
411.65
415.416
416.226
420.968
427.03
434.043
435.609
445.084
455.962
457.949
470.115
638.006
636.809
634.397
634.958
637.83
637.962
636.74
633.696
635.977
636.389
635.142
630.25
625.112
623.163
618.061
614.983
604.773
599.072
593.382
591.365
582.114
571.668
566.04
558.245
555.358
543.323
532.181
522.3
519.481
506.052
489.912
477.802
465.653
462.67
449.833
438.071
430.131
423.215
421.555
415.455
411.64
408.972
406.789
406.31
404.62
403.292
402.282
401.543
401.407
400.949
400.677
400.54
400.821
400.937
401.765
402.996
404.669
405.064
407.398
410.415
413.597
414.313
419
424.179
430.585
432.247
441.687
451.284
453.223
466.126
639.236
638.391
638.42
639.366
639.794
639.005
639.154
639.308
639.524
637.887
636.656
634.192
630.611
625.608
619.161
617.021
609.99
602.883
594.843
592.438
584.635
576.306
568.316
559.216
556.63
546.81
535.97
523.736
520.233
507.609
493.675
479.837
466.369
463.306
451.127
439.751
430.737
423.447
421.861
416.076
412.13
409.187
406.869
406.374
404.686
403.318
402.286
401.538
401.407
400.929
400.576
400.505
400.808
400.921
401.698
402.905
404.633
405.024
407.227
410.19
413.512
414.21
418.38
423.912
430.475
431.944
440.766
451.085
453.008
464.725
658.829
657.549
655.401
656.406
659.429
659.61
659.01
657.378
659.756
660.673
659.468
655.15
650.666
648.066
642.537
639.223
628.67
621.884
615.162
612.863
602.789
592.295
585.604
577.474
574.507
562.456
551.129
540.528
537.498
523.32
506.404
492.527
478.641
475.174
460.332
446.681
436.926
428.595
426.568
419.18
414.484
411.122
408.369
407.742
405.555
403.796
402.56
401.682
401.515
400.915
400.519
400.4
400.644
400.739
401.432
402.492
403.917
404.257
406.252
408.786
411.396
412.016
416.071
420.636
426.357
427.914
436.425
445.022
446.852
459.212
660.23
659.381
659.73
661
661.611
660.787
661.723
662.752
663.661
662.359
661.206
659.574
656.36
650.9
643.821
641.652
634.267
626.245
616.865
614.13
605.693
596.7
588.129
578.548
575.94
566.22
555.17
542.165
538.367
525.161
510.376
494.989
479.532
475.982
461.998
448.651
437.732
428.902
426.992
420.04
415.193
411.466
408.507
407.856
405.705
403.973
402.669
401.713
401.533
400.932
400.513
400.4
400.639
400.731
401.384
402.402
403.874
404.213
406.049
408.511
411.297
411.89
415.373
420.311
426.227
427.526
435.238
444.763
446.571
457.448
681.027
679.682
677.848
679.126
682.053
682.233
682.366
682.386
684.85
686.337
685.26
682.019
678.615
675.469
669.654
666.21
655.584
647.41
639.22
636.537
625.383
614.544
606.357
597.633
594.592
582.684
571.316
560.057
556.845
542.266
525.091
509.519
493.902
489.943
473.089
457.396
445.408
435.376
432.939
424.134
418.431
414.215
410.77
409.97
407.205
404.967
403.393
402.281
402.061
401.26
400.7
400.494
400.619
400.678
401.173
401.976
403.072
403.345
404.913
406.869
408.851
409.36
412.678
416.515
421.3
422.674
429.862
437.413
439.114
450.574
682.545
681.713
682.358
683.846
684.379
683.499
685.29
687.466
688.994
688.141
687.162
686.797
684.495
678.663
671.094
669.046
661.567
652.354
641.158
637.999
628.684
618.923
609.111
598.775
596.159
586.604
575.515
561.844
557.798
544.352
529.201
512.407
494.966
490.932
475.177
459.768
446.44
435.761
433.499
425.244
419.377
414.699
410.971
410.14
407.447
405.283
403.609
402.349
402.099
401.315
400.767
400.524
400.62
400.678
401.131
401.875
403.022
403.292
404.667
406.536
408.736
409.209
411.907
416.121
421.151
422.182
428.402
437.103
438.773
448.563
704.123
702.731
701.212
702.55
705.134
705.248
706.144
707.84
710.457
712.548
711.698
710.07
708.225
704.938
699.075
695.679
685.326
675.576
665.536
662.381
649.978
638.382
628.291
618.567
615.406
603.589
592.167
580.353
576.99
562.417
545.541
528.567
511.357
506.937
488.254
470.41
455.787
443.703
440.795
430.395
423.521
418.285
414.015
413.009
409.581
406.797
404.767
403.315
403.018
401.95
401.169
400.772
400.69
400.7
400.927
401.388
402.081
402.272
403.325
404.626
405.938
406.324
408.797
411.704
415.336
416.445
422.097
428.739
430.303
440.618
705.722
704.929
705.828
707.452
707.536
706.573
709.18
712.79
714.698
714.395
713.699
715.018
714.446
708.411
700.634
698.874
691.755
681.123
667.703
664.056
653.695
643.199
631.278
619.765
617.114
607.619
596.547
582.235
578.012
564.697
549.887
531.839
512.583
508.113
490.786
473.458
457.084
444.172
441.517
431.789
424.777
418.926
414.283
413.245
409.926
407.263
405.1
403.42
403.08
402.043
401.3
400.827
400.695
400.705
400.882
401.264
402.02
402.21
403.027
404.224
405.805
406.146
407.914
411.223
415.166
415.838
420.375
428.388
429.91
438.378
727.614
726.19
724.825
725.944
727.995
727.971
729.531
732.586
735.493
738.144
737.616
737.986
738.093
735.223
729.657
726.552
716.921
705.875
693.891
690.222
676.557
663.646
651.409
640.182
636.849
624.833
613.129
600.794
597.311
583.061
566.895
549.01
530.517
525.733
505.662
485.678
468.231
453.75
450.31
438.064
429.794
423.386
418.134
416.89
412.709
409.287
406.689
404.775
404.374
402.962
401.884
401.196
400.818
400.764
400.646
400.679
400.903
401.001
401.452
402.024
402.634
402.88
404.358
406.106
408.499
409.278
413.392
419.304
420.725
429.739
729.222
728.47
729.542
731.16
730.351
729.288
732.524
737.715
739.611
739.902
739.577
742.814
744.779
738.701
731.209
729.895
723.95
711.992
696.212
692.081
680.663
669.7
654.608
641.402
638.672
629
617.792
602.664
598.356
585.407
571.635
552.491
531.832
527.042
508.571
489.843
469.791
454.295
451.213
439.828
431.521
424.193
418.468
417.198
413.165
409.962
407.158
404.919
404.461
403.095
402.091
401.273
400.825
400.772
400.588
400.523
400.83
400.927
401.09
401.545
402.486
402.675
403.261
405.537
408.315
408.566
411.399
418.925
420.294
427.146
751.161
749.684
748.055
748.582
749.949
749.75
751.671
755.32
758.693
761.794
761.641
763.969
765.975
764.187
759.494
756.979
748.733
737.293
723.781
719.65
704.947
689.855
675.662
662.386
658.803
646.054
633.587
620.591
616.996
603.146
587.717
569.676
550.492
545.52
524.765
502.859
482.803
465.689
461.687
447.326
437.354
429.616
423.21
421.69
416.652
412.458
409.189
406.687
406.153
404.307
402.822
401.755
400.993
400.859
400.304
399.824
399.52
399.508
399.265
399.037
398.903
398.985
399.269
399.72
400.936
401.343
404.036
409.371
410.642
418.288
428.344
772.202
770.137
765.455
765.099
767.692
768.265
768.799
770.165
775.229
780.194
780.342
781.895
783.959
785.956
784.138
781.164
771.161
761.689
750.544
746.851
729.26
710.49
696.639
682.849
678.494
662.161
648.462
636.605
633.725
619.061
601.773
585.704
568.319
563.542
541.159
517.136
496.957
478.462
473.564
455.811
444.279
435.822
428.676
426.944
420.726
415.377
411.61
408.771
408.171
405.731
403.676
402.283
401.127
400.899
399.933
398.984
397.97
397.831
397.203
396.234
394.875
394.829
394.855
393.379
393.045
393.686
396.36
399.58
400.737
409.373
416.549
418.45
431.943
448.535
464.061
468.465
478.126
469.235
467.399
436.491
393.889
385.91
334.389
293.451
286.294
253.15
235.679
232.531
224.012
223.664
223.587
228.232
229.079
234.427
236.032
236.108
236.847
235.897
235.951
236.286
239.926
240.788
246.298
248.641
249.041
246.528
234.084
231.773
217.888
205.664
197.693
196.264
190.068
184.685
184.011
180.753
177.875
176.3
176.152
175.691
177.073
177.543
181.234
186.027
186.841
190.753
189.499
181.548
179.986
167.376
154.594
153.025
145.484
773.921
772.359
770.038
769.559
769.831
769.399
771.285
774.785
778.368
781.567
781.774
785.596
789.038
788.694
785.518
783.899
777.93
767.321
753.086
748.729
733.651
716.764
700.114
684.223
680.339
666.24
652.377
638.275
634.564
621.018
606.264
588.818
569.717
564.798
544.339
521.454
499.033
479.295
474.79
458.249
446.34
436.973
429.205
427.376
421.393
416.326
412.259
409.006
408.301
405.935
403.956
402.39
401.139
400.908
399.842
398.768
397.867
397.735
396.719
395.619
394.673
394.56
393.458
392.63
392.82
392.84
394.246
399.139
400.258
406.512
415.687
418.086
429.785
447.026
463.778
467.339
477.172
469.256
467.46
437.473
394.164
386.431
335.592
293.643
286.59
253.536
235.743
232.603
224.027
223.656
223.527
228.142
229.048
234.048
235.936
236.058
236.043
235.835
235.864
235.734
239.876
240.6
245.983
248.585
248.943
245.897
234.058
231.78
217.792
205.613
197.698
196.222
189.654
184.639
183.971
180.31
177.739
176.273
176.008
175.153
177.004
177.461
180.446
185.879
186.788
190.542
189.158
181.536
179.968
167.153
154.581
153.032
145.411
793.952
791.662
786.43
784.757
785.176
785.296
785.54
787.687
791.228
795.443
795.821
798.879
802.829
804.736
804.338
802.646
797.012
788.326
776.891
773.219
756.354
738.214
720.156
703.493
698.728
680.998
665.428
651.44
648.261
633.834
618.528
602.347
585.46
580.931
559.902
536.753
513.977
493.326
487.914
468.163
454.629
444.168
435.548
433.462
426.16
419.956
415.17
411.49
410.701
407.632
405.027
403.004
401.288
400.945
399.396
397.785
396.117
395.85
394.391
392.497
390.222
389.973
388.405
385.893
384.66
384.972
386.336
389.367
390.387
397.175
403.91
405.667
417.384
433.378
450.617
455.312
469.738
466.798
466.205
441.284
400.889
393.357
341.767
298.869
291.381
256.225
237.32
233.901
224.32
223.217
222.984
226.712
227.43
231.88
233.322
233.393
233.694
232.784
232.784
232.675
236.269
237.08
242.566
245.154
245.593
243.522
232.368
230.197
216.905
204.673
196.369
194.866
187.993
182.315
181.609
178.154
175.349
173.648
173.434
172.554
173.831
174.273
177.666
182.662
183.526
187.56
186.77
179.724
178.306
166.32
153.769
152.229
144.796
795.664
793.938
790.436
788.484
787.063
786.343
787.651
790.566
793.534
796.449
796.906
801.336
805.592
806.61
805.347
804.692
801.435
792.743
779.124
774.977
760.415
743.188
723.507
704.82
700.583
684.473
668.515
652.807
649.016
635.426
621.38
604.869
586.692
582.109
562.89
540.602
516.229
494.249
489.37
470.882
457.005
445.559
436.18
434.012
426.987
421.004
415.963
411.781
410.873
407.89
405.33
403.131
401.299
400.955
399.283
397.525
395.992
395.731
393.837
391.786
389.986
389.651
386.957
385.06
384.42
384.04
384.222
388.904
389.873
394.612
403.008
405.279
415.089
431.662
450.273
453.852
468.252
466.728
466.02
441.89
401.146
393.857
343.063
299.085
291.739
256.733
237.396
234.013
224.369
223.213
222.928
226.61
227.396
231.486
233.23
233.343
233.107
232.724
232.698
232.115
236.217
236.872
242.226
245.094
245.481
242.865
232.333
230.197
216.774
204.608
196.37
194.808
187.519
182.267
181.567
177.72
175.217
173.621
173.289
172.028
173.76
174.185
176.901
182.502
183.468
187.319
186.395
179.706
178.274
166.088
153.758
152.237
144.713
814.603
812.018
805.463
801.734
799.889
799.484
798.83
800.375
802.412
805.532
806.011
809.491
813.938
816.129
816.977
816.434
814.355
807.568
797.136
793.876
778.858
761.938
740.834
721.593
716.5
696.955
678.787
662.58
659.091
644.53
630.383
614.808
599.034
594.975
576.193
554.815
530.965
508.901
503.209
481.916
466.29
453.758
443.428
440.937
432.453
425.229
419.327
414.662
413.645
409.851
406.563
403.811
401.435
400.96
398.741
396.387
394.019
393.613
391.238
388.342
385.115
384.645
381.494
378.039
376.104
376.063
376.345
379.31
380.208
385.443
391.589
393.19
402.764
417.341
435.386
439.987
458.265
461.419
461.992
443.637
406.67
399.795
349.177
304.684
296.954
259.891
239.39
235.692
224.881
222.857
222.434
225.125
225.75
229.43
230.92
230.998
231.067
230.005
229.934
229.192
232.612
233.333
238.753
241.616
242.093
240.462
230.438
228.404
215.688
203.455
194.815
193.229
185.735
179.983
179.269
175.704
173.035
171.218
170.936
169.601
170.68
171.074
174.091
179.251
180.168
184.293
183.915
177.73
176.447
165.133
152.856
151.346
144.008
816.224
814.269
809.232
805.317
801.467
800.397
800.49
802.345
803.897
806.122
806.663
810.725
814.976
817.002
817.495
817.497
816.423
810.181
798.641
795.16
781.87
765.565
743.586
722.694
718.136
699.763
681.226
663.545
659.704
645.601
631.996
616.492
599.928
595.901
578.589
558.429
533.142
509.819
504.785
485.016
469.406
455.386
444.138
441.61
433.434
426.586
420.327
415.002
413.861
410.164
406.966
403.957
401.446
400.971
398.598
396.07
393.879
393.478
390.597
387.526
384.856
384.281
379.819
377.162
375.859
375.082
374.092
378.849
379.682
382.804
390.707
392.801
400.461
415.533
435.009
438.261
456.265
461.255
461.528
443.764
406.885
400.219
350.498
304.913
297.36
260.516
239.478
235.848
224.967
222.857
222.384
225.019
225.716
229.049
230.836
230.952
230.557
229.952
229.854
228.653
232.561
233.112
238.393
241.553
241.966
239.587
230.393
228.397
215.516
203.375
194.815
193.157
185.206
179.939
179.226
175.29
172.914
171.194
170.797
169.1
170.61
170.985
173.299
179.082
180.103
184.026
183.507
177.704
176.399
164.795
152.845
151.353
143.914
834.455
831.492
822.853
816.513
812.293
811.294
809.086
808.715
809.275
811.013
811.427
814.223
817.985
820.34
821.888
821.994
821.762
817.1
808.653
806.118
793.378
777.844
755.895
735.267
730.07
708.888
688.061
669.739
665.993
650.79
636.826
622.179
607.893
604.418
588.207
569.115
546.285
524.046
518.406
496.374
478.95
464.5
452.303
449.373
439.597
431.137
424.081
418.296
417.015
412.4
408.263
404.704
401.576
400.95
397.968
394.793
391.691
391.131
387.759
383.798
379.638
378.933
374.328
369.982
367.526
367.116
366.605
369.65
370.448
374.599
380.056
381.487
388.763
401.17
418.967
423.063
443.965
453.125
454.72
443.232
410.884
404.83
356.247
310.709
302.85
264.092
241.877
237.9
225.705
222.606
221.957
223.571
224.132
227.195
228.9
228.998
229.068
227.668
227.507
225.966
229.02
229.607
234.865
238.004
238.511
237.315
228.285
226.385
214.219
202.018
193.096
191.425
183.452
177.776
177.064
173.457
170.968
169.052
168.703
166.906
167.682
168.01
170.566
175.803
176.772
180.945
180.92
175.55
174.39
163.781
151.828
150.352
143.106
851.766
847.953
835.788
827.275
821.677
820.578
815.946
813.151
812.347
812.713
812.889
814.463
817.008
818.916
820.016
820.523
820.551
817.125
810.056
808.22
797.103
781.508
761.476
741.133
736.117
713.848
691.683
672.09
668.224
652.217
637.785
624.03
611.113
608.226
593.781
576.412
556.45
536.04
530.41
507.298
489.188
473.944
460.877
457.673
446.195
436.189
428.234
421.814
420.428
414.785
409.702
405.455
401.625
400.841
397.216
393.343
389.276
388.54
384.701
379.823
374.178
373.35
368.598
362.828
359.318
359.305
359.232
361.078
361.854
366.962
370.569
371.359
378.105
387.581
402.617
407.375
430.051
442.356
445.362
440.577
413.033
407.818
361.451
316.411
308.357
267.95
244.598
240.264
226.644
222.466
221.614
222.242
222.691
225.572
227.373
227.472
227.952
225.888
225.65
223.579
225.63
226.209
231.342
234.385
234.978
234.63
225.975
224.159
212.733
200.501
191.256
189.593
181.691
175.751
175.048
171.793
169.275
167.195
166.881
164.942
164.972
165.23
167.901
172.533
173.425
177.808
178.256
173.223
172.195
162.509
150.693
149.225
142.214
853.545
850.196
839.241
830.122
823.026
821.351
817.096
814.259
812.809
812.733
812.909
814.182
816.398
818.269
819.686
819.865
819.595
816.184
809.768
808.025
797.037
782.129
761.779
741.454
736.488
714.635
692.143
672.177
668.325
652.165
637.761
623.967
611.256
608.372
594.504
578.081
557.838
536.889
531.701
510.195
491.954
475.811
461.821
458.476
447.397
437.671
429.346
422.267
420.694
415.178
410.124
405.616
401.637
400.846
397.023
392.957
389.091
388.372
383.946
378.89
373.867
372.926
366.922
361.866
359.063
358.291
357.243
360.629
361.36
364.804
369.792
371.035
376.119
385.799
402.16
405.387
427.274
442.003
444.395
439.759
413.165
408.056
362.561
316.673
308.816
268.709
244.718
240.483
226.783
222.474
221.576
222.142
222.661
225.271
227.317
227.444
227.669
225.856
225.602
223.13
225.579
225.98
230.936
234.313
234.837
233.874
225.907
224.141
212.489
200.371
191.255
189.507
181.203
175.707
175.008
171.439
169.169
167.178
166.771
164.532
164.905
165.146
167.126
172.341
173.357
177.514
177.786
173.183
172.133
162.138
150.658
149.225
142.078
870.632
866.354
852.246
840.756
831.926
830.008
823.122
817.913
814.354
812.366
812.149
811.782
812.395
812.73
812.68
813.128
812.452
808.99
802.48
801.099
791.497
777.818
758.176
738.544
734.176
713.059
690.534
669.67
665.669
649.166
634.763
621.357
609.554
607.151
595.169
581.268
563.595
545.293
540.442
519.498
501.468
484.892
470.443
466.849
454.247
443.182
433.738
425.979
424.277
417.686
411.689
406.357
401.625
400.659
396.141
391.336
386.484
385.59
380.664
374.722
368.291
367.248
360.995
354.858
351.188
350.844
350.323
352.982
353.75
358.02
362.01
362.688
367.292
373.951
386.632
390.282
412.318
428.961
432.672
434.614
413.219
409.12
366.832
322.064
314.124
272.739
247.721
243.12
227.932
222.506
221.376
221.038
221.469
223.985
226.28
226.423
226.98
224.665
224.326
221.167
222.439
222.792
227.461
230.653
231.254
231.043
223.406
221.718
210.802
198.679
189.328
187.611
179.466
173.811
173.138
169.969
167.753
165.646
165.276
162.87
162.461
162.617
164.512
169.109
170.035
174.35
175.038
170.701
169.778
160.649
149.38
147.963
141.081
872.394
868.738
855.791
843.944
833.308
830.873
824.267
818.877
814.592
812.227
811.993
810.92
810.62
811.42
812.006
811.709
809.436
805.986
801.183
800.108
789.378
774.088
756.46
738.027
733.407
711.409
688.75
669.018
665.463
648.327
632.943
620.155
609.222
606.865
594.736
580.883
564.18
545.816
541.32
521.578
503.864
486.652
471.353
467.728
455.519
444.768
434.978
426.457
424.596
418.112
412.136
406.517
401.627
400.659
395.897
390.875
386.275
385.395
379.829
373.699
367.962
366.787
359.267
353.892
350.931
349.828
348.435
352.572
353.285
356.319
361.38
362.415
365.715
372.44
386.217
388.352
409.299
428.516
431.383
433.089
413.26
409.161
367.737
322.319
314.588
273.581
247.85
243.388
228.116
222.52
221.361
220.959
221.442
223.748
226.242
226.403
226.894
224.646
224.296
220.808
222.392
222.563
227.046
230.575
231.094
230.083
223.326
221.69
210.504
198.534
189.324
187.51
178.959
173.771
173.097
169.65
167.665
165.633
165.18
162.523
162.401
162.537
163.781
168.913
169.962
174.025
174.53
170.651
169.695
160.157
149.343
147.961
140.929
889.203
884.624
868.62
854.23
842.427
839.674
830.262
822.018
815.49
810.713
809.929
806.751
804.723
802.699
800.997
800.869
798.236
793.326
786.627
785.483
775.602
762.791
743.463
725.36
721.532
701.646
680.362
660.221
656.657
640.145
626.011
613.013
602.663
600.741
590.614
579.553
564.946
549.562
545.618
527.503
510.658
494.156
479.11
475.342
462.038
449.928
439.208
430.152
428.143
420.585
413.553
407.157
401.484
400.327
394.859
389.089
383.456
382.395
376.38
369.415
362.313
361.059
353.629
347.088
343.488
342.839
342.416
346.051
346.871
351.26
355.703
356.299
359.374
363.251
372.785
375.115
394.641
414.047
417.998
425.586
411.02
408.069
370.788
327.167
319.478
277.626
251.045
246.225
229.453
222.753
221.344
220.138
220.559
222.844
225.721
225.911
226.749
224.076
223.638
219.342
219.589
219.672
223.668
226.897
227.475
227.433
220.624
219.062
208.604
196.663
187.311
185.548
177.293
171.977
171.345
168.367
166.521
164.431
164.022
161.182
160.24
160.279
161.363
165.75
166.698
170.843
171.695
168.019
167.186
158.66
147.914
146.557
139.823
903.834
898.908
880.726
864.697
851.196
848.247
836.036
825.113
815.83
808.073
806.637
801.083
796.383
791.52
786.875
787.048
783.489
776.675
767.232
765.504
756.359
742.559
723.633
704.471
701.684
684.564
664.652
644.831
641.025
626.619
613.943
601.68
591.6
590.119
582.547
573.346
561.325
548.361
545.391
529.737
514.539
499.239
484.799
481.215
467.448
454.496
443.109
433.406
431.308
422.753
414.772
407.574
401.073
399.745
393.605
387.079
380.415
379.173
372.765
364.996
356.656
355.337
348.011
340.599
336.59
336.395
337.011
340.831
341.805
347.706
352.28
352.676
355.488
357
362.474
364.544
381.38
399.548
404.172
416.448
406.492
404.813
372.604
331.179
323.707
281.549
254.261
249.133
230.919
223.164
221.504
219.604
219.996
222.278
225.689
225.933
227.082
224.13
223.591
218.349
217.22
217.166
220.475
223.247
223.856
224.387
217.737
216.233
206.524
194.664
185.211
183.522
175.608
170.285
169.703
167.238
165.633
163.555
163.175
160.113
158.382
158.309
159.133
162.726
163.541
167.672
168.81
165.249
164.528
156.894
146.357
145.014
138.635
905.487
900.954
883.934
867.46
852.656
849.144
837.209
825.941
815.837
807.716
806.24
799.493
793.876
789.252
785.65
784.585
779.035
771.929
764.54
763.424
751.745
736.876
719.024
702.456
698.753
679.116
659.427
642.17
639.706
623.825
610.093
598.464
590.295
588.898
580.263
571.281
560.325
548.228
545.086
529.885
515.178
500.023
485.405
481.752
468.359
455.707
444.053
433.835
431.581
423.113
415.098
407.64
401.047
399.703
393.261
386.524
380.153
378.935
371.838
363.917
356.3
354.844
346.381
339.643
336.352
335.471
335.599
340.539
341.487
346.855
352.069
352.589
354.984
356.318
362.195
363.288
378.851
399.02
402.69
414.094
406.364
404.464
372.913
331.417
324.107
282.361
254.419
249.438
231.151
223.196
221.533
219.567
219.979
222.188
225.699
225.939
227.251
224.148
223.617
218.195
217.186
216.978
220.063
223.163
223.683
223.51
217.627
216.189
206.141
194.463
185.205
183.405
175.121
170.242
169.662
166.982
165.575
163.553
163.127
159.899
158.334
158.245
158.482
162.522
163.467
167.327
168.247
165.183
164.426
156.376
146.287
145.001
138.436
915.845
911.271
893.668
876.234
859.924
856.232
841.846
828.245
814.859
803.363
801.141
791.632
783.051
775.344
768.6
767.874
761.012
752.185
741.721
739.888
728.519
712.477
694.279
675.871
672.962
655.347
636.847
619.837
617.025
604.017
592.329
582.153
574.439
573.564
567.803
561.101
552.137
542.173
539.995
527.654
515.099
501.401
487.98
484.627
471.566
458.951
446.831
436.192
433.863
424.646
415.923
407.659
400.292
398.785
391.723
384.262
376.911
375.522
368.053
359.428
350.7
349.214
340.785
333.583
330.173
329.78
331.14
336.92
338.11
345.12
351.313
351.774
354.134
353.499
355.411
356.122
368.02
385.584
389.6
403.994
399.886
399.153
373.048
334.36
327.411
285.912
257.545
252.293
232.696
223.797
221.886
219.337
219.748
222.022
226.189
226.499
228.175
224.875
224.243
217.818
215.368
214.994
217.141
219.61
220.133
220.38
214.571
213.185
203.88
192.325
183.047
181.338
173.446
168.669
168.155
166.043
164.969
163.022
162.634
159.18
156.817
156.609
156.44
159.696
160.491
164.225
165.332
162.297
161.644
154.409
144.583
143.321
137.151
916.717
912.527
895.494
878.029
860.909
857.025
842.6
828.146
814.22
802.668
800.434
789.143
778.739
772.392
767.055
764.774
754.905
746.07
738.6
737.429
723.033
704.355
688.704
673.358
669.299
647.951
628.669
616.081
615.117
599.91
585.44
577.29
572.576
571.763
564.309
556.599
550.266
541.613
539.018
526.164
513.94
501.256
488.121
484.872
471.946
459.405
447.367
436.459
434.108
424.873
415.987
407.606
400.219
398.706
391.254
383.577
376.617
375.255
367.035
358.26
345.126
348.69
339.092
332.678
329.952
328.94
330.014
336.732
337.896
345.129
351.38
351.797
354.345
353.352
355.248
355.342
365.964
385.095
388.157
401.329
399.649
398.531
372.854
334.55
327.723
286.687
257.699
252.615
232.963
223.832
221.952
219.335
219.738
222.027
226.221
226.519
228.615
224.912
224.298
217.83
215.347
214.849
216.759
219.525
219.946
219.233
214.447
213.129
203.438
192.11
183.035
181.207
172.928
168.631
168.115
165.837
164.931
163.022
162.612
159.06
156.782
156.554
155.882
159.503
160.415
163.86
164.739
162.22
161.516
153.694
144.509
143.304
136.934
919.579
915.611
899.039
881.381
863.65
859.724
843.41
827.293
809.807
794.703
791.709
777.918
765.772
754.881
746.519
744.696
735.449
724.505
713.426
711.575
698.001
681.535
662.123
644.25
640.782
621.793
603.626
588.538
586.878
574.554
564.626
556.335
551.828
551.662
547.707
544.07
537.917
531.161
529.53
519.879
509.934
498.543
486.955
484.077
472.159
460.253
448.251
437.384
435.003
425.385
416.051
407.036
398.994
397.328
389.406
381.102
373.141
371.614
363.174
353.783
344.754
343.128
334.06
327.06
324.558
324.07
326.906
334.901
336.4
345.569
353.38
353.829
356.454
353.756
351.742
351.342
357.815
373.218
376.421
391.161
391.752
391.611
371.199
336.211
329.891
289.672
260.596
255.293
234.521
224.589
222.471
219.382
219.811
222.246
227.239
227.622
229.975
226.355
225.644
218.128
214.161
213.468
214.161
216.117
216.507
216.466
211.242
209.97
201.011
189.842
180.832
179.11
171.373
167.197
166.764
165.124
164.627
162.859
162.494
158.741
155.651
155.297
154.193
156.898
157.645
160.845
161.812
159.235
158.628
151.838
142.657
141.489
135.55
913.298
910.17
894.831
877.667
859.455
855.302
838.207
819.957
800.167
781.319
777.8
761.989
746.72
733.227
721.849
720.976
711.441
699.79
686.668
684.247
672.025
654.955
635.361
615.245
612.271
594.428
575.512
558.979
556.043
546.062
537.793
531.378
527.221
527.619
527.596
526.084
522.374
517.151
516.697
510.103
501.965
492.5
482.344
479.957
469.594
458.618
447.296
436.648
434.304
424.76
415.23
405.832
397.172
395.42
387.139
378.265
369.427
367.753
359.111
349.162
339.258
337.624
328.869
321.889
319.979
320.007
324.766
334.906
336.808
348.178
357.878
358.604
360.963
356.827
351.538
350.28
352.093
363.357
366.327
381.146
383.038
383.721
368.124
336.437
330.804
292.077
263.091
257.677
236.026
225.419
223.097
219.661
220.153
222.785
228.755
229.265
232.054
228.526
227.703
219.007
213.557
212.611
211.914
212.905
213.224
213.224
207.943
206.695
198.464
187.514
178.603
177.009
169.805
165.933
165.593
164.621
164.63
163.089
162.743
158.775
154.948
154.451
152.725
154.494
155.055
157.928
158.907
156.189
155.661
149.563
140.704
139.56
134.104
912.06
908.568
892.431
875.21
857.969
854.57
836.376
816.895
796.843
779.242
775.627
757.211
740.69
728.516
719.451
716.382
704.33
692.803
682.854
681.239
666.089
648.059
629.746
612.539
608.396
587.256
567.862
554.246
553.509
540.541
530.091
524.735
524.214
524.749
522.361
520.671
519.112
515.924
514.634
506.991
499.258
490.828
481.632
479.371
468.798
457.797
446.725
436.453
434.252
424.558
414.862
405.464
396.996
395.209
386.486
377.456
369.062
367.423
358.036
347.98
338.855
337.072
327.407
321.06
319.808
319.377
324.387
334.977
336.886
349.329
358.585
358.904
362.408
357.657
351.592
350.418
351.175
362.964
365.184
378.634
382.691
382.846
367.142
336.536
330.883
292.579
263.249
257.958
236.29
225.471
223.2
219.706
220.152
222.951
228.856
229.32
232.768
228.62
227.845
219.321
213.564
212.56
211.598
212.823
213.039
212.275
207.79
206.623
197.944
187.247
178.589
176.862
169.358
165.897
165.557
164.527