/*--------------------------------*- C++ -*----------------------------------*\
| =========                 |                                                 |
| \\      /  F ield         | OpenFOAM: The Open Source CFD Toolbox           |
|  \\    /   O peration     | Version:  v2012                                 |
|   \\  /    A nd           | Website:  www.openfoam.com                      |
|    \\/     M anipulation  |                                                 |
\*---------------------------------------------------------------------------*/
FoamFile
{
    version     2.0;
    format      ascii;
    class       volScalarField;
    location    "1e-06";
    object      p;
}
// * * * * * * * * * * * * * * * * * * * * * * * * * * * * * * * * * * * * * //

dimensions      [1 -1 -2 0 0 0 0];


internalField   nonuniform List<scalar> 
10098
(
464637
470570
480521
486179
488610
493837
507042
513325
521915
537453
546277
558126
574776
591614
626304
647849
661265
692632
743772
783869
810400
862810
915682
996776
1.06473e+06
1.12699e+06
1.2107e+06
1.33243e+06
1.43537e+06
1.53109e+06
1.65072e+06
1.77591e+06
1.92913e+06
2.06535e+06
2.16977e+06
2.30769e+06
2.43648e+06
2.57504e+06
2.70146e+06
2.81074e+06
2.94226e+06
3.05363e+06
3.1605e+06
3.26247e+06
3.36176e+06
3.44936e+06
3.53608e+06
3.61201e+06
3.67528e+06
3.73276e+06
3.77191e+06
3.78121e+06
3.77975e+06
3.75457e+06
3.69875e+06
3.61174e+06
3.52144e+06
3.36595e+06
3.19606e+06
3.00431e+06
2.85402e+06
2.64578e+06
2.41895e+06
2.23888e+06
2.17509e+06
2.01413e+06
1.7906e+06
1.84825e+06
1.75251e+06
464396
470302
480301
485947
488155
493491
506766
512859
521367
536832
545708
557522
573843
590746
625406
646829
660001
691154
742152
782119
808636
860609
913589
994110
1.06228e+06
1.12462e+06
1.20851e+06
1.32959e+06
1.433e+06
1.52902e+06
1.64903e+06
1.7741e+06
1.92751e+06
2.06349e+06
2.16918e+06
2.3065e+06
2.43608e+06
2.57398e+06
2.70083e+06
2.81013e+06
2.94132e+06
3.05301e+06
3.15995e+06
3.26182e+06
3.36106e+06
3.44917e+06
3.53569e+06
3.6124e+06
3.67579e+06
3.73391e+06
3.77316e+06
3.78339e+06
3.78223e+06
3.75768e+06
3.702e+06
3.6153e+06
3.52489e+06
3.36944e+06
3.19875e+06
3.00626e+06
2.85536e+06
2.64656e+06
2.41818e+06
2.23773e+06
2.17366e+06
2.01242e+06
1.78839e+06
1.84618e+06
1.75056e+06
464205
469960
479975
485769
487799
493115
506337
512361
520906
536249
545038
556764
572919
589953
624464
645662
658627
689706
740521
780262
806655
858319
911483
991340
1.0596e+06
1.12205e+06
1.20623e+06
1.32672e+06
1.43046e+06
1.52677e+06
1.6472e+06
1.77231e+06
1.92584e+06
2.06158e+06
2.16828e+06
2.30542e+06
2.43575e+06
2.57307e+06
2.69998e+06
2.80963e+06
2.94056e+06
3.05236e+06
3.15931e+06
3.26117e+06
3.36035e+06
3.44897e+06
3.53545e+06
3.6129e+06
3.6764e+06
3.73508e+06
3.77456e+06
3.78581e+06
3.78494e+06
3.76095e+06
3.70543e+06
3.61915e+06
3.52861e+06
3.37307e+06
3.20154e+06
3.00837e+06
2.85673e+06
2.64725e+06
2.41738e+06
2.23659e+06
2.17213e+06
2.01052e+06
1.78609e+06
1.84408e+06
1.74845e+06
463961
469719
479724
485498
487292
492752
505968
511882
520281
535593
544408
556089
571927
588973
623468
644561
657253
688095
738729
778370
804714
855954
909152
988449
1.05688e+06
1.1195e+06
1.20378e+06
1.32365e+06
1.42781e+06
1.52459e+06
1.64532e+06
1.77042e+06
1.92405e+06
2.05971e+06
2.1677e+06
2.30435e+06
2.43526e+06
2.57219e+06
2.69943e+06
2.80907e+06
2.9398e+06
3.05177e+06
3.15867e+06
3.26054e+06
3.35974e+06
3.44881e+06
3.53519e+06
3.61337e+06
3.6771e+06
3.7364e+06
3.77609e+06
3.78824e+06
3.78779e+06
3.76444e+06
3.70913e+06
3.62312e+06
3.53249e+06
3.37693e+06
3.20451e+06
3.01054e+06
2.85859e+06
2.64799e+06
2.41656e+06
2.23526e+06
2.1705e+06
2.00858e+06
1.78364e+06
1.8418e+06
1.74633e+06
463788
469417
479336
485355
486975
492405
505427
511363
519770
534971
543651
555213
570929
588048
622390
643245
655722
686484
736894
776314
802480
853460
906796
985395
1.05387e+06
1.11669e+06
1.20117e+06
1.32049e+06
1.42491e+06
1.52213e+06
1.64324e+06
1.76851e+06
1.92214e+06
2.05771e+06
2.16658e+06
2.30324e+06
2.43488e+06
2.57121e+06
2.69853e+06
2.80853e+06
2.93918e+06
3.05107e+06
3.15796e+06
3.25985e+06
3.3591e+06
3.44864e+06
3.53507e+06
3.61396e+06
3.67789e+06
3.73773e+06
3.77777e+06
3.79088e+06
3.79089e+06
3.76807e+06
3.713e+06
3.62737e+06
3.53663e+06
3.38091e+06
3.20755e+06
3.01256e+06
2.85964e+06
2.64881e+06
2.41571e+06
2.23385e+06
2.16863e+06
2.00631e+06
1.78101e+06
1.83933e+06
1.74385e+06
1.52242e+06
463327
468996
478847
484977
486293
491807
504827
510782
519040
534308
542982
554555
569972
587171
621613
642327
654399
684974
735271
774615
800607
851070
904501
982581
1.05117e+06
1.11415e+06
1.19866e+06
1.31757e+06
1.42238e+06
1.52016e+06
1.6414e+06
1.76716e+06
1.9213e+06
2.05692e+06
2.16624e+06
2.30265e+06
2.43487e+06
2.57041e+06
2.69777e+06
2.80809e+06
2.9385e+06
3.05028e+06
3.15712e+06
3.25934e+06
3.35862e+06
3.44854e+06
3.53493e+06
3.61453e+06
3.67879e+06
3.73923e+06
3.77961e+06
3.79378e+06
3.79422e+06
3.77202e+06
3.71723e+06
3.63191e+06
3.54117e+06
3.38538e+06
3.21103e+06
3.01546e+06
2.8612e+06
2.64978e+06
2.4153e+06
2.233e+06
2.16765e+06
2.00492e+06
1.77898e+06
1.838e+06
1.74272e+06
1.5207e+06
463255
469041
478750
484810
485951
491578
504559
510316
518359
533533
542178
553654
568751
585743
620132
640781
652590
682855
732841
772101
798034
848207
901498
978917
1.04765e+06
1.11095e+06
1.19548e+06
1.31364e+06
1.41877e+06
1.51726e+06
1.63891e+06
1.76472e+06
1.91876e+06
2.05452e+06
2.16441e+06
2.30099e+06
2.43407e+06
2.56873e+06
2.69662e+06
2.80754e+06
2.93772e+06
3.04961e+06
3.15644e+06
3.2586e+06
3.35811e+06
3.44844e+06
3.53487e+06
3.61516e+06
3.67979e+06
3.74084e+06
3.78161e+06
3.7968e+06
3.79768e+06
3.77609e+06
3.72158e+06
3.63645e+06
3.54555e+06
3.38963e+06
3.21425e+06
3.01756e+06
2.86273e+06
2.64983e+06
2.41441e+06
2.23063e+06
2.16469e+06
2.0017e+06
1.77541e+06
1.83406e+06
1.739e+06
1.51741e+06
463016
468696
478264
484469
485492
491081
503896
509674
517765
532861
541293
552660
567692
584689
618973
639325
650864
681088
730826
769852
795496
845442
898816
975514
1.04422e+06
1.10778e+06
1.19248e+06
1.31015e+06
1.41548e+06
1.51456e+06
1.63658e+06
1.76272e+06
1.91674e+06
2.05256e+06
2.16346e+06
2.30036e+06
2.43365e+06
2.56809e+06
2.69598e+06
2.80681e+06
2.93697e+06
3.04875e+06
3.15557e+06
3.25795e+06
3.35761e+06
3.44836e+06
3.53496e+06
3.61593e+06
3.6809e+06
3.74245e+06
3.78378e+06
3.79976e+06
3.80149e+06
3.7804e+06
3.72623e+06
3.64149e+06
3.55052e+06
3.39431e+06
3.21784e+06
3.02023e+06
2.86439e+06
2.65047e+06
2.41349e+06
2.22908e+06
2.16268e+06
1.9992e+06
1.77257e+06
1.83155e+06
1.73649e+06
1.51495e+06
462729
468468
477955
484031
484895
490648
503449
509076
516954
532044
540495
551783
566506
583349
617712
637972
649095
679041
728552
767533
792975
842518
895820
971877
1.04074e+06
1.10458e+06
1.18923e+06
1.30634e+06
1.412e+06
1.51188e+06
1.63415e+06
1.7605e+06
1.91453e+06
2.05061e+06
2.16283e+06
2.2996e+06
2.43304e+06
2.56738e+06
2.69518e+06
2.80628e+06
2.93621e+06
3.04793e+06
3.15468e+06
3.25732e+06
3.35727e+06
3.44834e+06
3.53502e+06
3.61667e+06
3.68211e+06
3.74429e+06
3.78614e+06
3.80277e+06
3.80548e+06
3.78501e+06
3.73121e+06
3.64668e+06
3.55564e+06
3.39925e+06
3.22165e+06
3.02288e+06
2.86603e+06
2.65112e+06
2.41254e+06
2.22716e+06
2.16034e+06
1.99651e+06
1.76939e+06
1.82853e+06
1.73376e+06
1.51222e+06
462516
468051
477488
483720
484507
490160
502754
508371
516324
531324
539508
550659
565357
582154
616413
636340
647144
677087
726306
765023
790107
839469
892846
968079
1.03691e+06
1.10102e+06
1.18587e+06
1.30246e+06
1.40828e+06
1.50886e+06
1.63154e+06
1.75833e+06
1.91229e+06
2.04851e+06
2.16167e+06
2.29894e+06
2.43267e+06
2.56675e+06
2.69452e+06
2.80554e+06
2.93536e+06
3.047e+06
3.15382e+06
3.25667e+06
3.35686e+06
3.44833e+06
3.53527e+06
3.61759e+06
3.68344e+06
3.74614e+06
3.78869e+06
3.80616e+06
3.80979e+06
3.78981e+06
3.73642e+06
3.65229e+06
3.56117e+06
3.40439e+06
3.22559e+06
3.02575e+06
2.8678e+06
2.65163e+06
2.41157e+06
2.22528e+06
2.15788e+06
1.99354e+06
1.76616e+06
1.82552e+06
1.73078e+06
1.50948e+06
462200
467820
477183
483246
483893
489671
502262
507704
515458
530425
538629
549674
564066
580669
615035
634858
645191
674860
723816
762514
787315
836285
889599
964070
1.03309e+06
1.09748e+06
1.18227e+06
1.29827e+06
1.40443e+06
1.50593e+06
1.62887e+06
1.75599e+06
1.90992e+06
2.0465e+06
2.16106e+06
2.29822e+06
2.43202e+06
2.56594e+06
2.69361e+06
2.80512e+06
2.93448e+06
3.04605e+06
3.15294e+06
3.25608e+06
3.35664e+06
3.4484e+06
3.53548e+06
3.61848e+06
3.68487e+06
3.74824e+06
3.79145e+06
3.80957e+06
3.81428e+06
3.79498e+06
3.74202e+06
3.65809e+06
3.5669e+06
3.40986e+06
3.22981e+06
3.02863e+06
2.86953e+06
2.65224e+06
2.41057e+06
2.22309e+06
2.15521e+06
1.99049e+06
1.76267e+06
1.82217e+06
1.72778e+06
1.50655e+06
461970
467367
476678
482905
483508
489120
501526
506927
514773
529658
537533
548424
562823
579359
613630
633072
643031
672723
721370
759765
784132
832926
886326
959883
1.02885e+06
1.09354e+06
1.17855e+06
1.29402e+06
1.40031e+06
1.50261e+06
1.626e+06
1.75368e+06
1.90753e+06
2.04431e+06
2.15988e+06
2.29751e+06
2.43165e+06
2.56509e+06
2.69284e+06
2.80447e+06
2.9335e+06
3.04518e+06
3.15214e+06
3.25545e+06
3.35634e+06
3.44848e+06
3.53591e+06
3.61958e+06
3.68644e+06
3.75037e+06
3.79439e+06
3.81347e+06
3.81911e+06
3.80035e+06
3.74787e+06
3.66435e+06
3.57308e+06
3.41554e+06
3.23419e+06
3.03177e+06
2.87142e+06
2.65265e+06
2.40955e+06
2.22095e+06
2.1524e+06
1.98711e+06
1.75911e+06
1.81881e+06
1.72449e+06
1.50359e+06
461625
467133
476344
482399
482866
488562
500987
506195
513834
528670
536578
547361
561403
577705
612118
631450
640876
670282
718649
757044
781036
829447
882772
955484
1.02464e+06
1.08963e+06
1.17456e+06
1.2894e+06
1.39604e+06
1.49939e+06
1.62308e+06
1.75118e+06
1.905e+06
2.04223e+06
2.15923e+06
2.29677e+06
2.43117e+06
2.56422e+06
2.69184e+06
2.80408e+06
2.9325e+06
3.04425e+06
3.1513e+06
3.2549e+06
3.35625e+06
3.44867e+06
3.5363e+06
3.62063e+06
3.68813e+06
3.75277e+06
3.79756e+06
3.81742e+06
3.82413e+06
3.80614e+06
3.75416e+06
3.67083e+06
3.57949e+06
3.4216e+06
3.23889e+06
3.03491e+06
2.87326e+06
2.65321e+06
2.4085e+06
2.21844e+06
2.14933e+06
1.98364e+06
1.75528e+06
1.81506e+06
1.72119e+06
1.50046e+06
461384
466641
475777
482058
482492
487928
500186
505359
513094
527859
535372
546028
560060
576307
610597
629484
638472
667951
715995
754034
777475
825737
879172
950899
1.01992e+06
1.08525e+06
1.17044e+06
1.28473e+06
1.39147e+06
1.49573e+06
1.61991e+06
1.74872e+06
1.90245e+06
2.03993e+06
2.15802e+06
2.29589e+06
2.43078e+06
2.56339e+06
2.69096e+06
2.80342e+06
2.93156e+06
3.04347e+06
3.15055e+06
3.25431e+06
3.35608e+06
3.44886e+06
3.53691e+06
3.62193e+06
3.68995e+06
3.75522e+06
3.80092e+06
3.82178e+06
3.82955e+06
3.81216e+06
3.76072e+06
3.67784e+06
3.58641e+06
3.42789e+06
3.24375e+06
3.03834e+06
2.87526e+06
2.65345e+06
2.40736e+06
2.216e+06
2.1461e+06
1.97978e+06
1.75135e+06
1.81128e+06
1.71755e+06
1.49725e+06
461003
466344
475429
481503
481799
487302
499639
504565
512032
526770
534330
544819
558504
574440
608948
627722
636121
665262
713018
751083
774082
821932
875224
946113
1.01526e+06
1.08094e+06
1.16602e+06
1.27963e+06
1.38674e+06
1.4922e+06
1.61671e+06
1.74603e+06
1.89975e+06
2.03778e+06
2.15736e+06
2.29541e+06
2.43033e+06
2.56253e+06
2.69019e+06
2.80324e+06
2.93064e+06
3.04261e+06
3.14978e+06
3.25383e+06
3.35616e+06
3.44918e+06
3.53749e+06
3.62318e+06
3.69191e+06
3.75798e+06
3.80453e+06
3.82623e+06
3.83517e+06
3.81865e+06
3.76781e+06
3.6851e+06
3.59357e+06
3.43462e+06
3.24899e+06
3.04178e+06
2.8772e+06
2.65392e+06
2.4061e+06
2.21313e+06
2.14262e+06
1.97584e+06
1.74719e+06
1.80708e+06
1.71393e+06
1.49393e+06
460778
465803
474824
481271
481490
486676
498771
503689
511274
525893
532993
543219
557032
572871
607213
625465
633407
662649
710104
747744
770035
817824
871245
941073
1.00997e+06
1.07601e+06
1.16142e+06
1.27444e+06
1.38162e+06
1.48808e+06
1.61316e+06
1.74335e+06
1.89697e+06
2.0353e+06
2.15605e+06
2.29478e+06
2.43e+06
2.56156e+06
2.6892e+06
2.80266e+06
2.9298e+06
3.04198e+06
3.1491e+06
3.25327e+06
3.35611e+06
3.4495e+06
3.53832e+06
3.62471e+06
3.69399e+06
3.76077e+06
3.80832e+06
3.83111e+06
3.84119e+06
3.82537e+06
3.77511e+06
3.69292e+06
3.60125e+06
3.44153e+06
3.25436e+06
3.04547e+06
2.87919e+06
2.65371e+06
2.40456e+06
2.21018e+06
2.13868e+06
1.9712e+06
1.74272e+06
1.80253e+06
1.70959e+06
1.49023e+06
460049
465149
474205
480507
480436
485651
497921
502690
510039
524840
531921
542117
555586
571268
606024
624054
631175
660054
707294
744935
766548
813810
867031
936098
1.00503e+06
1.07141e+06
1.15676e+06
1.26919e+06
1.37684e+06
1.4846e+06
1.60996e+06
1.74086e+06
1.89459e+06
2.03441e+06
2.15561e+06
2.29457e+06
2.42983e+06
2.56108e+06
2.68863e+06
2.80242e+06
2.92925e+06
3.04138e+06
3.1485e+06
3.25293e+06
3.35641e+06
3.45e+06
3.53915e+06
3.62629e+06
3.69633e+06
3.76401e+06
3.81246e+06
3.83635e+06
3.84764e+06
3.8328e+06
3.7833e+06
3.7013e+06
3.60968e+06
3.44943e+06
3.26059e+06
3.04976e+06
2.88209e+06
2.65502e+06
2.40347e+06
2.20814e+06
2.13636e+06
1.96815e+06
1.7394e+06
1.79991e+06
1.70773e+06
1.48799e+06
1.59265e+06
459947
465155
474201
480010
480050
485302
497647
501920
508907
523570
530596
540553
553547
568622
603486
621517
628059
656495
703430
741109
762251
809211
862146
930273
999308
1.06606e+06
1.15133e+06
1.26277e+06
1.37081e+06
1.48002e+06
1.60591e+06
1.73737e+06
1.89102e+06
2.03157e+06
2.15446e+06
2.29361e+06
2.42923e+06
2.55999e+06
2.68779e+06
2.80215e+06
2.92836e+06
3.04058e+06
3.14772e+06
3.25245e+06
3.35669e+06
3.45052e+06
3.54004e+06
3.62781e+06
3.69864e+06
3.76731e+06
3.81673e+06
3.84173e+06
3.85412e+06
3.8403e+06
3.79147e+06
3.70971e+06
3.61775e+06
3.45685e+06
3.26635e+06
3.05318e+06
2.88327e+06
2.65389e+06
2.40101e+06
2.20339e+06
2.13035e+06
1.96177e+06
1.73341e+06
1.79263e+06
1.70128e+06
1.48284e+06
1.58667e+06
1.5464e+06
1.39684e+06
1.40465e+06
1.38568e+06
1.40408e+06
1.39177e+06
1.27237e+06
1.3071e+06
1.42154e+06
1.22815e+06
1.2227e+06
1.39734e+06
1.20915e+06
1.18341e+06
1.31381e+06
1.18724e+06
1.16212e+06
1.2046e+06
1.17106e+06
1.11123e+06
1.15645e+06
1.10091e+06
986522
1.09417e+06
1.06515e+06
851590
1.01462e+06
976557
840854
886202
909972
914325
790563
780733
905733
716096
669105
784874
718497
632622
603952
610589
584355
542024
486389
414068
502474
452720
310202
400146
373692
276840
283508
282546
272453
301255
159396
138274
241434
97043.1
85895.3
108895
459599
464379
473479
479425
479614
484453
496548
500805
508051
522587
529080
538834
552029
567010
601699
619066
625120
653707
700322
737451
757626
804584
857600
924549
993171
1.06027e+06
1.14607e+06
1.25681e+06
1.36495e+06
1.47529e+06
1.60193e+06
1.73453e+06
1.88814e+06
2.02905e+06
2.15358e+06
2.29321e+06
2.42915e+06
2.55926e+06
2.68679e+06
2.80184e+06
2.92782e+06
3.04011e+06
3.14718e+06
3.25205e+06
3.35688e+06
3.45108e+06
3.54125e+06
3.62976e+06
3.7012e+06
3.77073e+06
3.82132e+06
3.84743e+06
3.86129e+06
3.8483e+06
3.80023e+06
3.71909e+06
3.62697e+06
3.4651e+06
3.27283e+06
3.0576e+06
2.88568e+06
2.65383e+06
2.3992e+06
2.20015e+06
2.12603e+06
1.95661e+06
1.72875e+06
1.78785e+06
1.69695e+06
1.47931e+06
1.58338e+06
1.54406e+06
1.39385e+06
1.40305e+06
1.38327e+06
1.40233e+06
1.39026e+06
1.27033e+06
1.30508e+06
1.42097e+06
1.22558e+06
1.22039e+06
1.39789e+06
1.20743e+06
1.1814e+06
1.31359e+06
1.18677e+06
1.16081e+06
1.20368e+06
1.17052e+06
1.11056e+06
1.15564e+06
1.10087e+06
986831
1.09318e+06
1.06474e+06
854594
1.01419e+06
976125
841885
886529
908938
913054
790319
780614
903779
716331
669136
784113
717403
633135
603687
609951
584096
542548
486359
416274
501318
452073
312206
400487
372926
277553
283680
282407
271087
300079
159058
139252
240107
96706.8
86463.2
109134
459057
464114
473144
478703
478773
483723
495928
499829
506737
521150
527794
537341
550048
564563
599558
616832
622078
650144
696536
733785
753167
799753
852495
918500
987325
1.05465e+06
1.14037e+06
1.25014e+06
1.35888e+06
1.47081e+06
1.59786e+06
1.73127e+06
1.88491e+06
2.0267e+06
2.15306e+06
2.29276e+06
2.42903e+06
2.55858e+06
2.68643e+06
2.80169e+06
2.92724e+06
3.03957e+06
3.14659e+06
3.25184e+06
3.35746e+06
3.45185e+06
3.54241e+06
3.63161e+06
3.70392e+06
3.77459e+06
3.82621e+06
3.85321e+06
3.86868e+06
3.8569e+06
3.80991e+06
3.72878e+06
3.63645e+06
3.47388e+06
3.27975e+06
3.06192e+06
2.88779e+06
2.65375e+06
2.39702e+06
2.19615e+06
2.12105e+06
1.95116e+06
1.72347e+06
1.78208e+06
1.69226e+06
1.47518e+06
1.5792e+06
1.54116e+06
1.3908e+06
1.40081e+06
1.3808e+06
1.40065e+06
1.3887e+06
1.26853e+06
1.30374e+06
1.42078e+06
1.22352e+06
1.21899e+06
1.39886e+06
1.20607e+06
1.17987e+06
1.31363e+06
1.18635e+06
1.15971e+06
1.20266e+06
1.16995e+06
1.10983e+06
1.15453e+06
1.10067e+06
987212
1.09174e+06
1.06436e+06
857404
1.01339e+06
975560
843085
886662
908047
911800
790208
780738
901965
716309
669671
783368
716308
633583
603753
609245
583621
543187
487086
418290
500146
451554
314370
400523
372209
278251
283805
282172
269825
298679
158790
140580
239046
96372.1
87364
109513
458683
463363
472400
478223
478397
482897
494808
498655
505844
520094
526098
535458
548308
562756
597532
614081
618836
647032
693168
729731
747980
794636
847430
912151
980483
1.04802e+06
1.13448e+06
1.2434e+06
1.35225e+06
1.46545e+06
1.59333e+06
1.72813e+06
1.88177e+06
2.02395e+06
2.15206e+06
2.29231e+06
2.42905e+06
2.55777e+06
2.6855e+06
2.80136e+06
2.92663e+06
3.03922e+06
3.14611e+06
3.25154e+06
3.35782e+06
3.4526e+06
3.54388e+06
3.63385e+06
3.7068e+06
3.77849e+06
3.83135e+06
3.8598e+06
3.87665e+06
3.8658e+06
3.81966e+06
3.73928e+06
3.64672e+06
3.48299e+06
3.28693e+06
3.06671e+06
2.89016e+06
2.65289e+06
2.39466e+06
2.19222e+06
2.11572e+06
1.94513e+06
1.71805e+06
1.77629e+06
1.68712e+06
1.47106e+06
1.57521e+06
1.53782e+06
1.38767e+06
1.39878e+06
1.37834e+06
1.39858e+06
1.38715e+06
1.26682e+06
1.30201e+06
1.42024e+06
1.22133e+06
1.21717e+06
1.39947e+06
1.20469e+06
1.17803e+06
1.31367e+06
1.18597e+06
1.15853e+06
1.20173e+06
1.1695e+06
1.10913e+06
1.1536e+06
1.10019e+06
987667
1.09026e+06
1.06358e+06
860360
1.01261e+06
974651
844303
886712
907033
910520
790306
780772
900138
717262
670308
782533
715449
634175
603653
608606
583359
543183
487188
420313
498794
450909
316489
400450
371238
278925
284062
281880
268677
297422
158717
141799
237811
96237.9
88201.6
109654
458111
463088
472077
477419
477451
482157
494156
497596
504431
518541
524701
533926
546177
560127
595179
611602
615587
643108
689008
725700
743066
789331
841762
905462
973981
1.04196e+06
1.1282e+06
1.23598e+06
1.34555e+06
1.46056e+06
1.58885e+06
1.72464e+06
1.87836e+06
2.0216e+06
2.1518e+06
2.29194e+06
2.42907e+06
2.55699e+06
2.6852e+06
2.80141e+06
2.92612e+06
3.03885e+06
3.14562e+06
3.25149e+06
3.35862e+06
3.45361e+06
3.54532e+06
3.63599e+06
3.70989e+06
3.7829e+06
3.83686e+06
3.86649e+06
3.88489e+06
3.87544e+06
3.83035e+06
3.7502e+06
3.65735e+06
3.4928e+06
3.29473e+06
3.0715e+06
2.89235e+06
2.65257e+06
2.39213e+06
2.1877e+06
2.10999e+06
1.9391e+06
1.71226e+06
1.76987e+06
1.68201e+06
1.46678e+06
1.57074e+06
1.53437e+06
1.3847e+06
1.39633e+06
1.37576e+06
1.39662e+06
1.3853e+06
1.26495e+06
1.30063e+06
1.41963e+06
1.21912e+06
1.21587e+06
1.40018e+06
1.20328e+06
1.17641e+06
1.31372e+06
1.18546e+06
1.15739e+06
1.20061e+06
1.16893e+06
1.10838e+06
1.15242e+06
1.09987e+06
988443
1.08869e+06
1.06322e+06
863635
1.01181e+06
974014
845855
886442
906159
909136
790271
780752
897899
717155
671019
781480
714327
634148
603769
607880
582843
543767
488085
422423
497709
450447
319001
400364
370580
279782
284244
281514
267433
295638
158430
142981
236377
95828.4
89157.6
109747
457831
462316
471306
477080
477148
481376
492924
496387
503563
517344
522770
531772
544169
558069
592746
608346
611921
639589
685324
721157
737186
783665
836350
898483
966359
1.03481e+06
1.12164e+06
1.22851e+06
1.33812e+06
1.45452e+06
1.58371e+06
1.72123e+06
1.87498e+06
2.01862e+06
2.15073e+06
2.29157e+06
2.42909e+06
2.55674e+06
2.68431e+06
2.80103e+06
2.92561e+06
3.03876e+06
3.14525e+06
3.25138e+06
3.35914e+06
3.45457e+06
3.54712e+06
3.63855e+06
3.7131e+06
3.78728e+06
3.84258e+06
3.87385e+06
3.89373e+06
3.88534e+06
3.84132e+06
3.76197e+06
3.66878e+06
3.50289e+06
3.30271e+06
3.07669e+06
2.8946e+06
2.65111e+06
2.3891e+06
2.18298e+06
2.10343e+06
1.93206e+06
1.7059e+06
1.76289e+06
1.67586e+06
1.46187e+06
1.56598e+06
1.5299e+06
1.38126e+06
1.39387e+06
1.37313e+06
1.39425e+06
1.38367e+06
1.26375e+06
1.2993e+06
1.41918e+06
1.21761e+06
1.21476e+06
1.40092e+06
1.20235e+06
1.1749e+06
1.314e+06
1.18511e+06
1.15634e+06
1.19972e+06
1.16845e+06
1.10764e+06
1.15128e+06
1.09929e+06
989020
1.08672e+06
1.06197e+06
866452
1.01065e+06
972677
847199
886076
905117
907901
790891
780978
896218
718448
672270
780620
713656
634851
603803
607281
582563
543642
488371
424348
496128
449576
321238
399871
369370
280459
284509
281140
266447
294275
159025
144441
235298
96007.9
90360.1
109768
456735
461427
470608
475890
475556
480072
491805
495029
501876
515837
521412
530521
542398
556086
591442
606742
609270
636045
681702
717497
732288
777944
829965
890967
958998
1.02751e+06
1.11452e+06
1.22031e+06
1.33066e+06
1.44919e+06
1.57885e+06
1.71768e+06
1.87178e+06
2.01727e+06
2.15075e+06
2.29141e+06
2.42912e+06
2.55644e+06
2.68389e+06
2.80097e+06
2.92501e+06
3.03844e+06
3.14477e+06
3.25132e+06
3.36015e+06
3.4558e+06
3.54888e+06
3.64117e+06
3.71671e+06
3.79245e+06
3.84886e+06
3.88164e+06
3.90321e+06
3.89644e+06
3.85358e+06
3.7746e+06
3.68132e+06
3.5145e+06
3.31204e+06
3.08277e+06
2.89815e+06
2.65233e+06
2.38707e+06
2.17951e+06
2.09908e+06
1.92728e+06
1.70115e+06
1.75866e+06
1.67327e+06
1.45926e+06
1.56395e+06
1.52878e+06
1.3802e+06
1.39258e+06
1.3709e+06
1.39213e+06
1.38052e+06
1.2592e+06
1.29523e+06
1.41525e+06
1.21109e+06
1.20966e+06
1.39859e+06
1.19789e+06
1.1706e+06
1.31249e+06
1.18318e+06
1.15405e+06
1.19808e+06
1.16787e+06
1.10702e+06
1.15086e+06
1.10014e+06
991412
1.08722e+06
1.06374e+06
871343
1.01178e+06
973844
850052
886178
904283
905554
789330
779129
892399
716550
670852
777722
711322
634378
603234
606413
582259
544522
489965
427795
496620
450712
325209
401123
370072
282091
284773
280504
264383
290858
156867
143504
232420
93852.8
89794.2
108779
456698
461513
470728
475352
475011
480023
491380
494066
500490
513960
519553
528374
539517
552263
587416
602714
604733
630710
676192
711937
726066
771581
823289
883162
951460
1.01987e+06
1.10704e+06
1.21162e+06
1.3226e+06
1.44311e+06
1.57331e+06
1.71342e+06
1.86758e+06
2.01412e+06
2.15033e+06
2.29106e+06
2.42915e+06
2.55612e+06
2.68353e+06
2.80148e+06
2.92474e+06
3.0386e+06
3.14456e+06
3.25154e+06
3.36145e+06
3.45717e+06
3.5508e+06
3.64371e+06
3.72022e+06
3.7976e+06
3.85524e+06
3.8896e+06
3.91259e+06
3.90754e+06
3.86599e+06
3.78736e+06
3.69338e+06
3.52545e+06
3.32074e+06
3.08762e+06
2.89908e+06
2.65071e+06
2.38272e+06
2.17223e+06
2.08943e+06
1.91793e+06
1.6926e+06
1.74772e+06
1.66405e+06
1.45249e+06
1.55575e+06
1.52116e+06
1.37529e+06
1.38833e+06
1.36778e+06
1.3895e+06
1.37922e+06
1.26037e+06
1.29661e+06
1.41685e+06
1.2133e+06
1.21276e+06
1.40155e+06
1.19963e+06
1.17178e+06
1.31413e+06
1.18402e+06
1.15409e+06
1.19748e+06
1.16724e+06
1.10619e+06
1.14863e+06
1.09859e+06
991175
1.08319e+06
1.06071e+06
873626
1.00856e+06
970906
850920
885541
903198
904946
791574
780995
891273
719600
674429
777929
711128
635740
604199
605935
581378
544354
489825
428662
493755
448739
326932
399099
367719
282571
284919
280206
264111
290078
159221
146863
231912
95349
92565.8
109458
456277
460330
469801
474597
474344
479142
489755
492549
499436
512579
517383
526116
537521
550136
584871
599215
601006
627002
672362
706953
719750
765251
816918
875217
942618
1.01102e+06
1.09918e+06
1.20283e+06
1.31386e+06
1.43589e+06
1.56732e+06
1.70963e+06
1.86399e+06
2.01094e+06
2.14974e+06
2.29097e+06
2.4292e+06
2.55536e+06
2.68267e+06
2.80123e+06
2.92433e+06
3.03883e+06
3.14433e+06
3.25168e+06
3.36224e+06
3.45847e+06
3.55311e+06
3.64687e+06
3.72405e+06
3.80295e+06
3.86206e+06
3.89823e+06
3.9231e+06
3.91938e+06
3.87927e+06
3.80158e+06
3.70719e+06
3.53764e+06
3.3305e+06
3.09396e+06
2.90179e+06
2.649e+06
2.37925e+06
2.16697e+06
2.08202e+06
1.91017e+06
1.68594e+06
1.74026e+06
1.65785e+06
1.44819e+06
1.55098e+06
1.51664e+06
1.37243e+06
1.38589e+06
1.36519e+06
1.38668e+06
1.37683e+06
1.25858e+06
1.29449e+06
1.41477e+06
1.21058e+06
1.21077e+06
1.40077e+06
1.19778e+06
1.16946e+06
1.31385e+06
1.18329e+06
1.15262e+06
1.19641e+06
1.16665e+06
1.10551e+06
1.14757e+06
1.0981e+06
992442
1.08189e+06
1.05987e+06
877696
1.00785e+06
970021
853000
885168
902071
903281
791765
780615
888382
719482
675218
776200
710115
635726
604017
605336
581088
544201
490811
431177
492628
447958
330022
398801
366853
283815
285151
279635
262888
287731
159151
147582
229771
95072.5
93307.4
108929
455651
460040
469549
473633
473033
478462
488894
491335
497825
510625
515692
524346
535045
546945
581781
595960
597117
621975
667076
701575
713395
758404
809297
866553
934296
1.00257e+06
1.09071e+06
1.1932e+06
1.30513e+06
1.42942e+06
1.5616e+06
1.70541e+06
1.86006e+06
2.00906e+06
2.14973e+06
2.29087e+06
2.42921e+06
2.55498e+06
2.68243e+06
2.80174e+06
2.92413e+06
3.03913e+06
3.14414e+06
3.25093e+06
3.364e+06
3.46015e+06
3.55542e+06
3.64989e+06
3.72816e+06
3.809e+06
3.86936e+06
3.90701e+06
3.93389e+06
3.93218e+06
3.89363e+06
3.81635e+06
3.72143e+06
3.55073e+06
3.34104e+06
3.10023e+06
2.90405e+06
2.64722e+06
2.37539e+06
2.16065e+06
2.07364e+06
1.90198e+06
1.67856e+06
1.73137e+06
1.65109e+06
1.44352e+06
1.54501e+06
1.51162e+06
1.36956e+06
1.3828e+06
1.36237e+06
1.38387e+06
1.37398e+06
1.25693e+06
1.29306e+06
1.41269e+06
1.20845e+06
1.21018e+06
1.40045e+06
1.19645e+06
1.16807e+06
1.31382e+06
1.18265e+06
1.15146e+06
1.19523e+06
1.16592e+06
1.10487e+06
1.14606e+06
1.09756e+06
993871
1.08025e+06
1.05912e+06
881825
1.00679e+06
969142
855308
884778
900998
901633
792183
780523
885354
719289
676456
774437
708921
635682
604240
604710
580353
544724
492022
433582
491525
447404
333436
398172
366141
285169
285327
279009
261742
284977
159094
148594
227578
94744.7
94393.7
108576
455460
458975
468894
473198
472690
478174
487175
489885
496872
509063
513199
521681
532657
544357
578377
591539
592688
617488
662474
695608
706262
751310
802293
857840
924608
992676
1.08202e+06
1.18369e+06
1.2955e+06
1.42115e+06
1.55503e+06
1.70125e+06
1.8562e+06
2.00564e+06
2.14925e+06
2.29076e+06
2.42965e+06
2.55465e+06
2.68199e+06
2.80183e+06
2.92404e+06
3.0399e+06
3.14423e+06
3.25134e+06
3.36521e+06
3.46179e+06
3.55815e+06
3.65346e+06
3.73237e+06
3.81495e+06
3.87689e+06
3.9168e+06
3.94553e+06
3.94507e+06
3.90846e+06
3.8323e+06
3.73678e+06
3.56421e+06
3.35186e+06
3.10706e+06
2.90632e+06
2.64537e+06
2.37084e+06
2.15401e+06
2.06412e+06
1.89239e+06
1.67058e+06
1.72165e+06
1.64289e+06
1.4383e+06
1.53836e+06
1.50536e+06
1.36598e+06
1.37959e+06
1.35947e+06
1.38063e+06
1.37154e+06
1.25639e+06
1.2919e+06
1.41106e+06
1.20759e+06
1.20993e+06
1.40012e+06
1.19581e+06
1.16684e+06
1.31399e+06
1.18221e+06
1.15035e+06
1.19435e+06
1.1652e+06
1.10416e+06
1.14454e+06
1.09664e+06
994901
1.07825e+06
1.05727e+06
885563
1.00524e+06
967472
857313
884321
899744
900174
793232
780796
882861
720694
678299
772972
708254
636443
604277
604263
579935
544505
492875
435856
489809
446246
336391
397126
364870
286263
285518
278329
260919
282687
160152
150007
225785
95241.1
95723.3
108252
453996
457819
468251
471558
470550
477095
485699
488202
494777
506987
511446
520223
530663
542105
576665
589520
590024
613615
658509
691315
700703
744309
793896
848162
914974
982695
1.07186e+06
1.17206e+06
1.28498e+06
1.41303e+06
1.54818e+06
1.69641e+06
1.85211e+06
2.00327e+06
2.14925e+06
2.29066e+06
2.42963e+06
2.55424e+06
2.68153e+06
2.80191e+06
2.92336e+06
3.03968e+06
3.14352e+06
3.25785e+06
3.36646e+06
3.46364e+06
3.56072e+06
3.65698e+06
3.73702e+06
3.82189e+06
3.88515e+06
3.92705e+06
3.95823e+06
3.95989e+06
3.92491e+06
3.84943e+06
3.7536e+06
3.57974e+06
3.3645e+06
3.11508e+06
2.91021e+06
2.64595e+06
2.36761e+06
2.14886e+06
2.05726e+06
1.88545e+06
1.66478e+06
1.7153e+06
1.6391e+06
1.43625e+06
1.53484e+06
1.50319e+06
1.36529e+06
1.37789e+06
1.35714e+06
1.37778e+06
1.3673e+06
1.25195e+06
1.28745e+06
1.40479e+06
1.20005e+06
1.2044e+06
1.3954e+06
1.19023e+06
1.16189e+06
1.31169e+06
1.17976e+06
1.14776e+06
1.19264e+06
1.1645e+06
1.10383e+06
1.14397e+06
1.09758e+06
998045
1.07889e+06
1.05866e+06
891613
1.0062e+06
968538
860963
884083
898528
897397
791806
778741
877886
718536
677102
769160
705673
635921
603729
603537
579387
545376
494738
439666
490210
447301
341001
398055
365575
288416
285735
277315
258976
278278
158229
148848
221799
92971.1
94863.8
106780
454154
458344
468193
471235
469975
476665
485435
487164
493322
504740
509358
517811
527261
537602
571164
584151
584469
606832
650911
683254
692768
735993
784741
838375
905195
972745
1.06202e+06
1.1612e+06
1.2755e+06
1.40515e+06
1.54131e+06
1.6916e+06
1.84794e+06
2.00101e+06
2.14928e+06
2.29057e+06
2.42999e+06
2.55406e+06
2.68203e+06
2.80316e+06
2.92382e+06
3.0411e+06
3.14369e+06
3.25565e+06
3.36886e+06
3.46591e+06
3.56378e+06
3.66061e+06
3.74173e+06
3.82891e+06
3.8936e+06
3.93756e+06
3.97031e+06
3.97436e+06
3.94171e+06
3.86689e+06
3.76999e+06
3.59459e+06
3.37642e+06
3.12164e+06
2.91078e+06
2.64289e+06
2.36138e+06
2.139e+06
2.04368e+06
1.87278e+06
1.65427e+06
1.70045e+06
1.62696e+06
1.42918e+06
1.52397e+06
1.49338e+06
1.36016e+06
1.37282e+06
1.35356e+06
1.37414e+06
1.36492e+06
1.25403e+06
1.28902e+06
1.40493e+06
1.20405e+06
1.20952e+06
1.3977e+06
1.19334e+06
1.16462e+06
1.31347e+06
1.1809e+06
1.1481e+06
1.1921e+06
1.16344e+06
1.10307e+06
1.14106e+06
1.09551e+06
998347
1.07472e+06
1.05498e+06
894904
1.00248e+06
965282
862588
883555
897211
896591
794626
780775
875903
721848
681434
768788
705389
637383
604808
603239
578231
545185
495430
440978
487226
445361
343252
395722
363174
289396
285917
276721
258810
276487
160988
152163
220492
94984.2
97881.7
107332
453770
457003
466437
470511
469248
474946
483296
485203
492178
502843
506539
514968
524796
535125
567409
579377
579997
602205
645811
676501
685237
728034
776309
828435
893826
961106
1.05141e+06
1.14988e+06
1.26431e+06
1.3948e+06
1.53321e+06
1.68671e+06
1.84383e+06
1.99721e+06
2.14932e+06
2.29049e+06
2.43069e+06
2.55362e+06
2.68152e+06
2.80311e+06
2.92364e+06
3.04211e+06
3.14425e+06
3.25199e+06