/*--------------------------------*- C++ -*----------------------------------*\
| =========                 |                                                 |
| \\      /  F ield         | OpenFOAM: The Open Source CFD Toolbox           |
|  \\    /   O peration     | Version:  v2012                                 |
|   \\  /    A nd           | Website:  www.openfoam.com                      |
|    \\/     M anipulation  |                                                 |
\*---------------------------------------------------------------------------*/
FoamFile
{
    version     2.0;
    format      ascii;
    class       volScalarField;
    location    "1e-06";
    object      p_rgh;
}
// * * * * * * * * * * * * * * * * * * * * * * * * * * * * * * * * * * * * * //

dimensions      [1 -1 -2 0 0 0 0];


internalField   nonuniform List<scalar> 
10098
(
462190
468093
478012
483638
486037
491232
504404
510653
519209
534712
543501
555314
571928
588730
623382
644889
658267
689595
740695
780752
807241
859610
912441
993491
1.0614e+06
1.12362e+06
1.20729e+06
1.32897e+06
1.43187e+06
1.52753e+06
1.64712e+06
1.77226e+06
1.92543e+06
2.06161e+06
2.16597e+06
2.30384e+06
2.43258e+06
2.57108e+06
2.69745e+06
2.80668e+06
2.93814e+06
3.04945e+06
3.15626e+06
3.25818e+06
3.35741e+06
3.44495e+06
3.53161e+06
3.60748e+06
3.67069e+06
3.72811e+06
3.76718e+06
3.77643e+06
3.7749e+06
3.74964e+06
3.69376e+06
3.60668e+06
3.51631e+06
3.36075e+06
3.19078e+06
2.99896e+06
2.84859e+06
2.64028e+06
2.41338e+06
2.23322e+06
2.16935e+06
2.00832e+06
1.7847e+06
1.84227e+06
1.74645e+06
461949
467824
477792
483406
485582
490885
504127
510187
518661
534091
542932
554711
570996
587861
622484
643870
657003
688117
739075
779001
805478
857410
910347
990826
1.05895e+06
1.12124e+06
1.2051e+06
1.32613e+06
1.42949e+06
1.52546e+06
1.64543e+06
1.77045e+06
1.92381e+06
2.05974e+06
2.16538e+06
2.30265e+06
2.43218e+06
2.57002e+06
2.69682e+06
2.80607e+06
2.9372e+06
3.04883e+06
3.15572e+06
3.25752e+06
3.35671e+06
3.44476e+06
3.53122e+06
3.60787e+06
3.67119e+06
3.72926e+06
3.76844e+06
3.7786e+06
3.77737e+06
3.75276e+06
3.69701e+06
3.61024e+06
3.51976e+06
3.36423e+06
3.19347e+06
3.00091e+06
2.84994e+06
2.64105e+06
2.4126e+06
2.23208e+06
2.16793e+06
2.0066e+06
1.78249e+06
1.84019e+06
1.74449e+06
461758
467482
477466
483229
485226
490509
503699
509689
518200
533508
542262
553952
570071
587069
621542
642702
655629
686669
737444
777145
803497
855119
908241
988055
1.05628e+06
1.11868e+06
1.20282e+06
1.32325e+06
1.42696e+06
1.52322e+06
1.6436e+06
1.76866e+06
1.92214e+06
2.05783e+06
2.16448e+06
2.30157e+06
2.43184e+06
2.56911e+06
2.69597e+06
2.80557e+06
2.93644e+06
3.04819e+06
3.15508e+06
3.25688e+06
3.356e+06
3.44456e+06
3.53098e+06
3.60837e+06
3.6718e+06
3.73042e+06
3.76983e+06
3.78102e+06
3.78009e+06
3.75602e+06
3.70044e+06
3.61409e+06
3.52348e+06
3.36787e+06
3.19627e+06
3.00302e+06
2.85131e+06
2.64175e+06
2.4118e+06
2.23093e+06
2.1664e+06
2.0047e+06
1.78019e+06
1.8381e+06
1.74238e+06
461514
467241
477215
482957
484719
490146
503330
509210
517574
532852
541632
553277
569078
586088
620545
641601
654254
685058
735652
775252
801555
852754
905910
985164
1.05355e+06
1.11613e+06
1.20036e+06
1.32019e+06
1.4243e+06
1.52103e+06
1.64171e+06
1.76677e+06
1.92035e+06
2.05596e+06
2.1639e+06
2.3005e+06
2.43135e+06
2.56823e+06
2.69542e+06
2.805e+06
2.93568e+06
3.04759e+06
3.15443e+06
3.25624e+06
3.35539e+06
3.4444e+06
3.53071e+06
3.60884e+06
3.6725e+06
3.73174e+06
3.77137e+06
3.78345e+06
3.78294e+06
3.75951e+06
3.70414e+06
3.61806e+06
3.52736e+06
3.37172e+06
3.19923e+06
3.00519e+06
2.85317e+06
2.64249e+06
2.41098e+06
2.2296e+06
2.16477e+06
2.00276e+06
1.77774e+06
1.83581e+06
1.74026e+06
461340
466938
476827
482814
484402
489800
502788
508690
517064
532230
540874
552401
568081
585163
619467
640285
652723
683446
733817
773196
799321
850260
903554
982110
1.05054e+06
1.11332e+06
1.19775e+06
1.31703e+06
1.4214e+06
1.51857e+06
1.63964e+06
1.76485e+06
1.91844e+06
2.05396e+06
2.16278e+06
2.29938e+06
2.43098e+06
2.56725e+06
2.69452e+06
2.80447e+06
2.93506e+06
3.04689e+06
3.15373e+06
3.25555e+06
3.35475e+06
3.44423e+06
3.5306e+06
3.60943e+06
3.6733e+06
3.73307e+06
3.77304e+06
3.78609e+06
3.78603e+06
3.76315e+06
3.708e+06
3.62231e+06
3.5315e+06
3.3757e+06
3.20228e+06
3.00721e+06
2.85421e+06
2.64331e+06
2.41013e+06
2.22819e+06
2.16289e+06
2.00049e+06
1.77511e+06
1.83335e+06
1.73778e+06
1.51626e+06
460880
466518
476337
482436
483720
489201
502188
508110
516333
531567
540205
551743
567124
584286
618690
639366
651400
681936
732193
771497
797448
847869
901259
979296
1.04784e+06
1.11078e+06
1.19524e+06
1.3141e+06
1.41887e+06
1.51661e+06
1.63779e+06
1.76351e+06
1.9176e+06
2.05317e+06
2.16244e+06
2.2988e+06
2.43096e+06
2.56645e+06
2.69376e+06
2.80403e+06
2.93438e+06
3.0461e+06
3.15289e+06
3.25505e+06
3.35427e+06
3.44413e+06
3.53046e+06
3.61e+06
3.6742e+06
3.73457e+06
3.77488e+06
3.78899e+06
3.78936e+06
3.7671e+06
3.71224e+06
3.62685e+06
3.53604e+06
3.38018e+06
3.20575e+06
3.01011e+06
2.85577e+06
2.64428e+06
2.40972e+06
2.22734e+06
2.16191e+06
1.9991e+06
1.77308e+06
1.83201e+06
1.73666e+06
1.51455e+06
460807
466562
476241
482269
483378
488972
501920
507643
515652
530792
539402
550842
565902
582857
617210
637821
649591
679817
729763
768982
794875
845007
898255
975632
1.04432e+06
1.10758e+06
1.19206e+06
1.31018e+06
1.41526e+06
1.5137e+06
1.63531e+06
1.76107e+06
1.91506e+06
2.05077e+06
2.16061e+06
2.29714e+06
2.43017e+06
2.56478e+06
2.69261e+06
2.80347e+06
2.9336e+06
3.04544e+06
3.15221e+06
3.2543e+06
3.35376e+06
3.44403e+06
3.5304e+06
3.61062e+06
3.6752e+06
3.73618e+06
3.77688e+06
3.79201e+06
3.79283e+06
3.77116e+06
3.71659e+06
3.63139e+06
3.54042e+06
3.38442e+06
3.20897e+06
3.01221e+06
2.8573e+06
2.64432e+06
2.40883e+06
2.22497e+06
2.15896e+06
1.99588e+06
1.76951e+06
1.82808e+06
1.73294e+06
1.51126e+06
460568
466217
475754
481927
482918
488475
501257
507001
515058
530119
538516
549848
564843
581803
616050
636364
647865
678050
727748
766733
792337
842241
895574
972229
1.04089e+06
1.10441e+06
1.18906e+06
1.30669e+06
1.41197e+06
1.51101e+06
1.63298e+06
1.75907e+06
1.91303e+06
2.04881e+06
2.15966e+06
2.29651e+06
2.42974e+06
2.56413e+06
2.69197e+06
2.80275e+06
2.93285e+06
3.04457e+06
3.15133e+06
3.25366e+06
3.35326e+06
3.44395e+06
3.53049e+06
3.6114e+06
3.6763e+06
3.73779e+06
3.77905e+06
3.79497e+06
3.79664e+06
3.77547e+06
3.72124e+06
3.63643e+06
3.54539e+06
3.3891e+06
3.21256e+06
3.01488e+06
2.85896e+06
2.64496e+06
2.40791e+06
2.22343e+06
2.15694e+06
1.99339e+06
1.76667e+06
1.82557e+06
1.73042e+06
1.5088e+06
460281
465989
475445
481489
482321
488041
500810
506403
514247
529302
537718
548970
563657
580463
614789
635011
646096
676003
725474
764414
789815
839317
892577
968591
1.03741e+06
1.1012e+06
1.18581e+06
1.30287e+06
1.40849e+06
1.50833e+06
1.63054e+06
1.75685e+06
1.91083e+06
2.04686e+06
2.15903e+06
2.29575e+06
2.42913e+06
2.56342e+06
2.69116e+06
2.80221e+06
2.93209e+06
3.04376e+06
3.15044e+06
3.25303e+06
3.35292e+06
3.44393e+06
3.53054e+06
3.61214e+06
3.67751e+06
3.73963e+06
3.78142e+06
3.79798e+06
3.80063e+06
3.78009e+06
3.72622e+06
3.64162e+06
3.55051e+06
3.39405e+06
3.21637e+06
3.01752e+06
2.8606e+06
2.64562e+06
2.40696e+06
2.2215e+06
2.1546e+06
1.99069e+06
1.76349e+06
1.82254e+06
1.72769e+06
1.50606e+06
460067
465572
474978
481178
481933
487553
500114
505697
513617
528582
536731
547846
562508
579268
613489
633378
644145
674049
723227
761905
786947
836268
889603
964793
1.03358e+06
1.09765e+06
1.18246e+06
1.29899e+06
1.40477e+06
1.5053e+06
1.62793e+06
1.75468e+06
1.90858e+06
2.04476e+06
2.15787e+06
2.29508e+06
2.42877e+06
2.56279e+06
2.69051e+06
2.80148e+06
2.93124e+06
3.04282e+06
3.14959e+06
3.25238e+06
3.35251e+06
3.44392e+06
3.5308e+06
3.61306e+06
3.67884e+06
3.74148e+06
3.78397e+06
3.80137e+06
3.80494e+06
3.78489e+06
3.73142e+06
3.64722e+06
3.55604e+06
3.39918e+06
3.22032e+06
3.0204e+06
2.86237e+06
2.64613e+06
2.40599e+06
2.21962e+06
2.15215e+06
1.98772e+06
1.76026e+06
1.81954e+06
1.72471e+06
1.50332e+06
459751
465341
474673
480704
481318
487065
499622
505031
512750
527683
535852
546860
561217
577783
612111
631897
642191
671821
720738
759395
784155
833083
886356
960784
1.02976e+06
1.09411e+06
1.17885e+06
1.29481e+06
1.40092e+06
1.50237e+06
1.62527e+06
1.75234e+06
1.90622e+06
2.04275e+06
2.15726e+06
2.29437e+06
2.42811e+06
2.56198e+06
2.68959e+06
2.80105e+06
2.93036e+06
3.04187e+06
3.14871e+06
3.25179e+06
3.35228e+06
3.44399e+06
3.53101e+06
3.61394e+06
3.68028e+06
3.74358e+06
3.78672e+06
3.80478e+06
3.80942e+06
3.79005e+06
3.73703e+06
3.65302e+06
3.56176e+06
3.40465e+06
3.22454e+06
3.02328e+06
2.86411e+06
2.64674e+06
2.40499e+06
2.21743e+06
2.14947e+06
1.98467e+06
1.75677e+06
1.81619e+06
1.72172e+06
1.50039e+06
459521
464888
474168
480363
480934
486513
498886
504254
512065
526916
534756
545611
559974
576473
610706
630111
640031
669684
718292
756646
780972
829724
883083
956596
1.02552e+06
1.09017e+06
1.17513e+06
1.29055e+06
1.3968e+06
1.49905e+06
1.6224e+06
1.75003e+06
1.90383e+06
2.04055e+06
2.15608e+06
2.29366e+06
2.42774e+06
2.56113e+06
2.68883e+06
2.8004e+06
2.92938e+06
3.041e+06
3.1479e+06
3.25116e+06
3.35199e+06
3.44407e+06
3.53143e+06
3.61504e+06
3.68184e+06
3.74571e+06
3.78967e+06
3.80868e+06
3.81426e+06
3.79543e+06
3.74287e+06
3.65928e+06
3.56795e+06
3.41033e+06
3.22891e+06
3.02642e+06
2.86599e+06
2.64715e+06
2.40397e+06
2.21529e+06
2.14666e+06
1.98129e+06
1.75321e+06
1.81283e+06
1.71842e+06
1.49744e+06
459176
464654
473834
479857
480292
485955
498347
503521
511126
525928
533800
544547
558553
574818
609194
628488
637876
667243
715570
753925
777875
826245
879528
952198
1.02131e+06
1.08626e+06
1.17114e+06
1.28594e+06
1.39253e+06
1.49583e+06
1.61947e+06
1.74753e+06
1.9013e+06
2.03848e+06
2.15542e+06
2.29292e+06
2.42726e+06
2.56026e+06
2.68783e+06
2.80002e+06
2.92838e+06
3.04007e+06
3.14707e+06
3.2506e+06
3.3519e+06
3.44426e+06
3.53183e+06
3.6161e+06
3.68353e+06
3.74811e+06
3.79284e+06
3.81263e+06
3.81928e+06
3.80121e+06
3.74917e+06
3.66577e+06
3.57435e+06
3.41639e+06
3.23361e+06
3.02956e+06
2.86783e+06
2.64771e+06
2.40292e+06
2.21278e+06
2.14359e+06
1.97782e+06
1.74937e+06
1.80907e+06
1.71512e+06
1.49431e+06
458934
464161
473266
479515
479918
485320
497545
502685
510386
525116
532594
543215
557210
573421
607673
626522
635471
664911
712916
750915
774315
822535
875928
947613
1.01659e+06
1.08187e+06
1.16702e+06
1.28127e+06
1.38795e+06
1.49217e+06
1.6163e+06
1.74506e+06
1.89875e+06
2.03618e+06
2.15422e+06
2.29203e+06
2.42687e+06
2.55944e+06
2.68695e+06
2.79936e+06
2.92744e+06
3.03929e+06
3.14632e+06
3.25001e+06
3.35173e+06
3.44445e+06
3.53244e+06
3.6174e+06
3.68535e+06
3.75056e+06
3.7962e+06
3.81699e+06
3.82469e+06
3.80723e+06
3.75573e+06
3.67277e+06
3.58127e+06
3.42268e+06
3.23848e+06
3.03299e+06
2.86983e+06
2.64795e+06
2.40178e+06
2.21034e+06
2.14037e+06
1.97396e+06
1.74545e+06
1.8053e+06
1.71148e+06
1.4911e+06
458554
463864
472918
478960
479224
484695
496998
501891
509324
524027
531552
542005
555654
571554
606024
624760
633120
662223
709939
747963
770921
818730
871980
942826
1.01193e+06
1.07756e+06
1.1626e+06
1.27616e+06
1.38323e+06
1.48864e+06
1.61311e+06
1.74238e+06
1.89604e+06
2.03403e+06
2.15356e+06
2.29156e+06
2.42642e+06
2.55858e+06
2.68618e+06
2.79918e+06
2.92651e+06
3.03843e+06
3.14554e+06
3.24953e+06
3.3518e+06
3.44477e+06
3.53302e+06
3.61865e+06
3.68731e+06
3.75332e+06
3.7998e+06
3.82144e+06
3.83031e+06
3.81372e+06
3.76281e+06
3.68004e+06
3.58844e+06
3.42941e+06
3.24371e+06
3.03643e+06
2.87177e+06
2.64842e+06
2.40051e+06
2.20747e+06
2.13688e+06
1.97002e+06
1.74129e+06
1.8011e+06
1.70786e+06
1.48778e+06
458328
463323
472312
478728
478915
484069
496131
501014
508566
523150
530215
540405
554182
569984
604288
622503
630406
659609
707024
744624
766874
814621
868001
937786
1.00664e+06
1.07264e+06
1.158e+06
1.27097e+06
1.37811e+06
1.48452e+06
1.60956e+06
1.7397e+06
1.89327e+06
2.03154e+06
2.15224e+06
2.29092e+06
2.4261e+06
2.55761e+06
2.68519e+06
2.79859e+06
2.92568e+06
3.0378e+06
3.14486e+06
3.24898e+06
3.35176e+06
3.44508e+06
3.53385e+06
3.62017e+06
3.68939e+06
3.75611e+06
3.80359e+06
3.82632e+06
3.83634e+06
3.82044e+06
3.77011e+06
3.68785e+06
3.59612e+06
3.43633e+06
3.24908e+06
3.04012e+06
2.87377e+06
2.64821e+06
2.39898e+06
2.20452e+06
2.13294e+06
1.96538e+06
1.73682e+06
1.79654e+06
1.70352e+06
1.48408e+06
457599
462669
471693
477964
477861
483043
495280
500015
507330
522097
529143
539302
552735
568381
603099
621091
628173
657013
704214
741815
763387
810608
863786
932810
1.0017e+06
1.06803e+06
1.15335e+06
1.26572e+06
1.37333e+06
1.48104e+06
1.60635e+06
1.7372e+06
1.89088e+06
2.03066e+06
2.15181e+06
2.29072e+06
2.42593e+06
2.55712e+06
2.68462e+06
2.79835e+06
2.92512e+06
3.0372e+06
3.14427e+06
3.24864e+06
3.35206e+06
3.44559e+06
3.53468e+06
3.62175e+06
3.69173e+06
3.75934e+06
3.80773e+06
3.83156e+06
3.84278e+06
3.82787e+06
3.7783e+06
3.69623e+06
3.60455e+06
3.44423e+06
3.25531e+06
3.04441e+06
2.87666e+06
2.64951e+06
2.39789e+06
2.20248e+06
2.13062e+06
1.96233e+06
1.7335e+06
1.79393e+06
1.70166e+06
1.48183e+06
1.58641e+06
457497
462674
471689
477467
477474
482694
495006
499245
506198
520827
527818
537738
550697
565734
600561
618554
625058
653455
700350
737989
759090
806009
858901
926985
995977
1.06269e+06
1.14791e+06
1.25931e+06
1.3673e+06
1.47646e+06
1.60231e+06
1.73372e+06
1.88732e+06
2.02781e+06
2.15065e+06
2.28976e+06
2.42532e+06
2.55603e+06
2.68378e+06
2.79808e+06
2.92423e+06
3.0364e+06
3.14349e+06
3.24816e+06
3.35233e+06
3.44611e+06
3.53556e+06
3.62328e+06
3.69404e+06
3.76265e+06
3.81201e+06
3.83694e+06
3.84926e+06
3.83538e+06
3.78647e+06
3.70464e+06
3.61261e+06
3.45165e+06
3.26107e+06
3.04783e+06
2.87784e+06
2.64839e+06
2.39543e+06
2.19773e+06
2.12461e+06
1.95595e+06
1.72751e+06
1.78664e+06
1.69521e+06
1.47668e+06
1.58043e+06
1.54008e+06
1.39044e+06
1.39818e+06
1.37913e+06
1.39745e+06
1.38508e+06
1.2656e+06
1.30026e+06
1.41463e+06
1.22116e+06
1.21564e+06
1.3902e+06
1.20193e+06
1.17612e+06
1.30644e+06
1.1798e+06
1.15461e+06
1.19701e+06
1.1634e+06
1.1035e+06
1.14864e+06
1.09303e+06
978567
1.08615e+06
1.05705e+06
843412
1.00637e+06
968231
832454
877728
901424
905702
781866
771962
896888
707177
660112
775807
709356
623407
594662
601226
574917
532512
476804
404408
492740
442911
300320
390190
363662
266736
273329
272293
262126
290854
148921
127725
230811
86345.4
75123.5
98049.2
457148
461898
470967
476881
477039
481844
493907
498130
505341
519843
526301
536020
549178
564122
598774
616103
622118
650666
697242
734330
754465
801382
854354
921261
989840
1.0569e+06
1.14265e+06
1.25334e+06
1.36143e+06
1.47173e+06
1.59833e+06
1.73088e+06
1.88443e+06
2.02529e+06
2.14977e+06
2.28936e+06
2.42524e+06
2.5553e+06
2.68278e+06
2.79777e+06
2.92369e+06
3.03593e+06
3.14294e+06
3.24776e+06
3.35253e+06
3.44667e+06
3.53678e+06
3.62522e+06
3.6966e+06
3.76607e+06
3.81659e+06
3.84264e+06
3.85643e+06
3.84338e+06
3.79524e+06
3.71403e+06
3.62184e+06
3.45989e+06
3.26755e+06
3.05225e+06
2.88025e+06
2.64832e+06
2.39362e+06
2.19449e+06
2.12029e+06
1.95079e+06
1.72285e+06
1.78187e+06
1.69088e+06
1.47316e+06
1.57713e+06
1.53774e+06
1.38745e+06
1.39657e+06
1.37672e+06
1.39571e+06
1.38357e+06
1.26356e+06
1.29824e+06
1.41406e+06
1.21859e+06
1.21333e+06
1.39075e+06
1.20021e+06
1.17411e+06
1.30623e+06
1.17933e+06
1.1533e+06
1.19609e+06
1.16286e+06
1.10283e+06
1.14783e+06
1.09299e+06
978875
1.08515e+06
1.05663e+06
846416
1.00594e+06
967799
833485
878054
900389
904432
781623
771843
894935
707412
660143
775046
708262
623920
594398
600588
574658
533036
476773
406614
491584
442265
302324
390530
362895
267448
273501
272154
260760
289678
148582
128702
229484
86009.1
75691.4
98288.3
456607
461633
470631
476159
476197
481114
493286
497154
504028
518406
525015
534526
547197
561675
596633
613868
619076
647103
693456
730664
750005
796549
849250
915212
983994
1.05127e+06
1.13695e+06
1.24668e+06
1.35537e+06
1.46725e+06
1.59425e+06
1.72761e+06
1.88121e+06
2.02295e+06
2.14926e+06
2.28891e+06
2.42512e+06
2.55462e+06
2.68242e+06
2.79763e+06
2.92312e+06
3.0354e+06
3.14236e+06
3.24755e+06
3.35311e+06
3.44743e+06
3.53794e+06
3.62707e+06
3.69933e+06
3.76993e+06
3.82148e+06
3.84842e+06
3.86382e+06
3.85198e+06
3.80491e+06
3.72372e+06
3.63132e+06
3.46867e+06
3.27447e+06
3.05656e+06
2.88236e+06
2.64824e+06
2.39144e+06
2.19049e+06
2.11531e+06
1.94534e+06
1.71757e+06
1.7761e+06
1.68619e+06
1.46902e+06
1.57295e+06
1.53483e+06
1.3844e+06
1.39434e+06
1.37425e+06
1.39403e+06
1.382e+06
1.26176e+06
1.2969e+06
1.41386e+06
1.21652e+06
1.21193e+06
1.39172e+06
1.19886e+06
1.17258e+06
1.30627e+06
1.17891e+06
1.1522e+06
1.19507e+06
1.16229e+06
1.1021e+06
1.14672e+06
1.09279e+06
979257
1.08371e+06
1.05626e+06
849226
1.00514e+06
967234
834685
878188
899498
903177
781512
771967
893120
707390
660678
774301
707167
624368
594463
599882
574183
533675
477500
408630
490412
441746
304488
390567
362179
268147
273626
271919
259498
288278
148314
130031
228422
85674.4
76592.2
98667.2
456233
460881
469887
475679
475820
480288
492166
495980
503134
517350
523318
532643
545456
559867
594607
611118
615834
643991
690087
726610
744818
791432
844184
908862
977152
1.04464e+06
1.13106e+06
1.23994e+06
1.34874e+06
1.46189e+06
1.58972e+06
1.72448e+06
1.87807e+06
2.0202e+06
2.14825e+06
2.28846e+06
2.42514e+06
2.55381e+06
2.68149e+06
2.79729e+06
2.92251e+06
3.03504e+06
3.14187e+06
3.24725e+06
3.35346e+06
3.44819e+06
3.53941e+06
3.62931e+06
3.7022e+06
3.77383e+06
3.82662e+06
3.85501e+06
3.87179e+06
3.86087e+06
3.81466e+06
3.73422e+06
3.64158e+06
3.47778e+06
3.28165e+06
3.06136e+06
2.88473e+06
2.64739e+06
2.38907e+06
2.18656e+06
2.10998e+06
1.93931e+06
1.71215e+06
1.77031e+06
1.68105e+06
1.4649e+06
1.56897e+06
1.53149e+06
1.38127e+06
1.3923e+06
1.37179e+06
1.39196e+06
1.38046e+06
1.26005e+06
1.29516e+06
1.41332e+06
1.21434e+06
1.2101e+06
1.39233e+06
1.19747e+06
1.17074e+06
1.3063e+06
1.17853e+06
1.15102e+06
1.19414e+06
1.16184e+06
1.1014e+06
1.14579e+06
1.09231e+06
979712
1.08223e+06
1.05547e+06
852182
1.00436e+06
966325
835903
878237
898484
901897
781610
772001
891294
708343
661315
773465
706308
624959
594363
599242
573921
533671
477602
410653
489059
441101
306607
390493
361208
268820
273883
271627
258350
287021
148241
131250
227188
85540.2
77429.8
98807.6
455660
460607
469564
474874
474875
479548
491514
494920
501721
515796
521921
531111
543326
557238
592253
608639
612585
640066
685927
722579
739904
786127
838517
902173
970649
1.03858e+06
1.12478e+06
1.23251e+06
1.34204e+06
1.457e+06
1.58524e+06
1.72098e+06
1.87465e+06
2.01785e+06
2.14799e+06
2.28809e+06
2.42516e+06
2.55303e+06
2.68118e+06
2.79734e+06
2.92199e+06
3.03467e+06
3.14139e+06
3.2472e+06
3.35427e+06
3.44919e+06
3.54085e+06
3.63145e+06
3.70529e+06
3.77823e+06
3.83213e+06
3.8617e+06
3.88004e+06
3.87051e+06
3.82535e+06
3.74514e+06
3.65222e+06
3.4876e+06
3.28945e+06
3.06614e+06
2.88692e+06
2.64706e+06
2.38655e+06
2.18204e+06
2.10425e+06
1.93328e+06
1.70635e+06
1.76388e+06
1.67594e+06
1.46063e+06
1.5645e+06
1.52805e+06
1.3783e+06
1.38986e+06
1.36922e+06
1.39e+06
1.3786e+06
1.25818e+06
1.29378e+06
1.41271e+06
1.21212e+06
1.20881e+06
1.39304e+06
1.19607e+06
1.16912e+06
1.30636e+06
1.17802e+06
1.14988e+06
1.19303e+06
1.16127e+06
1.10064e+06
1.14462e+06
1.09198e+06
980487
1.08066e+06
1.05511e+06
855457
1.00355e+06
965688
837455
877968
897611
900513
781574
771981
889054
708236
662026
772413
705185
624932
594480
598516
573406
534255
478499
412763
487974
440638
309118
390407
360550
269677
274065
271261
257106
285237
147954
132431
225754
85130.6
78385.8
98901.1
455380
459834
468793
474535
474571
478767
490282
493711
500853
514599
519990
528957
541317
555180
589820
605382
608918
636548
682243
718036
734023
780462
833104
895194
963027
1.03143e+06
1.11822e+06
1.22504e+06
1.33461e+06
1.45096e+06
1.5801e+06
1.71757e+06
1.87128e+06
2.01487e+06
2.14692e+06
2.28771e+06
2.42518e+06
2.55278e+06
2.6803e+06
2.79696e+06
2.92149e+06
3.03458e+06
3.14101e+06
3.24708e+06
3.35479e+06
3.45015e+06
3.54265e+06
3.63402e+06
3.7085e+06
3.78262e+06
3.83785e+06
3.86906e+06
3.88887e+06
3.88041e+06
3.83633e+06
3.75691e+06
3.66365e+06
3.49768e+06
3.29743e+06
3.07134e+06
2.88917e+06
2.6456e+06
2.38352e+06
2.17732e+06
2.09769e+06
1.92624e+06
1.7e+06
1.7569e+06
1.66979e+06
1.45571e+06
1.55974e+06
1.52358e+06
1.37486e+06
1.3874e+06
1.36658e+06
1.38763e+06
1.37698e+06
1.25698e+06
1.29246e+06
1.41226e+06
1.21062e+06
1.20769e+06
1.39378e+06
1.19514e+06
1.16761e+06
1.30664e+06
1.17767e+06
1.14883e+06
1.19214e+06
1.16079e+06
1.09991e+06
1.14347e+06
1.09141e+06
981064
1.07869e+06
1.05387e+06
858274
1.00239e+06
964350
838799
877601
896568
899278
782194
772207
887373
709529
663276
771553
704514
625636
594513
597918
573125
534130
478785
414688
486394
439768
311355
389914
359340
270354
274330
270887
256119
283874
148549
133892
224674
85310.2
79588.2
98921.9
454284
458945
468094
473345
472979
477462
489162
492353
499166
513091
518632
527705
539546
553197
588516
603778
606267
633003
678620
714376
729125
774740
826719
887678
955665
1.02414e+06
1.1111e+06
1.21684e+06
1.32714e+06
1.44563e+06
1.57525e+06
1.71402e+06
1.86807e+06
2.01351e+06
2.14695e+06
2.28755e+06
2.42521e+06
2.55248e+06
2.67987e+06
2.7969e+06
2.92089e+06
3.03426e+06
3.14053e+06
3.24702e+06
3.3558e+06
3.45139e+06
3.5444e+06
3.63663e+06
3.71211e+06
3.78779e+06
3.84413e+06
3.87684e+06
3.89835e+06
3.89152e+06
3.84859e+06
3.76953e+06
3.67618e+06
3.50929e+06
3.30676e+06
3.07742e+06
2.89272e+06
2.64682e+06
2.38149e+06
2.17385e+06
2.09334e+06
1.92146e+06
1.69524e+06
1.75267e+06
1.6672e+06
1.4531e+06
1.55771e+06
1.52245e+06
1.3738e+06
1.38611e+06
1.36435e+06
1.38551e+06
1.37383e+06
1.25243e+06
1.28838e+06
1.40834e+06
1.2041e+06
1.2026e+06
1.39145e+06
1.19068e+06
1.16331e+06
1.30512e+06
1.17574e+06
1.14654e+06
1.19049e+06
1.16021e+06
1.09929e+06
1.14305e+06
1.09226e+06
983456
1.07919e+06
1.05563e+06
863165
1.00353e+06
965517
841652
877703
895734
896931
780633
770358
883553
707631
661859
768655
702180
625162
593944
597050
572821
535010
480379
418134
486886
440904
315326
391166
360042
271986
274594
270251
254056
280457
146392
132955
221796
83155.1
79022.4
97933.2
454246
459031
468214
472807
472434
477413
488737
491390
497779
511215
516772
525558
536665
549374
584490
599749
601730
627668
673110
708815
722903
768377
820043
879873
948127
1.01649e+06
1.10362e+06
1.20815e+06
1.31908e+06
1.43955e+06
1.5697e+06
1.70977e+06
1.86387e+06
2.01036e+06
2.14652e+06
2.28721e+06
2.42524e+06
2.55215e+06
2.67952e+06
2.79741e+06
2.92062e+06
3.03442e+06
3.14032e+06
3.24725e+06
3.3571e+06
3.45275e+06
3.54633e+06
3.63918e+06
3.71562e+06
3.79294e+06
3.85052e+06
3.88481e+06
3.90773e+06
3.90262e+06
3.86099e+06
3.78229e+06
3.68825e+06
3.52024e+06
3.31546e+06
3.08226e+06
2.89365e+06
2.6452e+06
2.37714e+06
2.16657e+06
2.08369e+06
1.91211e+06
1.6867e+06
1.74173e+06
1.65798e+06
1.44633e+06
1.54951e+06
1.51483e+06
1.36889e+06
1.38185e+06
1.36124e+06
1.38287e+06
1.37252e+06
1.2536e+06
1.28977e+06
1.40994e+06
1.20631e+06
1.2057e+06
1.39441e+06
1.19241e+06
1.16449e+06
1.30677e+06
1.17658e+06
1.14658e+06
1.1899e+06
1.15958e+06
1.09846e+06
1.14082e+06
1.09071e+06
983219
1.07516e+06
1.05261e+06
865448
1.00031e+06
962580
842520
877067
894649
896323
782877
772224
882428
710681
665436
768862
701986
626525
594909
596572
571940
534842
480239
419001
484020
438931
317050
389142
357688
272466
274740
269953
253784
279677
148745
136313
221289
84651.3
81793.9
98611.6
453825
457847
467287
472051
471766
476532
487112
489873
496726
509834
514602
523300
534668
547246
581944
596251
598003
623959
669280
703830
716587
762046
813671
871928
939285
1.00764e+06
1.09576e+06
1.19936e+06
1.31034e+06
1.43233e+06
1.56371e+06
1.70597e+06
1.86029e+06
2.00718e+06
2.14594e+06
2.28711e+06
2.42529e+06
2.5514e+06
2.67866e+06
2.79716e+06
2.92021e+06
3.03464e+06
3.1401e+06
3.24738e+06
3.35788e+06
3.45405e+06
3.54863e+06
3.64234e+06
3.71945e+06
3.79829e+06
3.85733e+06
3.89344e+06
3.91824e+06
3.91445e+06
3.87428e+06
3.79651e+06
3.70205e+06
3.53243e+06
3.32522e+06
3.08861e+06
2.89636e+06
2.6435e+06
2.37366e+06
2.16131e+06
2.07627e+06
1.90435e+06
1.68003e+06
1.73427e+06
1.65178e+06
1.44203e+06
1.54474e+06
1.51031e+06
1.36603e+06
1.37941e+06
1.35864e+06
1.38005e+06
1.37013e+06
1.25181e+06
1.28765e+06
1.40786e+06
1.20358e+06
1.2037e+06
1.39363e+06
1.19057e+06
1.16218e+06
1.30649e+06
1.17585e+06
1.14511e+06
1.18883e+06
1.159e+06
1.09778e+06
1.13976e+06
1.09022e+06
984486
1.07386e+06
1.05176e+06
869517
999597
961695
844599
876693
893522
894658
783068
771844
879537
710563
666224
767133
700973
626510
594727
595972
571650
534689
481224
421517
482893
438150
320139
388844
356822
273710
274972
269382
252561
277329
148676
137032
219147
84374.8
82535.5
98083
453199
457557
467035
471087
470455
475851
486251
488658
495113
507879
512911
521530
532192
544055
578854
592995
594113
618932
663993
698452
710231
755199
806049
863263
930963
999197
1.08729e+06
1.18973e+06
1.30162e+06
1.42586e+06
1.558e+06
1.70176e+06
1.85635e+06
2.0053e+06
2.14592e+06
2.28701e+06
2.4253e+06
2.55101e+06
2.67842e+06
2.79767e+06
2.92001e+06
3.03495e+06
3.1399e+06
3.24664e+06
3.35964e+06
3.45573e+06
3.55094e+06
3.64535e+06
3.72356e+06
3.80434e+06
3.86463e+06
3.90222e+06
3.92903e+06
3.92726e+06
3.88864e+06
3.81128e+06
3.7163e+06
3.54552e+06
3.33576e+06
3.09488e+06
2.89862e+06
2.64171e+06
2.36981e+06
2.15499e+06
2.0679e+06
1.89616e+06
1.67266e+06
1.72538e+06
1.64502e+06
1.43737e+06
1.53876e+06
1.50529e+06
1.36316e+06
1.37633e+06
1.35582e+06
1.37725e+06
1.36728e+06
1.25016e+06
1.28622e+06
1.40577e+06
1.20146e+06
1.20312e+06
1.39331e+06
1.18924e+06
1.16078e+06
1.30646e+06
1.17521e+06
1.14395e+06
1.18765e+06
1.15826e+06
1.09713e+06
1.13825e+06
1.08968e+06
985915
1.07222e+06
1.05102e+06
873646
998534
960815
846907
876303
892449
893010
783486
771752
876509
710370
667463
765370
699779
626466
594950
595346
570915
535212
482435
423921
481790
437596
323553
388216
356110
275064
275148
268756
251414
274576
148619
138044
216955
84046.9
83621.8
97730.3
453008
456492
466380
470653
470112
475563
484531
487208
494161
506317
510418
518864
529804
541467
575450
588574
589684
614446
659391
692485
703098
748105
799046
854550
921275
989298
1.0786e+06
1.18022e+06
1.29199e+06
1.41759e+06
1.55143e+06
1.6976e+06
1.85249e+06
2.00189e+06
2.14544e+06
2.28691e+06
2.42574e+06
2.55069e+06
2.67798e+06
2.79776e+06
2.91992e+06
3.03572e+06
3.13999e+06
3.24704e+06
3.36086e+06
3.45738e+06
3.55367e+06
3.64893e+06
3.72777e+06
3.81028e+06
3.87216e+06
3.91201e+06
3.94067e+06
3.94015e+06
3.90346e+06
3.82724e+06
3.73164e+06
3.559e+06
3.34657e+06
3.1017e+06
2.90089e+06
2.63986e+06
2.36525e+06
2.14835e+06
2.05838e+06
1.88657e+06
1.66468e+06
1.71566e+06
1.63682e+06
1.43214e+06
1.53212e+06
1.49903e+06
1.35958e+06
1.37311e+06
1.35292e+06
1.37401e+06
1.36484e+06
1.24962e+06
1.28505e+06
1.40414e+06
1.2006e+06
1.20286e+06
1.39298e+06
1.18859e+06
1.15955e+06
1.30662e+06
1.17477e+06
1.14284e+06
1.18677e+06
1.15754e+06
1.09642e+06
1.13673e+06
1.08876e+06
986945
1.07021e+06
1.04917e+06
877385
996990
959145
848913
875846
891195
891551
784535
772024
874015
711774
669306
763904
699113
627227
594987
594899
570497
534993
483289
426195
480075
436437
326508
387169
354839
276158
275339
268076
250592
272285
149677
139458
215161
84543.3
84951.4
97406.5
451543
455335
465736
469012
467972
474484
483055
485524
492065
504240
508665
517406
527810
539215
573737
586554
587020
610572
655426
688192
697539
741103
790648
844872
911640
979317
1.06844e+06
1.16859e+06
1.28147e+06
1.40947e+06
1.54457e+06
1.69275e+06
1.84841e+06
1.99951e+06
2.14545e+06
2.2868e+06
2.42572e+06
2.55028e+06
2.67751e+06
2.79784e+06
2.91924e+06
3.0355e+06
3.13928e+06
3.25355e+06
3.3621e+06
3.45922e+06
3.55624e+06
3.65244e+06
3.73242e+06
3.81723e+06
3.88043e+06
3.92226e+06
3.95337e+06
3.95496e+06
3.91991e+06
3.84437e+06
3.74846e+06
3.57453e+06
3.35922e+06
3.10973e+06
2.90478e+06
2.64044e+06
2.36203e+06
2.1432e+06
2.05152e+06
1.87963e+06
1.65888e+06
1.70932e+06
1.63303e+06
1.43009e+06
1.52859e+06
1.49687e+06
1.35889e+06
1.37141e+06
1.3506e+06
1.37116e+06
1.3606e+06
1.24518e+06
1.28061e+06
1.39787e+06
1.19306e+06
1.19733e+06
1.38826e+06
1.18302e+06
1.1546e+06
1.30432e+06
1.17232e+06
1.14025e+06
1.18505e+06
1.15684e+06
1.0961e+06
1.13616e+06
1.0897e+06
990088
1.07086e+06
1.05055e+06
883435
997944
960211
852562
875608
889979
888774
783109
769970
869040
709616
668109
760092
696531
626705
594439
594173
569948
535863
485152
430006
480475
437492
331118
388098
355544
278311
275556
267062
248649
267876
147754
138298
211175
82273.4
84091.9
95934
451701
455861
465678
468689
467396
474054
482791
484486
490610
501993
506576
514993
524407
534711
568236
581185
581465
603789
647828
680130
689604
732787
781493
835084
901861
969367
1.05859e+06
1.15773e+06
1.27198e+06
1.40159e+06
1.5377e+06
1.68794e+06
1.84423e+06
1.99726e+06
2.14547e+06
2.28671e+06
2.42608e+06
2.5501e+06
2.67802e+06
2.79909e+06
2.91969e+06
3.03692e+06
3.13945e+06
3.25135e+06
3.3645e+06
3.46149e+06
3.5593e+06
3.65607e+06
3.73713e+06
3.82425e+06
3.88887e+06
3.93276e+06
3.96545e+06
3.96943e+06
3.93672e+06
3.86182e+06
3.76485e+06
3.58938e+06
3.37114e+06
3.11629e+06
2.90535e+06
2.63738e+06
2.3558e+06
2.13334e+06
2.03794e+06
1.86696e+06
1.64837e+06
1.69446e+06
1.62089e+06
1.42302e+06
1.51772e+06
1.48705e+06
1.35376e+06
1.36635e+06
1.34701e+06
1.36752e+06
1.35823e+06
1.24726e+06
1.28218e+06
1.39801e+06
1.19705e+06
1.20245e+06
1.39056e+06
1.18613e+06
1.15733e+06
1.30611e+06
1.17346e+06
1.14059e+06
1.18452e+06
1.15578e+06
1.09533e+06
1.13325e+06
1.08763e+06
990391
1.06669e+06
1.04688e+06
886725
994229
956955
854187
875080
888661
887967
785929
772003
867057
712928
672440
759720
696247
628167
595518
593874
568793
535673
485843
431318
477492
435553
333369
385765
353143
279291
275738
266467
248482
266085
150513
141614
209869
84286.4
87109.8
96485.6
451317
454519
463922
467964
466669
472334
480651
482524
489466
500096
503757
512150
521942
532234
564481
576411
576993
599161
642727
673378
682072
724828
773061
825144
890492
957727
1.04799e+06
1.14641e+06
1.26079e+06
1.39124e+06
1.5296e+06
1.68305e+06
1.84013e+06
1.99346e+06
2.14552e+06
2.28663e+06
2.42678e+06
2.54965e+06
2.6775e+06
2.79904e+06
2.91951e+06
3.03793e+06
3.14002e+06
3.24769e+06