/*--------------------------------*- C++ -*----------------------------------*\
| =========                 |                                                 |
| \\      /  F ield         | OpenFOAM: The Open Source CFD Toolbox           |
|  \\    /   O peration     | Version:  v2012                                 |
|   \\  /    A nd           | Website:  www.openfoam.com                      |
|    \\/     M anipulation  |                                                 |
\*---------------------------------------------------------------------------*/
FoamFile
{
    version     2.0;
    format      ascii;
    class       surfaceScalarField;
    location    "1e-06";
    object      phi;
}
// * * * * * * * * * * * * * * * * * * * * * * * * * * * * * * * * * * * * * //

dimensions      [0 3 -1 0 0 0 0];
oriented        oriented;


internalField   nonuniform List<scalar> 
19979
(
3.02383e-06
8.90301e-06
2.74558e-06
9.07156e-06
2.43798e-06
9.74906e-06
2.05034e-06
9.57595e-06
1.67644e-06
8.52713e-06
1.36409e-06
8.50801e-06
1.15431e-06
6.67196e-06
9.70877e-07
4.73666e-06
8.088e-07
2.16155e-06
7.86601e-07
-5.3873e-07
8.42944e-07
-1.04746e-06
1.03424e-06
-3.91994e-06
1.25912e-06
-6.6988e-06
1.53778e-06
-9.04272e-06
1.95702e-06
-1.07907e-05
2.43562e-06
-1.10194e-05
2.91277e-06
-1.20605e-05
3.33379e-06
-1.30013e-05
3.78546e-06
-1.34964e-05
4.29602e-06
-1.36249e-05
4.84979e-06
-1.39435e-05
5.31826e-06
-1.44626e-05
5.72245e-06
-1.52155e-05
6.2082e-06
-1.59195e-05
6.76191e-06
-1.59963e-05
7.38018e-06
-1.78509e-05
7.97554e-06
-1.95126e-05
8.58346e-06
-2.03024e-05
9.26373e-06
-2.05702e-05
1.00708e-05
-2.19391e-05
1.08666e-05
-2.26318e-05
1.15869e-05
-2.2331e-05
1.23106e-05
-2.10556e-05
1.30778e-05
-2.09138e-05
1.38797e-05
-1.91916e-05
1.45211e-05
-1.65499e-05
1.4963e-05
-1.28056e-05
1.53095e-05
-9.02089e-06
1.56811e-05
-8.14687e-06
1.59921e-05
-5.45409e-06
1.62285e-05
-6.78351e-06
1.63444e-05
-3.59931e-06
1.64041e-05
-7.6251e-07
1.64733e-05
-2.4699e-07
1.65212e-05
2.32295e-06
1.64777e-05
4.57825e-06
1.62986e-05
6.34186e-06
1.61604e-05
4.36286e-06
1.6068e-05
4.02987e-06
1.60091e-05
5.39295e-06
1.58957e-05
6.00343e-06
1.57283e-05
5.07435e-06
1.56437e-05
2.99751e-06
1.56359e-05
3.15805e-06
1.56748e-05
1.8215e-06
1.57211e-05
-9.66751e-07
1.58891e-05
-4.53223e-06
1.61348e-05
-4.98236e-06
1.65091e-05
-8.78078e-06
1.69908e-05
-1.43337e-05
1.77412e-05
-2.17591e-05
1.86352e-05
-2.25727e-05
1.96908e-05
-2.95531e-05
2.09514e-05
-3.83244e-05
2.26012e-05
-4.67655e-05
2.43687e-05
-4.79427e-05
2.63433e-05
-5.70092e-05
2.86538e-05
-6.67469e-05
-6.87573e-05
3.92238e-06
9.21792e-06
3.58713e-06
9.40545e-06
3.21964e-06
1.01166e-05
2.86432e-06
9.93127e-06
2.55076e-06
8.83885e-06
2.21379e-06
8.84228e-06
1.9214e-06
6.96435e-06
1.71241e-06
4.94553e-06
1.61492e-06
2.25904e-06
1.62301e-06
-5.46824e-07
1.64053e-06
-1.06499e-06
1.76058e-06
-4.04001e-06
2.01775e-06
-6.95648e-06
2.3877e-06
-9.41267e-06
2.82234e-06
-1.12254e-05
3.24768e-06
-1.14447e-05
3.70467e-06
-1.25175e-05
4.20414e-06
-1.35008e-05
4.72075e-06
-1.4013e-05
5.2228e-06
-1.4127e-05
5.70888e-06
-1.44296e-05
6.18859e-06
-1.49423e-05
6.6763e-06
-1.57033e-05
7.17935e-06
-1.64226e-05
7.68356e-06
-1.65006e-05
8.24421e-06
-1.84116e-05
8.87836e-06
-2.01468e-05
9.55677e-06
-2.09809e-05
1.02362e-05
-2.12497e-05
1.09806e-05
-2.26836e-05
1.17648e-05
-2.3416e-05
1.25575e-05
-2.31238e-05
1.33241e-05
-2.18223e-05
1.40818e-05
-2.16715e-05
1.48366e-05
-1.99465e-05
1.55089e-05
-1.72223e-05
1.60378e-05
-1.33345e-05
1.64004e-05
-9.38358e-06
1.67319e-05
-8.4785e-06
1.69931e-05
-5.71538e-06
1.72614e-05
-7.05192e-06
1.74465e-05
-3.78448e-06
1.75332e-05
-8.49401e-07
1.75934e-05
-3.07325e-07
1.75912e-05
2.32494e-06
1.75305e-05
4.63882e-06
1.74202e-05
6.45195e-06
1.73421e-05
4.44087e-06
1.72502e-05
4.12155e-06
1.71304e-05
5.51258e-06
1.70155e-05
6.11809e-06
1.69363e-05
5.1533e-06
1.68881e-05
3.04553e-06
1.6842e-05
3.20389e-06
1.68476e-05
1.8157e-06
1.69587e-05
-1.07811e-06
1.71968e-05
-4.77065e-06
1.74134e-05
-5.19918e-06
1.77684e-05
-9.13598e-06
1.83275e-05
-1.4893e-05
1.91497e-05
-2.25814e-05
1.99899e-05
-2.3413e-05
2.10674e-05
-3.06307e-05
2.24609e-05
-3.9718e-05
2.41599e-05
-4.84645e-05
2.58951e-05
-4.96779e-05
2.79492e-05
-5.90633e-05
3.04155e-05
-6.92132e-05
-7.12923e-05
4.10645e-06
9.56412e-06
3.81954e-06
9.69014e-06
3.51663e-06
1.04189e-05
3.10594e-06
1.0342e-05
2.70228e-06
9.24223e-06
2.36734e-06
9.17362e-06
2.15259e-06
7.17809e-06
1.95443e-06
5.14322e-06
1.76914e-06
2.44431e-06
1.73982e-06
-5.17503e-07
1.80323e-06
-1.12841e-06
2.01277e-06
-4.25112e-06
2.24943e-06
-7.19326e-06
2.53066e-06
-9.69391e-06
2.97079e-06
-1.16655e-05
3.48898e-06
-1.19629e-05
3.99892e-06
-1.30275e-05
4.43894e-06
-1.39409e-05
4.91081e-06
-1.44849e-05
5.45487e-06
-1.46711e-05
6.0491e-06
-1.50239e-05
6.53488e-06
-1.54284e-05
6.93684e-06
-1.61053e-05
7.4291e-06
-1.69149e-05
8.00132e-06
-1.70729e-05
8.64227e-06
-1.90526e-05
9.2449e-06
-2.07495e-05
9.85966e-06
-2.15957e-05
1.05599e-05
-2.195e-05
1.14033e-05
-2.35271e-05
1.22244e-05
-2.42372e-05
1.29619e-05
-2.38614e-05
1.37107e-05
-2.25712e-05
1.45153e-05
-2.24762e-05
1.53706e-05
-2.08018e-05
1.60451e-05
-1.78969e-05
1.65033e-05
-1.37928e-05
1.68655e-05
-9.74592e-06
1.72612e-05
-8.87427e-06
1.75961e-05
-6.05041e-06
1.78422e-05
-7.29817e-06
1.79611e-05
-3.9035e-06
1.80272e-05
-9.15731e-07
1.81064e-05
-3.86591e-07
1.8173e-05
2.25813e-06
1.81457e-05
4.66593e-06
1.79703e-05
6.62716e-06
1.78345e-05
4.5764e-06
1.77515e-05
4.20438e-06
1.77129e-05
5.55098e-06
1.7613e-05
6.21772e-06
1.74506e-05
5.31551e-06
1.73701e-05
3.12572e-06
1.73802e-05
3.19357e-06
1.74422e-05
1.75332e-06
1.75012e-05
-1.13735e-06
1.76868e-05
-4.95659e-06
1.79644e-05
-5.47706e-06
1.83775e-05
-9.54932e-06
1.88889e-05
-1.54045e-05
1.96853e-05
-2.3378e-05
2.06471e-05
-2.43749e-05
2.17647e-05
-3.17483e-05
2.30865e-05
-4.10398e-05
2.48295e-05
-5.02075e-05
2.67034e-05
-5.15518e-05
2.87818e-05
-6.11416e-05
3.12215e-05
-7.1653e-05
-7.40114e-05
5.14136e-06
9.88628e-06
4.79113e-06
1.00391e-05
4.42588e-06
1.07841e-05
4.056e-06
1.07118e-05
3.72029e-06
9.57594e-06
3.36284e-06
9.52798e-06
3.05108e-06
7.48985e-06
2.82673e-06
5.36742e-06
2.71535e-06
2.55568e-06
2.72058e-06
-5.22736e-07
2.74005e-06
-1.14788e-06
2.86947e-06
-4.38062e-06
3.14016e-06
-7.46452e-06
3.52644e-06
-1.00802e-05
3.98229e-06
-1.21214e-05
4.4383e-06
-1.2419e-05
4.92457e-06
-1.35138e-05
5.45094e-06
-1.44673e-05
5.99408e-06
-1.50281e-05
6.5276e-06
-1.52047e-05
7.04115e-06
-1.55375e-05
7.53969e-06
-1.59271e-05
8.03955e-06
-1.66053e-05
8.55087e-06
-1.74263e-05
9.06538e-06
-1.75874e-05
9.63859e-06
-1.96259e-05
1.02817e-05
-2.13928e-05
1.09734e-05
-2.22875e-05
1.16694e-05
-2.26461e-05
1.24383e-05
-2.4296e-05
1.32425e-05
-2.50414e-05
1.40583e-05
-2.46772e-05
1.48521e-05
-2.33651e-05
1.56427e-05
-2.32669e-05
1.64387e-05
-2.15979e-05
1.71436e-05
-1.86019e-05
1.76968e-05
-1.43462e-05
1.80765e-05
-1.01258e-05
1.84267e-05
-9.22452e-06
1.87048e-05
-6.32868e-06
1.89842e-05
-7.57769e-06
1.91779e-05
-4.09736e-06
1.9273e-05
-1.01092e-06
1.93413e-05
-4.55048e-07
1.93528e-05
2.24645e-06
1.93066e-05
4.71195e-06
1.92061e-05
6.72741e-06
1.91367e-05
4.64562e-06
1.9055e-05
4.28579e-06
1.89507e-05
5.65505e-06
1.88495e-05
6.31869e-06
1.87861e-05
5.37872e-06
1.8746e-05
3.16552e-06
1.8715e-05
3.22427e-06
1.87412e-05
1.72685e-06
1.8872e-05
-1.26846e-06
1.91348e-05
-5.21975e-06
1.93814e-05
-5.72394e-06
1.97746e-05
-9.94275e-06
2.03802e-05
-1.60104e-05
2.12571e-05
-2.4255e-05
2.21498e-05
-2.52678e-05
2.32902e-05
-3.28888e-05
2.47569e-05
-4.25066e-05
2.65523e-05
-5.2003e-05
2.839e-05
-5.33895e-05
3.05646e-05
-6.33162e-05
3.31846e-05
-7.4273e-05
-7.67214e-05
5.36394e-06
1.02438e-05
5.08064e-06
1.032e-05
4.78847e-06
1.10754e-05
4.35502e-06
1.11453e-05
3.90819e-06
1.00228e-05
3.5563e-06
9.87617e-06
3.34378e-06
7.70094e-06
3.13515e-06
5.57552e-06
2.91227e-06
2.77855e-06
2.87184e-06
-4.82305e-07
2.94598e-06
-1.22203e-06
3.1848e-06
-4.61961e-06
3.42627e-06
-7.70599e-06
3.7024e-06
-1.03563e-05
4.16696e-06
-1.25859e-05
4.7354e-06
-1.29874e-05
5.28319e-06
-1.40616e-05
5.73394e-06
-1.49181e-05
6.22148e-06
-1.55157e-05
6.8044e-06
-1.57877e-05
7.45226e-06
-1.61855e-05
7.95705e-06
-1.64319e-05
8.34444e-06
-1.69927e-05
8.84072e-06
-1.79227e-05
9.43549e-06
-1.81823e-05
1.01036e-05
-2.02941e-05
1.07058e-05
-2.1995e-05
1.1317e-05
-2.28988e-05
1.20352e-05
-2.33644e-05
1.29218e-05
-2.51826e-05
1.37672e-05
-2.58869e-05
1.45108e-05
-2.54208e-05
1.52803e-05
-2.41347e-05
1.61249e-05
-2.41116e-05
1.70388e-05
-2.25119e-05
1.77442e-05
-1.93073e-05
1.82107e-05
-1.48127e-05
1.85877e-05
-1.05029e-05
1.90113e-05
-9.64822e-06
1.93758e-05
-6.69331e-06
1.96294e-05
-7.83143e-06
1.97441e-05
-4.21221e-06
1.98145e-05
-1.08148e-06
1.99046e-05
-5.45293e-07
1.99969e-05
2.154e-06
1.99896e-05
4.71908e-06
1.98134e-05
6.90335e-06
1.9678e-05
4.78086e-06
1.96073e-05
4.35626e-06
1.96004e-05
5.66176e-06
1.95164e-05
6.40241e-06
1.93556e-05
5.53926e-06
1.92778e-05
3.24306e-06
1.93127e-05
3.1891e-06
1.94045e-05
1.6348e-06
1.94748e-05
-1.33911e-06
1.96767e-05
-5.42197e-06
1.99938e-05
-6.04132e-06
2.04548e-05
-1.0404e-05
2.15588e-05
-1.71146e-05
2.24093e-05
-2.51057e-05
2.28816e-05
-2.57402e-05
2.4065e-05
-3.40723e-05
2.54434e-05
-4.3885e-05
2.72862e-05
-5.38458e-05
2.92819e-05
-5.53852e-05
3.14788e-05
-6.55132e-05
3.40616e-05
-7.68558e-05
3.69876e-05
-7.96474e-05
-8.70447e-05
6.5744e-06
1.05736e-05
6.23279e-06
1.06562e-05
5.85689e-06
1.14495e-05
5.4743e-06
1.15256e-05
5.11201e-06
1.03729e-05
4.73835e-06
1.02372e-05
4.40509e-06
8.03409e-06
4.16752e-06
5.81149e-06
4.04102e-06
2.90495e-06
4.04218e-06
-4.83454e-07
4.06432e-06
-1.24417e-06
4.20415e-06
-4.75944e-06
4.4857e-06
-7.98754e-06
4.88717e-06
-1.07578e-05
5.36978e-06
-1.30686e-05
5.85997e-06
-1.34776e-05
6.37622e-06
-1.45779e-05
6.92783e-06
-1.54697e-05
7.49688e-06
-1.60848e-05
8.06533e-06
-1.63562e-05
8.60439e-06
-1.67246e-05
9.12393e-06
-1.69515e-05
9.63993e-06
-1.75088e-05
1.01582e-05
-1.8441e-05
1.0683e-05
-1.87071e-05
1.12674e-05
-2.08786e-05
1.19143e-05
-2.2642e-05
1.26149e-05
-2.35994e-05
1.33246e-05
-2.40742e-05
1.41154e-05
-2.59734e-05
1.49364e-05
-2.6708e-05
1.57711e-05
-2.62555e-05
1.6586e-05
-2.49496e-05
1.74107e-05
-2.49363e-05
1.82433e-05
-2.33446e-05
1.89786e-05
-2.00427e-05
1.95598e-05
-1.5394e-05
1.99498e-05
-1.08931e-05
2.03175e-05
-1.0016e-05
2.06107e-05
-6.98669e-06
2.09015e-05
-8.12233e-06
2.11017e-05
-4.41254e-06
2.12026e-05
-1.18253e-06
2.12787e-05
-6.21494e-07
2.13047e-05
2.12786e-06
2.12749e-05
4.74862e-06
2.11858e-05
6.99226e-06
2.1126e-05
4.84054e-06
2.10569e-05
4.42518e-06
2.09725e-05
5.74594e-06
2.08869e-05
6.48771e-06
2.08456e-05
5.58036e-06
2.08127e-05
3.27566e-06
2.08014e-05
3.20016e-06
2.08524e-05
1.58348e-06
2.10046e-05
-1.49162e-06
2.12945e-05
-5.71223e-06
2.15761e-05
-6.32317e-06
2.20132e-05
-1.08414e-05
2.26684e-05
-1.77701e-05
2.35911e-05
-2.60285e-05
2.45551e-05
-2.67044e-05
2.57631e-05
-3.52804e-05
2.73061e-05
-4.54281e-05
2.92069e-05
-5.57467e-05
3.11633e-05
-5.73417e-05
3.34814e-05
-6.78313e-05
3.628e-05
-7.96544e-05
3.91922e-05
-8.25596e-05
-9.03119e-05
7.92822e-06
1.08684e-05
7.51231e-06
1.10721e-05
7.04858e-06
1.19133e-05
6.72763e-06
1.18457e-05
6.45891e-06
1.0635e-05
6.07006e-06
1.06238e-05
5.59878e-06
8.50537e-06
5.32558e-06
6.08469e-06
5.31061e-06
2.91805e-06
5.36541e-06
-5.38256e-07
5.32821e-06
-1.20696e-06
5.36919e-06
-4.80042e-06
5.69511e-06
-8.31376e-06
6.22101e-06
-1.12837e-05
6.72631e-06
-1.35739e-05
7.11551e-06
-1.38668e-05
7.59311e-06
-1.50555e-05
8.26323e-06
-1.61399e-05
8.92453e-06
-1.67462e-05
9.47423e-06
-1.69059e-05
9.90162e-06
-1.7152e-05
1.04321e-05
-1.7482e-05
1.10765e-05
-1.81533e-05
1.16279e-05
-1.89924e-05
1.20679e-05
-1.91472e-05
1.25607e-05
-2.13714e-05
1.32606e-05
-2.33419e-05
1.4054e-05
-2.43929e-05
1.47549e-05
-2.47752e-05
1.54255e-05
-2.6644e-05
1.62133e-05
-2.7496e-05
1.71514e-05
-2.71936e-05
1.80176e-05
-2.58158e-05
1.88141e-05
-2.57329e-05
1.95544e-05
-2.4085e-05
2.0311e-05
-2.07994e-05
2.10077e-05
-1.60909e-05
2.14193e-05
-1.13049e-05
2.17177e-05
-1.03145e-05
2.19387e-05
-7.20781e-06
2.2269e-05
-8.45278e-06
2.25496e-05
-4.69319e-06
2.26881e-05
-1.32122e-06
2.27498e-05
-6.8329e-07
2.26936e-05
2.1839e-06
2.2638e-05
4.80403e-06
2.26481e-05
6.982e-06
2.26716e-05
4.81682e-06
2.26084e-05
4.48821e-06
2.2431e-05
5.92318e-06
2.23398e-05
6.57866e-06
2.24331e-05
5.48686e-06
2.24554e-05
3.25308e-06
2.23936e-05
3.2617e-06
2.23974e-05
1.5794e-06
2.26404e-05
-1.73496e-06
2.30283e-05
-6.10042e-06
2.32702e-05
-6.56533e-06
2.36773e-05
-1.12489e-05
2.44337e-05
-1.85266e-05
2.54567e-05
-2.70517e-05
2.63429e-05
-2.75908e-05
2.75731e-05
-3.65107e-05
2.93054e-05
-4.71604e-05
3.12741e-05
-5.77155e-05
3.31921e-05
-5.92597e-05
3.56656e-05
-7.03048e-05
3.87012e-05
-8.269e-05
4.15745e-05
-8.54329e-05
-9.37172e-05
8.24915e-06
1.12063e-05
7.91441e-06
1.14057e-05
7.52414e-06
1.23035e-05
7.13027e-06
1.22396e-05
6.74213e-06
1.10206e-05
6.35612e-06
1.10077e-05
6.00757e-06
8.85393e-06
5.75748e-06
6.33479e-06
5.61531e-06
3.06023e-06
5.60948e-06
-5.32427e-07
5.63836e-06
-1.23583e-06
5.79268e-06
-4.95475e-06
6.08512e-06
-8.60689e-06
6.49509e-06
-1.16937e-05
7.00322e-06
-1.4082e-05
7.5331e-06
-1.43967e-05
8.0863e-06
-1.56087e-05
8.66081e-06
-1.67144e-05
9.24996e-06
-1.73354e-05
9.85282e-06
-1.75088e-05
1.04193e-05
-1.77185e-05
1.09604e-05
-1.80238e-05
1.14917e-05
-1.86847e-05
1.20159e-05
-1.95167e-05
1.25533e-05
-1.96846e-05
1.31523e-05
-2.19704e-05
1.38004e-05
-2.39901e-05
1.44977e-05
-2.50903e-05
1.52155e-05
-2.54931e-05
1.60271e-05
-2.74556e-05
1.68687e-05
-2.83376e-05
1.77159e-05
-2.80408e-05
1.85418e-05
-2.66418e-05
1.93963e-05
-2.65874e-05
2.02578e-05
-2.49466e-05
2.10142e-05
-2.1556e-05
2.16262e-05
-1.6703e-05
2.20273e-05
-1.17061e-05
2.24123e-05
-1.06996e-05
2.27223e-05
-7.51793e-06
2.30231e-05
-8.75363e-06
2.32249e-05
-4.89517e-06
2.33291e-05
-1.42546e-06
2.34125e-05
-7.66814e-07
2.34561e-05
2.14015e-06
2.3445e-05
4.81492e-06
2.33671e-05
7.05975e-06
2.33157e-05
4.86804e-06
2.32626e-05
4.54114e-06
2.32035e-05
5.98211e-06
2.31416e-05
6.64035e-06
2.31183e-05
5.50998e-06
2.30951e-05
3.27602e-06
2.31096e-05
3.24695e-06
2.31915e-05
1.49725e-06
2.33656e-05
-1.90938e-06
2.36812e-05
-6.41638e-06
2.4005e-05
-6.88941e-06
2.44943e-05
-1.17384e-05
2.51909e-05
-1.92234e-05
2.61707e-05
-2.80316e-05
2.72123e-05
-2.86326e-05
2.84997e-05
-3.77981e-05
3.0124e-05
-4.87848e-05
3.2138e-05
-5.97295e-05
3.4242e-05
-6.13637e-05
3.6747e-05
-7.28098e-05
3.97303e-05
-8.56734e-05
4.28565e-05
-8.85591e-05
-9.72267e-05
9.79576e-06
1.15033e-05
9.37338e-06
1.18281e-05
8.8965e-06
1.27804e-05
8.5644e-06
1.25711e-05
8.27263e-06
1.13069e-05
7.87089e-06
1.14078e-05
7.40177e-06
9.32306e-06
7.11719e-06
6.61937e-06
7.07647e-06
3.0993e-06
7.13094e-06
-5.86893e-07
7.09553e-06
-1.20041e-06
7.1576e-06
-5.01682e-06
7.49931e-06
-8.95008e-06
8.03192e-06
-1.22263e-05
8.56732e-06
-1.46175e-05
8.99927e-06
-1.48287e-05
9.51458e-06
-1.61241e-05
1.0209e-05
-1.74089e-05
1.08967e-05
-1.80231e-05
1.1473e-05
-1.80853e-05
1.19374e-05
-1.81829e-05
1.24847e-05
-1.85719e-05
1.31239e-05
-1.93239e-05
1.3683e-05
-2.00758e-05
1.41287e-05
-2.01304e-05
1.46338e-05
-2.24755e-05
1.53355e-05
-2.46919e-05
1.61267e-05
-2.58815e-05
1.68309e-05
-2.61973e-05
1.75237e-05
-2.81485e-05
1.83274e-05
-2.91413e-05
1.92675e-05
-2.8981e-05
2.01481e-05
-2.75224e-05
2.09615e-05
-2.74008e-05
2.17337e-05
-2.57188e-05
2.25085e-05
-2.23311e-05
2.32216e-05
-1.74163e-05
2.3643e-05
-1.21276e-05
2.39543e-05
-1.1011e-05
2.41953e-05
-7.75901e-06
2.45327e-05
-9.09117e-06
2.48099e-05
-5.17242e-06
2.49525e-05
-1.56813e-06
2.5018e-05
-8.3251e-07
2.4984e-05
2.17401e-06
2.49478e-05
4.85102e-06
2.49639e-05
7.04354e-06
2.49991e-05
4.83261e-06
2.4952e-05
4.58809e-06
2.48107e-05
6.12327e-06
2.47495e-05
6.70132e-06
2.48475e-05
5.41181e-06
2.48875e-05
3.23574e-06
2.4848e-05
3.28622e-06
2.48818e-05
1.46315e-06
2.51524e-05
-2.1802e-06
2.55717e-05
-6.83596e-06
2.58543e-05
-7.17233e-06
2.63133e-05
-1.21976e-05
2.71287e-05
-2.00391e-05
2.82149e-05
-2.9118e-05
2.91748e-05
-2.95926e-05
3.0487e-05
-3.91104e-05
3.23159e-05
-5.06138e-05
3.44155e-05
-6.18292e-05
3.64936e-05
-6.34419e-05
3.91731e-05
-7.54893e-05
4.24075e-05
-8.89078e-05
4.55009e-05
-9.16526e-05
-0.000100871
1.01858e-05
1.18532e-05
9.85624e-06
1.21563e-05
9.47049e-06
1.31662e-05
9.04369e-06
1.29979e-05
8.62576e-06
1.17235e-05
8.2312e-06
1.18006e-05
7.88038e-06
9.67389e-06
7.61976e-06
6.87991e-06
7.45856e-06
3.26051e-06
7.44384e-06
-5.7217e-07
7.48582e-06
-1.24238e-06
7.66364e-06
-5.19463e-06
7.96616e-06
-9.2533e-06
8.37734e-06
-1.26375e-05
8.91693e-06
-1.51571e-05
9.50208e-06
-1.54139e-05
1.01024e-05
-1.67244e-05
1.06955e-05
-1.8002e-05
1.12968e-05
-1.86244e-05
1.1936e-05
-1.87245e-05
1.25337e-05
-1.87806e-05
1.30883e-05
-1.91274e-05
1.36197e-05
-1.98553e-05
1.41418e-05
-2.0598e-05
1.46992e-05
-2.06878e-05
1.53194e-05
-2.30957e-05
1.59602e-05
-2.53328e-05
1.66422e-05
-2.65635e-05
1.73648e-05
-2.692e-05
1.82012e-05
-2.89849e-05
1.90629e-05
-3.00035e-05
1.99121e-05
-2.98302e-05
2.07429e-05
-2.83532e-05
2.16208e-05
-2.82787e-05
2.2512e-05
-2.66102e-05
2.32831e-05
-2.31025e-05
2.39121e-05
-1.80454e-05
2.43205e-05
-1.25362e-05
2.47265e-05
-1.14171e-05
2.50603e-05
-8.09292e-06
2.53637e-05
-9.39466e-06
2.55602e-05
-5.369e-06
2.56626e-05
-1.67061e-06
2.57533e-05
-9.23329e-07
2.58199e-05
2.10737e-06
2.58308e-05
4.83996e-06
2.57608e-05
7.11338e-06
2.5714e-05
4.87922e-06
2.56798e-05
4.62217e-06
2.56543e-05
6.14866e-06
2.5627e-05
6.72846e-06
2.56081e-05
5.43043e-06
2.56009e-05
3.2428e-06
2.56476e-05
3.23924e-06
2.57684e-05
1.34215e-06
2.5962e-05
-2.37411e-06
2.63015e-05
-7.17577e-06
2.66766e-05
-7.54765e-06
2.72282e-05
-1.27494e-05
2.7973e-05
-2.07841e-05
2.90097e-05
-3.01548e-05
3.01344e-05
-3.07175e-05
3.15089e-05
-4.0485e-05
3.3225e-05
-5.233e-05
3.53756e-05
-6.39799e-05
3.76627e-05
-6.5729e-05
4.03709e-05
-7.81974e-05
4.35423e-05
-9.20793e-05
4.69002e-05
-9.50106e-05
-0.000104625
1.19735e-05
1.21626e-05
1.15506e-05
1.25792e-05
1.10865e-05
1.36303e-05
1.07193e-05
1.3365e-05
1.03946e-05
1.20438e-05
9.98279e-06
1.2211e-05
9.52402e-06
1.01327e-05
9.22868e-06
7.17526e-06
9.16266e-06
3.32556e-06
9.21764e-06
-6.27136e-07
9.19046e-06
-1.2152e-06
9.28313e-06
-5.2873e-06
9.64565e-06
-9.61745e-06
1.01903e-05
-1.31821e-05
1.07672e-05
-1.5734e-05
1.12586e-05
-1.59053e-05
1.18224e-05
-1.72884e-05
1.25375e-05
-1.87171e-05
1.32458e-05
-1.93328e-05
1.38467e-05
-1.93254e-05
1.4342e-05
-1.9276e-05
1.48925e-05
-1.96785e-05
1.55094e-05
-2.04724e-05
1.60584e-05
-2.1147e-05
1.65164e-05
-2.11458e-05
1.70367e-05
-2.3616e-05
1.77341e-05
-2.60303e-05
1.85146e-05
-2.7344e-05
1.92182e-05
-2.76236e-05
1.99362e-05
-2.9703e-05
2.07566e-05
-3.08239e-05
2.16946e-05
-3.07682e-05
2.25846e-05
-2.92431e-05
2.34082e-05
-2.91023e-05
2.42047e-05
-2.74067e-05
2.49847e-05
-2.38829e-05
2.56972e-05
-1.87581e-05
2.61215e-05
-1.29606e-05
2.64457e-05
-1.17415e-05
2.67105e-05
-8.35778e-06
2.70458e-05
-9.73002e-06
2.73145e-05
-5.63775e-06
2.74564e-05
-1.81262e-06
2.75242e-05
-9.91208e-07
2.75162e-05
2.1153e-06
2.7501e-05
4.85501e-06
2.75202e-05
7.09407e-06
2.75658e-05
4.83352e-06
2.75372e-05
4.65059e-06
2.74398e-05
6.24592e-06
2.74148e-05
6.75326e-06
2.75095e-05
5.33559e-06
2.75742e-05
3.17792e-06
2.75624e-05
3.25079e-06
2.76328e-05
1.27153e-06
2.79304e-05
-2.67201e-06
2.83815e-05
-7.6271e-06
2.87125e-05
-7.8789e-06
2.9232e-05
-1.32692e-05
3.01057e-05
-2.16581e-05
3.1258e-05
-3.13072e-05
3.2305e-05
-3.17647e-05
3.37146e-05
-4.18946e-05
3.56605e-05
-5.42761e-05
3.79144e-05
-6.62338e-05
4.0178e-05
-6.79927e-05
4.30692e-05
-8.10887e-05
4.64997e-05
-9.55098e-05
4.98315e-05
-9.83423e-05
-0.000108518
1.24432e-05
1.25324e-05
1.21242e-05
1.28964e-05
1.17523e-05
1.40022e-05
1.12928e-05
1.38245e-05
1.08264e-05
1.25094e-05
1.04245e-05
1.26113e-05
1.00861e-05
1.0471e-05
9.81772e-06
7.44327e-06
9.6317e-06
3.51158e-06
9.60714e-06
-6.02563e-07
9.67159e-06
-1.27964e-06
9.88896e-06
-5.50531e-06
1.02062e-05
-9.93528e-06
1.06174e-05
-1.35934e-05
1.12011e-05
-1.63177e-05
1.18652e-05
-1.65694e-05
1.25272e-05
-1.79503e-05
1.31295e-05
-1.93195e-05
1.37313e-05
-1.99346e-05
1.44075e-05
-2.00017e-05
1.50412e-05
-1.99098e-05
1.55943e-05
-2.02328e-05
1.60962e-05
-2.09743e-05
1.6595e-05
-2.16458e-05
1.71816e-05
-2.17325e-05
1.78295e-05
-2.42639e-05
1.84557e-05
-2.66566e-05
1.9109e-05
-2.79974e-05
1.98329e-05
-2.83476e-05
2.07018e-05
-3.05719e-05
2.15862e-05
-3.17095e-05
2.24309e-05
-3.16129e-05
2.32583e-05
-3.00705e-05
2.41563e-05
-3.00003e-05
2.50769e-05
-2.83275e-05
2.58481e-05
-2.46547e-05
2.64674e-05
-1.93775e-05
2.68742e-05
-1.33675e-05
2.7302e-05
-1.21694e-05
2.7665e-05
-8.7208e-06
2.79637e-05
-1.00289e-05
2.81462e-05
-5.82025e-06
2.82414e-05
-1.9079e-06
2.83387e-05
-1.08858e-06
2.84323e-05
2.02154e-06
2.84678e-05
4.81945e-06
2.84021e-05
7.15966e-06
2.83563e-05
4.87915e-06
2.83441e-05
4.66275e-06
2.83627e-05
6.22709e-06
2.83745e-05
6.74138e-06
2.83543e-05
5.35558e-06
2.8366e-05
3.16611e-06
2.84513e-05
3.16522e-06
2.86192e-05
1.10347e-06
2.88309e-05
-2.88401e-06
2.91931e-05
-7.98952e-06
2.96283e-05
-8.31438e-06
3.02524e-05
-1.38935e-05
3.10448e-05
-2.24507e-05
3.21403e-05
-3.24027e-05
3.33618e-05
-3.29865e-05
3.48405e-05
-4.33733e-05
3.66685e-05
-5.61042e-05
3.89792e-05
-6.85446e-05
4.14757e-05
-7.04893e-05
4.43908e-05
-8.4004e-05
4.77463e-05
-9.88653e-05
5.1355e-05
-0.000101951
-0.000112529
1.45059e-05
1.28594e-05
1.40869e-05
1.33153e-05
1.36257e-05
1.44634e-05
1.32299e-05
1.42203e-05
1.28671e-05
1.28695e-05
1.24437e-05
1.30333e-05
1.20053e-05
1.09094e-05
1.17045e-05
7.74406e-06
1.1612e-05
3.6041e-06
1.16683e-05
-6.58844e-07
1.16606e-05
-1.27195e-06
1.17988e-05
-5.64347e-06
1.21941e-05
-1.03324e-05
1.27697e-05
-1.4169e-05
1.34057e-05
-1.69537e-05
1.39792e-05
-1.71429e-05
1.46029e-05
-1.85741e-05
1.53279e-05
-2.00445e-05
1.60461e-05
-2.0653e-05
1.66716e-05
-2.06272e-05
1.71926e-05
-2.04308e-05
1.77309e-05
-2.07718e-05
1.83016e-05
-2.15449e-05
1.88179e-05
-2.21622e-05
1.92884e-05
-2.22031e-05
1.98217e-05
-2.47972e-05
2.05065e-05
-2.73414e-05
2.12666e-05
-2.87575e-05
2.1967e-05
-2.9048e-05
2.27191e-05
-3.1324e-05
2.35646e-05
-3.25552e-05
2.44997e-05
-3.2548e-05
2.53926e-05
-3.09634e-05
2.62221e-05
-3.08297e-05
2.70352e-05
-2.91407e-05
2.78063e-05
-2.54261e-05
2.84863e-05
-2.00577e-05
2.88948e-05
-1.37762e-05
2.92262e-05
-1.2501e-05
2.95096e-05
-9.00425e-06
2.98368e-05
-1.03562e-05
3.00907e-05
-6.07413e-06
3.02255e-05
-2.04278e-06
3.02938e-05
-1.15699e-06
3.0314e-05
2.00135e-06
3.03208e-05
4.81249e-06
3.03407e-05
7.13972e-06
3.03936e-05
4.82612e-06
3.0386e-05
4.67029e-06
3.03409e-05
6.27202e-06
3.03552e-05
6.727e-06
3.04468e-05
5.26382e-06
3.05356e-05
3.07717e-06
3.0559e-05
3.14158e-06
3.06738e-05
9.88488e-07
3.09966e-05
-3.20703e-06
3.14785e-05
-8.47168e-06
3.1867e-05
-8.70311e-06
3.24574e-05
-1.44841e-05
3.33886e-05
-2.33822e-05
3.46093e-05
-3.36235e-05
3.5759e-05
-3.41363e-05
3.72907e-05
-4.4905e-05
3.93759e-05
-5.81895e-05
4.18012e-05
-7.09699e-05
4.42656e-05
-7.29538e-05
4.73634e-05
-8.71018e-05
5.09861e-05
-0.000102488
5.45784e-05
-0.000105543
-0.00011669
1.50716e-05
1.32528e-05
1.47717e-05
1.3613e-05
1.4417e-05
1.4818e-05
1.39161e-05
1.47213e-05
1.33924e-05
1.33932e-05
1.29794e-05
1.34445e-05
1.26791e-05
1.12097e-05
1.24129e-05
8.00963e-06
1.21825e-05
3.83452e-06
1.21471e-05
-6.23413e-07
1.22519e-05
-1.37678e-06
1.25414e-05
-5.93483e-06
1.28826e-05
-1.0674e-05
1.3295e-05
-1.45815e-05
1.39417e-05
-1.76004e-05
1.47215e-05
-1.79227e-05
1.54601e-05
-1.93128e-05
1.60488e-05
-2.06332e-05
1.66332e-05
-2.12374e-05
1.735e-05
-2.13439e-05
1.80372e-05
-2.11181e-05
1.85694e-05
-2.13056e-05
1.89951e-05
-2.19706e-05
1.94507e-05
-2.26178e-05
2.00685e-05
-2.28209e-05
2.07499e-05
-2.54787e-05
2.1349e-05
-2.79406e-05
2.19529e-05
-2.93613e-05
2.26764e-05
-2.97717e-05
2.36035e-05
-3.22511e-05
2.45234e-05
-3.34766e-05
2.5346e-05
-3.33705e-05
2.61582e-05
-3.17755e-05
2.70757e-05
-3.17472e-05
2.80367e-05
-3.01018e-05
2.8792e-05
-2.61822e-05
2.93497e-05
-2.06156e-05
2.97334e-05
-1.41599e-05
3.01793e-05
-1.29471e-05
3.05719e-05
-9.39696e-06
3.08605e-05
-1.06448e-05
3.10131e-05
-6.22677e-06
3.10935e-05
-2.12322e-06
3.11959e-05
-1.25942e-06
3.13255e-05
1.8717e-06
3.1389e-05
4.74887e-06
3.13185e-05
7.21016e-06
3.12676e-05
4.87691e-06
3.12802e-05
4.65761e-06
3.13613e-05
6.19073e-06
3.14156e-05
6.67265e-06
3.1386e-05
5.29329e-06
3.14137e-05
3.04934e-06
3.15473e-05
3.00773e-06
3.17723e-05
7.63322e-07
3.19985e-05
-3.43343e-06
3.23799e-05
-8.85338e-06
3.2886e-05
-9.2094e-06
3.35945e-05
-1.51929e-05
3.44323e-05
-2.42201e-05
3.5588e-05
-3.47793e-05
3.69307e-05
-3.54792e-05
3.85397e-05
-4.65141e-05
4.04942e-05
-6.01441e-05
4.29836e-05
-7.34594e-05
4.5711e-05
-7.56812e-05
4.8825e-05
-9.0216e-05
5.23548e-05
-0.000106018
5.6247e-05
-0.000109436
-0.000120975
1.74475e-05
1.35963e-05
1.70375e-05
1.40225e-05
1.65749e-05
1.52806e-05
1.61492e-05
1.5147e-05
1.57457e-05
1.3795e-05
1.53006e-05
1.38881e-05
1.48856e-05
1.16247e-05
1.4589e-05
8.30614e-06
1.44726e-05
3.95089e-06
1.45314e-05
-6.8214e-07
1.45646e-05
-1.41004e-06
1.47685e-05
-6.13902e-06
1.52159e-05
-1.11232e-05
1.58461e-05
-1.52117e-05
1.65602e-05
-1.83145e-05
1.72388e-05
-1.86012e-05
1.79344e-05
-2.00084e-05
1.86619e-05
-2.13608e-05
1.93803e-05
-2.19558e-05
2.00364e-05
-2.20001e-05
2.05723e-05
-2.1654e-05
2.10729e-05
-2.18069e-05
2.15895e-05
-2.24873e-05
2.20641e-05
-2.30924e-05
2.2533e-05
-2.32899e-05
2.30688e-05
-2.60144e-05
2.37298e-05
-2.86016e-05
2.44586e-05
-3.00902e-05
2.51534e-05
-3.04664e-05
2.59493e-05
-3.3047e-05
2.68279e-05
-3.43555e-05
2.77572e-05
-3.42997e-05
2.86407e-05
-3.2659e-05
2.94754e-05
-3.25818e-05
3.02957e-05
-3.09223e-05
3.10374e-05
-2.6924e-05
3.16555e-05
-2.12339e-05
3.20222e-05
-1.45268e-05
3.23454e-05
-1.32704e-05
3.26279e-05
-9.6796e-06
3.29399e-05
-1.09568e-05
3.3172e-05
-6.45894e-06
3.32913e-05
-2.24252e-06
3.33571e-05
-1.32526e-06
3.34047e-05
1.82397e-06
3.34338e-05
4.71978e-06
3.34533e-05
7.19053e-06
3.35095e-05
4.82061e-06
3.35251e-05
4.64203e-06
3.35374e-05
6.17828e-06
3.3594e-05
6.61596e-06
3.36879e-05
5.19924e-06
3.3797e-05
2.94016e-06
3.38648e-05
2.93979e-06
3.40313e-05
5.96562e-07
3.43765e-05
-3.77882e-06
3.48878e-05
-9.36489e-06
3.5344e-05
-9.66587e-06
3.6017e-05
-1.5866e-05
3.70045e-05
-2.52078e-05
3.82972e-05
-3.60721e-05
3.9571e-05
-3.67532e-05
4.12529e-05
-4.81961e-05
4.34892e-05
-6.23805e-05
4.6098e-05
-7.60683e-05
4.87775e-05
-7.83608e-05
5.20699e-05
-9.35085e-05
5.58824e-05
-0.00010983
5.97584e-05
-0.000113312
-0.000125427
1.81094e-05
1.40212e-05
1.78464e-05
1.42826e-05
1.7533e-05
1.55928e-05
1.69889e-05
1.56911e-05
1.63708e-05
1.44132e-05
1.59403e-05
1.43164e-05
1.57185e-05
1.18447e-05
1.54677e-05
8.55619e-06
1.51565e-05
4.26212e-06
1.51052e-05
-6.30826e-07
1.52736e-05
-1.57844e-06
1.56947e-05
-6.56129e-06
1.60814e-05
-1.15099e-05
1.64782e-05
-1.56084e-05
1.72079e-05
-1.90442e-05
1.81539e-05
-1.95473e-05
1.89953e-05
-2.08499e-05
1.95353e-05
-2.19009e-05
2.00805e-05
-2.25011e-05
2.085e-05
-2.27696e-05
2.1637e-05
-2.24411e-05
2.2136e-05
-2.23065e-05
2.24089e-05
-2.27602e-05
2.28149e-05
-2.34984e-05
2.34563e-05
-2.39314e-05
2.41833e-05
-2.67414e-05
2.47313e-05
-2.91497e-05
2.52488e-05
-3.06077e-05
2.59699e-05
-3.11876e-05
2.69982e-05
-3.40753e-05
2.79643e-05
-3.53216e-05
2.87272e-05
-3.50624e-05
2.95069e-05
-3.34387e-05
3.04477e-05
-3.35226e-05
3.14756e-05
-3.19502e-05
3.21904e-05
-2.76388e-05
3.26216e-05
-2.16654e-05
3.29552e-05
-1.48605e-05
3.3413e-05
-1.37284e-05
3.38347e-05
-1.01013e-05
3.4097e-05
-1.12192e-05
3.41925e-05
-6.55447e-06
3.4248e-05
-2.29808e-06
3.43531e-05
-1.43045e-06
3.45353e-05
1.64181e-06
3.46337e-05
4.62132e-06
3.45396e-05
7.28455e-06
3.44723e-05
4.88781e-06
3.45126e-05
4.60164e-06
3.46846e-05
6.00622e-06
3.47856e-05
6.51491e-06
3.47287e-05
5.25608e-06
3.47662e-05
2.9025e-06
3.49624e-05
2.7435e-06
3.52565e-05
3.02279e-07
3.549e-05
-4.01254e-06
3.58842e-05
-9.75938e-06
3.64753e-05
-1.02572e-05
3.72826e-05
-1.66735e-05
3.81602e-05
-2.60855e-05
3.93776e-05
-3.72897e-05
4.0884e-05
-3.82598e-05
4.26516e-05
-4.99637e-05
4.47234e-05
-6.44525e-05
4.74055e-05
-7.87504e-05
5.03863e-05
-8.13418e-05
5.36849e-05
-9.68072e-05
5.73786e-05
-0.000113524
6.16047e-05
-0.000117538
-0.00013001
2.08614e-05
1.43891e-05
2.04657e-05
1.46732e-05
2.00019e-05
1.60543e-05
1.9544e-05
1.61461e-05
1.90854e-05
1.48589e-05
1.86226e-05
1.47657e-05
1.82236e-05
1.22436e-05
1.7938e-05
8.8396e-06
1.78124e-05
4.3874e-06
1.78737e-05
-6.92209e-07
1.79589e-05
-1.66357e-06
1.82501e-05
-6.85245e-06
1.8787e-05
-1.20469e-05
1.94966e-05
-1.63181e-05
2.03098e-05
-1.98574e-05
2.11179e-05
-2.03554e-05
2.19102e-05
-2.16422e-05
2.26523e-05
-2.2643e-05
2.33698e-05
-2.32186e-05
2.40704e-05
-2.34702e-05
2.45905e-05
-2.29613e-05
2.50531e-05
-2.27691e-05
2.55148e-05
-2.3222e-05
2.5929e-05
-2.39126e-05
2.63852e-05
-2.43876e-05
2.69116e-05
-2.72679e-05
2.75308e-05
-2.97689e-05
2.82096e-05
-3.12866e-05
2.88868e-05
-3.18648e-05
2.97151e-05
-3.49035e-05
3.06243e-05
-3.62308e-05
3.15464e-05
-3.59844e-05
3.24055e-05
-3.42977e-05
3.32498e-05
-3.43668e-05
3.40634e-05
-3.27639e-05
3.47549e-05
-2.83304e-05
3.52921e-05
-2.22028e-05
3.55909e-05
-1.51595e-05
3.58839e-05
-1.40215e-05
3.61306e-05
-1.03481e-05
3.64087e-05
-1.14974e-05
3.66113e-05
-6.75701e-06
3.67043e-05
-2.39117e-06
3.67621e-05
-1.48822e-06
3.68306e-05
1.57321e-06
3.6881e-05
4.57092e-06
3.69033e-05
7.2622e-06
3.69588e-05
4.83224e-06
3.69989e-05
4.56147e-06
3.70671e-05
5.93797e-06
3.71682e-05
6.41383e-06
3.72781e-05
5.14606e-06
3.74016e-05
2.77894e-06
3.75222e-05
2.62272e-06
3.77473e-05
7.70204e-08
3.81128e-05
-4.37827e-06
3.86537e-05
-1.03005e-05
3.91878e-05
-1.07915e-05
3.99542e-05
-1.744e-05
4.0999e-05
-2.71306e-05
4.23725e-05
-3.86632e-05
4.37945e-05
-3.96819e-05
4.5646e-05
-5.18153e-05
4.80336e-05
-6.68402e-05
5.08306e-05
-8.15474e-05
5.3719e-05
-8.42303e-05
5.72122e-05
-0.000100301
6.12253e-05
-0.000117537
6.54053e-05
-0.000121718
7.01656e-05
-0.000134771
-0.000135439
2.38967e-05
1.46845e-05
2.33317e-05
1.52382e-05
2.27259e-05
1.66601e-05
2.23708e-05
1.64999e-05
2.20872e-05
1.51341e-05
2.16003e-05
1.52514e-05
2.09852e-05
1.28587e-05
2.06581e-05
9.16672e-06
2.0743e-05
4.29883e-06
2.09325e-05
-8.81745e-07