/*--------------------------------*- C++ -*----------------------------------*\
| =========                 |                                                 |
| \\      /  F ield         | OpenFOAM: The Open Source CFD Toolbox           |
|  \\    /   O peration     | Version:  v2012                                 |
|   \\  /    A nd           | Website:  www.openfoam.com                      |
|    \\/     M anipulation  |                                                 |
\*---------------------------------------------------------------------------*/
FoamFile
{
    version     2.0;
    format      ascii;
    class       volScalarField;
    location    "1e-06";
    object      pMean;
}
// * * * * * * * * * * * * * * * * * * * * * * * * * * * * * * * * * * * * * //

dimensions      [1 -1 -2 0 0 0 0];


internalField   nonuniform List<scalar> 
10098
(
6.63993e+06
6.29843e+06
6.03008e+06
5.76185e+06
5.48719e+06
5.26879e+06
5.13552e+06
4.99856e+06
4.88422e+06
4.79843e+06
4.69546e+06
4.60324e+06
4.55935e+06
4.57447e+06
4.62891e+06
4.57794e+06
4.44976e+06
4.3955e+06
4.41323e+06
4.32189e+06
4.11885e+06
3.99506e+06
3.95893e+06
4.0147e+06
3.97187e+06
3.84424e+06
3.83744e+06
3.9625e+06
3.9616e+06
3.83633e+06
3.81696e+06
3.90299e+06
4.12035e+06
4.18743e+06
4.10552e+06
4.16013e+06
4.31832e+06
4.58743e+06
4.86477e+06
5.12166e+06
5.50122e+06
5.86213e+06
6.20851e+06
6.56471e+06
6.93482e+06
7.32781e+06
7.75406e+06
8.19945e+06
8.61872e+06
9.04928e+06
9.4084e+06
9.70971e+06
1.00389e+07
1.04326e+07
1.0869e+07
1.13925e+07
1.20247e+07
1.25477e+07
1.31042e+07
1.37575e+07
1.45985e+07
1.51629e+07
1.55931e+07
1.63555e+07
1.75015e+07
1.8025e+07
1.8168e+07
1.90207e+07
1.89526e+07
6.64423e+06
6.30115e+06
6.03093e+06
5.76116e+06
5.4843e+06
5.26498e+06
5.13148e+06
4.99345e+06
4.87859e+06
4.79248e+06
4.68893e+06
4.59656e+06
4.55283e+06
4.56697e+06
4.62096e+06
4.56998e+06
4.44116e+06
4.38555e+06
4.40161e+06
4.30976e+06
4.1063e+06
3.98016e+06
3.9413e+06
3.99358e+06
3.94947e+06
3.82281e+06
3.81435e+06
3.93675e+06
3.93595e+06
3.81353e+06
3.7939e+06
3.87978e+06
4.09557e+06
4.16264e+06
4.08325e+06
4.13753e+06
4.29498e+06
4.56217e+06
4.83927e+06
5.09607e+06
5.47361e+06
5.83369e+06
6.18138e+06
6.53839e+06
6.90903e+06
7.30261e+06
7.72915e+06
8.17568e+06
8.59584e+06
9.02659e+06
9.3876e+06
9.69231e+06
1.00216e+07
1.04136e+07
1.08484e+07
1.13705e+07
1.20024e+07
1.25244e+07
1.30771e+07
1.37279e+07
1.45694e+07
1.51324e+07
1.55584e+07
1.63192e+07
1.74656e+07
1.79877e+07
1.81284e+07
1.89857e+07
1.89194e+07
6.6484e+06
6.30363e+06
6.03152e+06
5.76059e+06
5.48114e+06
5.26102e+06
5.12719e+06
4.98823e+06
4.87276e+06
4.78623e+06
4.68191e+06
4.58919e+06
4.54568e+06
4.55923e+06
4.61273e+06
4.56134e+06
4.43182e+06
4.37511e+06
4.38952e+06
4.29695e+06
4.09235e+06
3.96425e+06
3.92281e+06
3.97133e+06
3.9257e+06
3.79994e+06
3.79006e+06
3.90972e+06
3.90888e+06
3.7892e+06
3.76948e+06
3.85536e+06
4.06944e+06
4.13639e+06
4.0595e+06
4.11369e+06
4.27049e+06
4.53553e+06
4.81218e+06
5.06908e+06
5.44486e+06
5.80417e+06
6.15305e+06
6.5108e+06
6.882e+06
7.27629e+06
7.70334e+06
8.1511e+06
8.57207e+06
9.00287e+06
9.36588e+06
9.67464e+06
1.00036e+07
1.03936e+07
1.08268e+07
1.13476e+07
1.19791e+07
1.24997e+07
1.30485e+07
1.36968e+07
1.45387e+07
1.51e+07
1.55217e+07
1.62809e+07
1.74276e+07
1.79479e+07
1.80862e+07
1.89486e+07
1.8884e+07
6.65214e+06
6.30631e+06
6.03241e+06
5.7597e+06
5.47683e+06
5.25704e+06
5.12228e+06
4.98299e+06
4.86603e+06
4.7794e+06
4.6748e+06
4.58259e+06
4.53776e+06
4.55042e+06
4.60416e+06
4.5528e+06
4.42213e+06
4.36359e+06
4.37652e+06
4.28365e+06
4.07828e+06
3.94737e+06
3.90283e+06
3.94792e+06
3.90109e+06
3.77619e+06
3.76425e+06
3.88097e+06
3.88049e+06
3.76401e+06
3.74389e+06
3.82933e+06
4.04179e+06
4.10888e+06
4.03488e+06
4.08848e+06
4.24427e+06
4.5074e+06
4.78393e+06
5.04099e+06
5.41471e+06
5.77312e+06
6.12316e+06
6.4819e+06
6.85401e+06
7.24892e+06
7.67617e+06
8.12529e+06
8.54738e+06
8.97848e+06
9.34316e+06
9.65599e+06
9.98429e+06
1.03729e+07
1.08041e+07
1.13232e+07
1.19543e+07
1.24739e+07
1.30186e+07
1.36638e+07
1.45067e+07
1.50662e+07
1.54829e+07
1.62401e+07
1.73874e+07
1.79061e+07
1.80414e+07
1.89088e+07
1.88466e+07
6.65573e+06
6.30864e+06
6.03304e+06
5.75905e+06
5.47208e+06
5.25278e+06
5.11705e+06
4.97754e+06
4.85916e+06
4.77226e+06
4.66721e+06
4.57505e+06
4.52925e+06
4.54125e+06
4.59521e+06
4.54349e+06
4.41154e+06
4.35143e+06
4.36298e+06
4.26958e+06
4.06264e+06
3.92934e+06
3.88195e+06
3.92327e+06
3.87495e+06
3.75082e+06
3.73692e+06
3.85081e+06
3.85048e+06
3.73706e+06
3.71674e+06
3.80195e+06
4.01265e+06
4.07971e+06
4.00853e+06
4.06182e+06
4.21675e+06
4.47767e+06
4.75378e+06
5.01121e+06
5.38323e+06
5.74085e+06
6.09181e+06
6.45147e+06
6.82462e+06
7.22032e+06
7.64803e+06
8.09861e+06
8.52173e+06
8.95296e+06
9.31933e+06
9.63693e+06
9.964e+06
1.0351e+07
1.07802e+07
1.12977e+07
1.19283e+07
1.24466e+07
1.2987e+07
1.36287e+07
1.44687e+07
1.50306e+07
1.54419e+07
1.6197e+07
1.73448e+07
1.78617e+07
1.79939e+07
1.88668e+07
1.88068e+07
1.79423e+07
6.65676e+06
6.31094e+06
6.03383e+06
5.75754e+06
5.46517e+06
5.24785e+06
5.11239e+06
4.97192e+06
4.85119e+06
4.76449e+06
4.6597e+06
4.56777e+06
4.51998e+06
4.53116e+06
4.58631e+06
4.53488e+06
4.40088e+06
4.3384e+06
4.34884e+06
4.25546e+06
4.04743e+06
3.91048e+06
3.85972e+06
3.89782e+06
3.84845e+06
3.72487e+06
3.70823e+06
3.81927e+06
3.81968e+06
3.70973e+06
3.68854e+06
3.77332e+06
3.98243e+06
4.04999e+06
3.98171e+06
4.03404e+06
4.18768e+06
4.44662e+06
4.72288e+06
4.98023e+06
5.35031e+06
5.70695e+06
6.05891e+06
6.41986e+06
6.79429e+06
7.19062e+06
7.61833e+06
8.07052e+06
8.49505e+06
8.92674e+06
9.29436e+06
9.61714e+06
9.9424e+06
1.03283e+07
1.07555e+07
1.12706e+07
1.1901e+07
1.24184e+07
1.29542e+07
1.3594e+07
1.44292e+07
1.49919e+07
1.5399e+07
1.6152e+07
1.73013e+07
1.78163e+07
1.79441e+07
1.88234e+07
1.87667e+07
1.79001e+07
6.66257e+06
6.31525e+06
6.03619e+06
5.75653e+06
5.4626e+06
5.24714e+06
5.10931e+06
4.96661e+06
4.84328e+06
4.75613e+06
4.65128e+06
4.55892e+06
4.50885e+06
4.51821e+06
4.5738e+06
4.52286e+06
4.38746e+06
4.32207e+06
4.3307e+06
4.23714e+06
4.02897e+06
3.88869e+06
3.83349e+06
3.86768e+06
3.81726e+06
3.69486e+06
3.67563e+06
3.78204e+06
3.78276e+06
3.67667e+06
3.65616e+06
3.73914e+06
3.946e+06
4.01392e+06
3.94959e+06
4.00247e+06
4.15404e+06
4.41137e+06
4.68782e+06
4.94641e+06
5.31486e+06
5.67052e+06
6.02344e+06
6.38567e+06
6.76211e+06
7.15949e+06
7.58747e+06
8.04126e+06
8.46721e+06
8.89942e+06
9.26807e+06
9.59479e+06
9.91904e+06
1.0304e+07
1.07287e+07
1.12412e+07
1.18703e+07
1.23865e+07
1.29177e+07
1.35542e+07
1.43875e+07
1.49467e+07
1.53501e+07
1.60978e+07
1.72462e+07
1.77601e+07
1.7885e+07
1.87656e+07
1.87122e+07
1.78478e+07
6.66802e+06
6.31803e+06
6.03747e+06
5.7548e+06
5.46103e+06
5.24522e+06
5.10476e+06
4.96048e+06
4.83583e+06
4.74791e+06
4.64203e+06
4.54879e+06
4.49741e+06
4.50575e+06
4.56139e+06
4.5099e+06
4.37318e+06
4.30589e+06
4.31266e+06
4.21823e+06
4.00906e+06
3.86592e+06
3.80695e+06
3.83678e+06
3.78445e+06
3.66304e+06
3.64196e+06
3.7442e+06
3.74457e+06
3.64179e+06
3.62223e+06
3.70407e+06
3.90852e+06
3.97648e+06
3.9158e+06
3.96966e+06
4.11938e+06
4.37477e+06
4.65083e+06
4.91069e+06
5.27814e+06
5.63304e+06
5.98655e+06
6.34973e+06
6.72803e+06
7.12682e+06
7.55576e+06
8.01117e+06
8.43817e+06
8.87039e+06
9.24034e+06
9.56815e+06
9.89457e+06
1.02782e+07
1.07004e+07
1.12109e+07
1.18387e+07
1.23529e+07
1.28793e+07
1.35131e+07
1.4344e+07
1.48993e+07
1.5299e+07
1.60423e+07
1.71899e+07
1.77017e+07
1.78236e+07
1.87069e+07
1.86558e+07
1.77937e+07
6.67297e+06
6.32208e+06
6.0387e+06
5.75272e+06
5.45889e+06
5.24296e+06
5.10011e+06
4.95392e+06
4.82762e+06
4.73913e+06
4.63251e+06
4.5382e+06
4.48532e+06
4.4924e+06
4.54854e+06
4.49683e+06
4.35818e+06
4.28859e+06
4.29368e+06
4.19863e+06
3.9883e+06
3.84185e+06
3.77891e+06
3.80447e+06
3.7504e+06
3.62984e+06
3.60654e+06
3.70452e+06
3.70471e+06
3.60547e+06
3.58656e+06
3.66701e+06
3.86924e+06
3.93745e+06
3.8805e+06
3.93498e+06
4.08277e+06
4.33621e+06
4.61208e+06
4.8735e+06
5.23974e+06
5.59383e+06
5.9478e+06
6.31197e+06
6.69253e+06
7.09273e+06
7.52251e+06
7.97962e+06
8.40783e+06
8.8402e+06
9.21116e+06
9.53778e+06
9.86847e+06
1.02512e+07
1.06707e+07
1.11787e+07
1.18053e+07
1.23176e+07
1.2839e+07
1.34696e+07
1.42981e+07
1.48497e+07
1.5245e+07
1.59837e+07
1.71305e+07
1.76403e+07
1.77584e+07
1.86445e+07
1.85964e+07
1.77362e+07
6.67786e+06
6.32479e+06
6.03894e+06
5.75131e+06
5.45775e+06
5.24011e+06
5.0941e+06
4.9465e+06
4.8201e+06
4.73038e+06
4.62195e+06
4.52608e+06
4.47277e+06
4.47929e+06
4.53529e+06
4.48232e+06
4.34192e+06
4.27117e+06
4.27438e+06
4.17786e+06
3.96556e+06
3.81652e+06
3.7503e+06
3.77081e+06
3.71408e+06
3.5943e+06
3.56974e+06
3.66356e+06
3.66281e+06
3.5665e+06
3.54883e+06
3.6287e+06
3.82826e+06
3.89621e+06
3.84266e+06
3.8986e+06
4.04493e+06
4.29568e+06
4.57086e+06
4.83411e+06
5.19978e+06
5.55326e+06
5.90735e+06
6.27222e+06
6.65491e+06
7.05694e+06
7.48827e+06
7.94713e+06
8.37614e+06
8.8082e+06
9.18041e+06
9.50556e+06
9.84107e+06
1.02224e+07
1.06392e+07
1.11454e+07
1.17706e+07
1.22801e+07
1.27964e+07
1.34242e+07
1.42502e+07
1.47971e+07
1.51881e+07
1.59226e+07
1.70681e+07
1.75752e+07
1.76899e+07
1.85793e+07
1.85331e+07
1.76755e+07
6.68212e+06
6.32736e+06
6.03913e+06
5.74961e+06
5.45573e+06
5.23675e+06
5.08822e+06
4.939e+06
4.81195e+06
4.72092e+06
4.61109e+06
4.51349e+06
4.45951e+06
4.46517e+06
4.52158e+06
4.4678e+06
4.32503e+06
4.25259e+06
4.25405e+06
4.15651e+06
3.94213e+06
3.78995e+06
3.72027e+06
3.73563e+06
3.67658e+06
3.55749e+06
3.53113e+06
3.62062e+06
3.61921e+06
3.52628e+06
3.50939e+06
3.58847e+06
3.78537e+06
3.8534e+06
3.80346e+06
3.8603e+06
4.00523e+06
4.25302e+06
4.52777e+06
4.79324e+06
5.158e+06
5.51077e+06
5.86484e+06
6.23054e+06
6.61576e+06
7.01963e+06
7.45231e+06
7.91295e+06
8.34299e+06
8.77494e+06
9.14813e+06
9.4713e+06
9.81187e+06
1.01921e+07
1.06063e+07
1.11101e+07
1.17339e+07
1.22408e+07
1.27517e+07
1.33761e+07
1.41998e+07
1.47422e+07
1.51281e+07
1.58581e+07
1.70023e+07
1.75068e+07
1.76173e+07
1.85102e+07
1.84666e+07
1.76113e+07
6.68624e+06
6.3285e+06
6.03836e+06
5.74835e+06
5.45411e+06
5.23268e+06
5.08143e+06
4.93108e+06
4.80407e+06
4.71148e+06
4.5991e+06
4.49932e+06
4.44576e+06
4.45125e+06
4.50754e+06
4.4519e+06
4.30689e+06
4.23381e+06
4.23342e+06
4.13391e+06
3.91675e+06
3.76196e+06
3.68942e+06
3.69893e+06
3.63668e+06
3.51826e+06
3.49103e+06
3.5763e+06
3.57345e+06
3.48342e+06
3.46779e+06
3.54684e+06
3.74071e+06
3.80823e+06
3.76167e+06
3.82005e+06
3.96416e+06
4.20814e+06
4.482e+06
4.7499e+06
5.11449e+06
5.46675e+06
5.82046e+06
6.18666e+06
6.57438e+06
6.98046e+06
7.41517e+06
7.87768e+06
8.30833e+06
8.73977e+06
9.11419e+06
9.43675e+06
9.78131e+06
1.01597e+07
1.05714e+07
1.10734e+07
1.16958e+07
1.21992e+07
1.27045e+07
1.33259e+07
1.41472e+07
1.46841e+07
1.5065e+07
1.57909e+07
1.69333e+07
1.74345e+07
1.7541e+07
1.84381e+07
1.8396e+07
1.75436e+07
6.68956e+06
6.32942e+06
6.03773e+06
5.7466e+06
5.45123e+06
5.22798e+06
5.07479e+06
4.92307e+06
4.79511e+06
4.70116e+06
4.58686e+06
4.48479e+06
4.43086e+06
4.43601e+06
4.49297e+06
4.43609e+06
4.28816e+06
4.21367e+06
4.21162e+06
4.1109e+06
3.89086e+06
3.73287e+06
3.65692e+06
3.66057e+06
3.59576e+06
3.47786e+06
3.44897e+06
3.52975e+06
3.52592e+06
3.43936e+06
3.42455e+06
3.50307e+06
3.69392e+06
3.76151e+06
3.7186e+06
3.77784e+06
3.92111e+06
4.16101e+06
4.43431e+06
4.70468e+06
5.06897e+06
5.42057e+06
5.77379e+06
6.14072e+06
6.53139e+06
6.93968e+06
7.3761e+06
7.84046e+06
8.27204e+06
8.70325e+06
9.07864e+06
9.40082e+06
9.7488e+06
1.01259e+07
1.0535e+07
1.10344e+07
1.16554e+07
1.21555e+07
1.26551e+07
1.32728e+07
1.40918e+07
1.46235e+07
1.49986e+07
1.57199e+07
1.68606e+07
1.73588e+07
1.74603e+07
1.83616e+07
1.83222e+07
1.7472e+07
6.69264e+06
6.32844e+06
6.03615e+06
5.74521e+06
5.44829e+06
5.2218e+06
5.06709e+06
4.91462e+06
4.78617e+06
4.69082e+06
4.57352e+06
4.46846e+06
4.41569e+06
4.42098e+06
4.47812e+06
4.41896e+06
4.26805e+06
4.19321e+06
4.18951e+06
4.08663e+06
3.86303e+06
3.70217e+06
3.62331e+06
3.62051e+06
3.55238e+06
3.43483e+06
3.40528e+06
3.4817e+06
3.47608e+06
3.39268e+06
3.37902e+06
3.45775e+06
3.64524e+06
3.71225e+06
3.67286e+06
3.73347e+06
3.87635e+06
4.1114e+06
4.38373e+06
4.65676e+06
5.02153e+06
5.37267e+06
5.72503e+06
6.09226e+06
6.48604e+06
6.89689e+06
7.33562e+06
7.80195e+06
8.23406e+06
8.66475e+06
9.04129e+06
9.36424e+06
9.71484e+06
1.009e+07
1.04965e+07
1.09939e+07
1.16133e+07
1.21094e+07
1.2603e+07
1.32172e+07
1.40341e+07
1.45596e+07
1.49287e+07
1.56459e+07
1.67844e+07
1.72786e+07
1.73754e+07
1.82817e+07
1.8244e+07
1.73966e+07
6.69469e+06
6.32907e+06
6.03494e+06
5.74306e+06
5.44355e+06
5.21445e+06
5.05973e+06
4.90595e+06
4.77568e+06
4.67934e+06
4.56016e+06
4.4541e+06
4.39914e+06
4.40394e+06
4.46267e+06
4.4022e+06
4.24754e+06
4.17096e+06
4.16598e+06
4.06217e+06
3.83515e+06
3.67048e+06
3.58768e+06
3.57863e+06
3.50828e+06
3.39087e+06
3.35938e+06
3.43102e+06
3.4244e+06
3.34508e+06
3.33206e+06
3.40995e+06
3.59416e+06
3.66148e+06
3.62611e+06
3.68728e+06
3.82938e+06
4.05939e+06
4.33137e+06
4.60732e+06
4.97192e+06
5.32227e+06
5.67372e+06
6.0416e+06
6.43909e+06
6.85241e+06
7.29291e+06
7.76117e+06
8.19429e+06
8.6249e+06
9.00223e+06
9.32597e+06
9.67862e+06
1.00525e+07
1.04561e+07
1.09509e+07
1.15686e+07
1.20612e+07
1.25486e+07
1.31584e+07
1.39732e+07
1.44932e+07
1.48552e+07
1.55675e+07
1.67042e+07
1.71949e+07
1.72857e+07
1.81971e+07
1.81624e+07
1.73171e+07
6.69634e+06
6.3278e+06
6.03271e+06
5.74142e+06
5.43856e+06
5.20672e+06
5.05127e+06
4.89661e+06
4.76507e+06
4.66778e+06
4.54568e+06
4.43789e+06
4.38211e+06
4.3869e+06
4.44692e+06
4.38413e+06
4.22546e+06
4.14807e+06
4.14212e+06
4.0364e+06
3.8052e+06
3.63687e+06
3.55079e+06
3.53482e+06
3.46164e+06
3.34431e+06
3.3116e+06
3.37864e+06
3.3702e+06
3.29473e+06
3.28255e+06
3.36028e+06
3.54099e+06
3.60799e+06
3.57653e+06
3.6387e+06
3.78063e+06
4.00461e+06
4.27587e+06
4.55505e+06
4.92016e+06
5.26995e+06
5.62006e+06
5.98819e+06
6.38962e+06
6.80576e+06
7.24858e+06
7.71886e+06
8.15261e+06
8.58295e+06
8.9612e+06
9.28686e+06
9.64051e+06
1.00128e+07
1.04134e+07
1.0906e+07
1.15219e+07
1.20103e+07
1.24912e+07
1.30968e+07
1.39097e+07
1.44232e+07
1.47778e+07
1.54858e+07
1.66199e+07
1.71061e+07
1.7191e+07
1.81085e+07
1.80762e+07
1.7233e+07
6.69567e+06
6.32689e+06
6.03099e+06
5.73766e+06
5.43028e+06
5.19794e+06
5.04364e+06
4.88669e+06
4.75197e+06
4.65485e+06
4.53144e+06
4.42248e+06
4.36479e+06
4.36761e+06
4.43134e+06
4.36779e+06
4.20385e+06
4.12336e+06
4.117e+06
4.01114e+06
3.7763e+06
3.60223e+06
3.51128e+06
3.4894e+06
3.41501e+06
3.29743e+06
3.26175e+06
3.3235e+06
3.31469e+06
3.24444e+06
3.23188e+06
3.30822e+06
3.48599e+06
3.5539e+06
3.52677e+06
3.58848e+06
3.72947e+06
3.94756e+06
4.219e+06
4.5015e+06
4.86619e+06
5.21481e+06
5.56368e+06
5.93253e+06
6.33875e+06
6.75744e+06
7.20163e+06
7.67399e+06
8.10911e+06
8.53992e+06
8.91843e+06
9.24596e+06
9.59997e+06
9.97175e+06
1.03694e+07
1.08586e+07
1.14729e+07
1.19578e+07
1.24318e+07
1.30322e+07
1.38438e+07
1.43519e+07
1.46975e+07
1.54008e+07
1.65337e+07
1.70157e+07
1.70921e+07
1.80174e+07
1.79896e+07
1.71465e+07
1.71775e+07
6.69813e+06
6.32834e+06
6.03142e+06
5.7345e+06
5.42632e+06
5.19467e+06
5.03822e+06
4.87725e+06
4.73887e+06
4.64053e+06
4.51542e+06
4.40414e+06
4.34277e+06
4.34543e+06
4.40943e+06
4.34566e+06
4.17733e+06
4.09407e+06
4.08694e+06
3.98119e+06
3.74314e+06
3.56413e+06
3.46819e+06
3.43925e+06
3.36392e+06
3.24603e+06
3.20744e+06
3.26193e+06
3.25198e+06
3.18761e+06
3.1757e+06
3.24993e+06
3.42329e+06
3.49233e+06
3.47125e+06
3.53384e+06
3.67409e+06
3.88606e+06
4.15809e+06
4.44478e+06
4.80883e+06
5.15625e+06
5.5036e+06
5.87334e+06
6.28494e+06
6.70663e+06
7.15233e+06
7.62623e+06
8.06254e+06
8.4941e+06
8.87293e+06
9.20149e+06
9.55575e+06
9.9269e+06
1.03214e+07
1.08067e+07
1.14174e+07
1.18983e+07
1.23656e+07
1.29593e+07
1.37664e+07
1.42686e+07
1.46065e+07
1.52998e+07
1.64267e+07
1.69059e+07
1.69766e+07
1.79008e+07
1.78777e+07
1.70423e+07
1.70787e+07
1.63219e+07
1.49789e+07
1.44219e+07
1.4242e+07
1.44052e+07
1.4348e+07
1.40215e+07
1.45919e+07
1.54473e+07
1.5116e+07
1.55679e+07
1.66932e+07
1.63848e+07
1.65065e+07
1.71655e+07
1.68136e+07
1.65756e+07
1.65858e+07
1.61595e+07
1.54852e+07
1.49875e+07
1.39805e+07
1.29054e+07
1.28526e+07
1.23737e+07
1.16126e+07
1.25987e+07
1.33381e+07
1.39304e+07
1.56448e+07
1.75709e+07
1.91368e+07
1.99718e+07
2.11434e+07
2.23012e+07
2.18171e+07
2.14761e+07
2.15687e+07
2.0516e+07
1.88347e+07
1.72048e+07
1.57353e+07
1.40522e+07
1.21675e+07
1.02792e+07
8.8397e+06
8.31046e+06
7.48399e+06
6.58416e+06
6.87393e+06
7.01063e+06
6.98924e+06
7.55462e+06
8.32318e+06
8.86412e+06
8.94591e+06
7.92406e+06
7.12378e+06
6.44378e+06
4.55281e+06
2.79857e+06
1.10867e+06
6.7002e+06
6.32866e+06
6.02929e+06
5.73123e+06
5.42459e+06
5.18932e+06
5.02968e+06
4.86636e+06
4.72743e+06
4.62631e+06
4.49749e+06
4.38332e+06
4.3219e+06
4.32431e+06
4.38816e+06
4.32133e+06
4.1494e+06
4.06665e+06
4.05845e+06
3.95027e+06
3.7067e+06
3.52444e+06
3.4256e+06
3.38785e+06
3.3096e+06
3.19071e+06
3.15217e+06
3.19998e+06
3.18695e+06
3.12709e+06
3.11703e+06
3.19135e+06
3.35976e+06
3.42818e+06
3.4124e+06
3.47739e+06
3.61783e+06
3.82209e+06
4.09338e+06
4.38452e+06
4.74946e+06
5.09611e+06
5.44119e+06
5.81069e+06
6.22776e+06
6.65323e+06
7.10171e+06
7.57716e+06
8.01376e+06
8.4453e+06
8.82515e+06
9.15344e+06
9.50976e+06
9.87924e+06
1.02707e+07
1.07534e+07
1.13607e+07
1.1836e+07
1.22962e+07
1.28843e+07
1.36873e+07
1.41819e+07
1.45121e+07
1.51972e+07
1.63175e+07
1.67915e+07
1.68575e+07
1.77828e+07
1.77625e+07
1.69354e+07
1.69801e+07
1.62369e+07
1.49069e+07
1.4363e+07
1.4193e+07
1.43638e+07
1.4315e+07
1.39907e+07
1.45694e+07
1.54351e+07
1.50973e+07
1.55541e+07
1.66952e+07
1.63805e+07
1.64987e+07
1.71688e+07
1.68192e+07
1.65822e+07
1.65985e+07
1.61854e+07
1.55211e+07
1.50359e+07
1.4044e+07
1.29828e+07
1.29379e+07
1.24741e+07
1.17251e+07
1.26857e+07
1.34023e+07
1.39784e+07
1.56574e+07
1.75526e+07
1.90927e+07
1.99141e+07
2.1068e+07
2.22137e+07
2.17398e+07
2.14073e+07
2.15002e+07
2.0459e+07
1.8798e+07
1.71872e+07
1.57338e+07
1.40781e+07
1.22236e+07
1.03633e+07
8.93939e+06
8.40269e+06
7.57291e+06
6.67461e+06
6.93913e+06
7.04927e+06
7.01031e+06
7.55532e+06
8.29191e+06
8.80987e+06
8.88275e+06
7.87103e+06
7.08586e+06
6.40841e+06
4.53099e+06
2.78726e+06
1.10795e+06
6.70006e+06
6.32852e+06
6.02719e+06
5.72756e+06
5.42107e+06
5.18308e+06
5.02127e+06
4.85518e+06
4.71432e+06
4.61038e+06
4.47907e+06
4.3616e+06
4.29852e+06
4.30141e+06
4.36572e+06
4.29664e+06
4.12011e+06
4.03648e+06
4.02836e+06
3.91911e+06
3.66935e+06
3.48343e+06
3.38136e+06
3.3347e+06
3.25492e+06
3.13388e+06
3.09473e+06
3.13531e+06
3.11976e+06
3.06528e+06
3.05626e+06
3.13026e+06
3.29352e+06
3.3622e+06
3.35192e+06
3.41879e+06
3.55925e+06
3.75606e+06
4.02722e+06
4.3224e+06
4.68777e+06
5.03337e+06
5.37575e+06
5.74509e+06
6.16859e+06
6.59767e+06
7.04852e+06
7.52533e+06
7.96261e+06
8.39462e+06
8.7751e+06
9.10187e+06
9.46097e+06
9.82939e+06
1.0218e+07
1.06971e+07
1.13007e+07
1.17707e+07
1.22237e+07
1.28051e+07
1.36041e+07
1.40914e+07
1.44127e+07
1.50892e+07
1.6203e+07
1.66716e+07
1.6732e+07
1.76582e+07
1.7642e+07
1.68223e+07
1.68762e+07
1.61487e+07
1.48326e+07
1.43014e+07
1.41421e+07
1.43205e+07
1.42789e+07
1.39568e+07
1.45447e+07
1.54196e+07
1.50747e+07
1.55381e+07
1.66951e+07
1.63734e+07
1.64891e+07
1.71707e+07
1.68236e+07
1.65881e+07
1.6611e+07
1.62119e+07
1.55585e+07
1.50867e+07
1.41121e+07
1.30664e+07
1.30304e+07
1.25825e+07
1.18445e+07
1.27798e+07
1.34734e+07
1.40315e+07
1.56717e+07
1.75348e+07
1.90467e+07
1.9852e+07
2.09868e+07
2.21193e+07
2.16541e+07
2.13314e+07
2.14251e+07
2.03962e+07
1.87571e+07
1.71675e+07
1.57314e+07
1.41045e+07
1.22827e+07
1.04521e+07
9.04465e+06
8.5012e+06
7.66857e+06
6.7715e+06
7.0094e+06
7.09315e+06
7.03496e+06
7.5562e+06
8.25964e+06
8.75243e+06
8.81407e+06
7.81236e+06
7.04248e+06
6.36902e+06
4.50533e+06
2.77695e+06
1.1053e+06
6.69674e+06
6.32533e+06
6.02316e+06
5.72456e+06
5.41809e+06
5.17541e+06
5.01068e+06
4.84282e+06
4.70167e+06
4.59463e+06
4.45853e+06
4.3375e+06
4.27594e+06
4.2781e+06
4.34311e+06
4.26951e+06
4.08911e+06
4.00687e+06
3.9993e+06
3.88657e+06
3.62889e+06
3.44078e+06
3.33668e+06
3.27967e+06
3.1963e+06
3.07266e+06
3.0357e+06
3.06923e+06
3.04921e+06
2.99913e+06
2.99244e+06
3.06787e+06
3.22539e+06
3.2927e+06
3.28776e+06
3.35807e+06
3.49906e+06
3.68688e+06
3.95673e+06
4.25642e+06
4.6235e+06
4.96843e+06
5.30747e+06
5.6757e+06
6.10597e+06
6.53933e+06
6.99352e+06
7.47175e+06
7.90886e+06
8.34094e+06
8.72253e+06
9.04968e+06
9.41012e+06
9.77633e+06
1.01619e+07
1.06387e+07
1.12384e+07
1.17017e+07
1.2147e+07
1.27228e+07
1.35175e+07
1.39959e+07
1.43083e+07
1.49772e+07
1.60832e+07
1.65447e+07
1.66008e+07
1.75286e+07
1.7515e+07
1.67041e+07
1.6769e+07
1.60567e+07
1.47556e+07
1.42388e+07
1.40893e+07
1.42742e+07
1.424e+07
1.39198e+07
1.45152e+07
1.5399e+07
1.5047e+07
1.55168e+07
1.6691e+07
1.63627e+07
1.64758e+07
1.7171e+07
1.68269e+07
1.65928e+07
1.66239e+07
1.62397e+07
1.55977e+07
1.51414e+07
1.41849e+07
1.31566e+07
1.31309e+07
1.26976e+07
1.19718e+07
1.28818e+07
1.35505e+07
1.40894e+07
1.56889e+07
1.75169e+07
1.89986e+07
1.97857e+07
2.08988e+07
2.20177e+07
2.15617e+07
2.12475e+07
2.1343e+07
2.03285e+07
1.87127e+07
1.71444e+07
1.57286e+07
1.41326e+07
1.23433e+07
1.05444e+07
9.15582e+06
8.6054e+06
7.76982e+06
6.8741e+06
7.08518e+06
7.14118e+06
7.06316e+06
7.55957e+06
8.22645e+06
8.69207e+06
8.74118e+06
7.74929e+06
6.99288e+06
6.32432e+06
4.47639e+06
2.76571e+06
1.1032e+06
6.69432e+06
6.32196e+06
6.0197e+06
5.72043e+06
5.41195e+06
5.16637e+06
5.00071e+06
4.83015e+06
4.68674e+06
4.57682e+06
4.43774e+06
4.31363e+06
4.25115e+06
4.25275e+06
4.31907e+06
4.24235e+06
4.05714e+06
3.97424e+06
3.96777e+06
3.8533e+06
3.58843e+06
3.39736e+06
3.28923e+06
3.22285e+06
3.13753e+06
3.01133e+06
2.97445e+06
2.99983e+06
2.97683e+06
2.93269e+06
2.92755e+06
3.00261e+06
3.15416e+06
3.22159e+06
3.22269e+06
3.29538e+06
3.43639e+06
3.61461e+06
3.88459e+06
4.18915e+06
4.55693e+06
4.90061e+06
5.23588e+06
5.6037e+06
6.04153e+06
6.47888e+06
6.93559e+06
7.41492e+06
7.85256e+06
8.28548e+06
8.6677e+06
8.99503e+06
9.3562e+06
9.72108e+06
1.01039e+07
1.05768e+07
1.11725e+07
1.16297e+07
1.20672e+07
1.26357e+07
1.34263e+07
1.38968e+07
1.41989e+07
1.48594e+07
1.59581e+07
1.64121e+07
1.64629e+07
1.7392e+07
1.7383e+07
1.65802e+07
1.66562e+07
1.59619e+07
1.46765e+07
1.41733e+07
1.40345e+07
1.42262e+07
1.41972e+07
1.38786e+07
1.44828e+07
1.53735e+07
1.50137e+07
1.54925e+07
1.66836e+07
1.6348e+07
1.64598e+07
1.71695e+07
1.68284e+07
1.65965e+07
1.66361e+07
1.62682e+07
1.56388e+07
1.51989e+07
1.42635e+07
1.32542e+07
1.32397e+07
1.28227e+07
1.2108e+07
1.29922e+07
1.36356e+07
1.41534e+07
1.57091e+07
1.74996e+07
1.89479e+07
1.97142e+07
2.0804e+07
2.19073e+07
2.14587e+07
2.11551e+07
2.1253e+07
2.02538e+07
1.86633e+07
1.71189e+07
1.5725e+07
1.41611e+07
1.24075e+07
1.06417e+07
9.27331e+06
8.71682e+06
7.87903e+06
6.98419e+06
7.16718e+06
7.19521e+06
7.09557e+06
7.56106e+06
8.19218e+06
8.62826e+06
8.66191e+06
7.6792e+06
6.93687e+06
6.27389e+06
4.44247e+06
2.75402e+06
1.10039e+06
6.69084e+06
6.31511e+06
6.01463e+06
5.71686e+06
5.4059e+06
5.15744e+06
4.98871e+06
4.81635e+06
4.67176e+06
4.55874e+06
4.41482e+06
4.28741e+06
4.22582e+06
4.22694e+06
4.29464e+06
4.213e+06
4.02327e+06
3.94212e+06
3.93723e+06
3.81889e+06
3.54523e+06
3.35249e+06
3.24061e+06
3.16432e+06
3.0751e+06
2.94324e+06
2.91122e+06
2.92848e+06
2.90095e+06
2.86208e+06
2.85928e+06
2.93544e+06
3.08066e+06
3.14682e+06
3.15406e+06
3.23028e+06
3.37198e+06
3.53944e+06
3.80821e+06
4.11803e+06
4.48756e+06
4.83017e+06
5.16103e+06
5.52727e+06
5.97363e+06
6.41552e+06
6.87549e+06
7.35596e+06
7.79337e+06
8.227e+06
8.61014e+06
8.9391e+06
9.29982e+06
9.66242e+06
1.00423e+07
1.05125e+07
1.11038e+07
1.15537e+07
1.19831e+07
1.25449e+07
1.33312e+07
1.37924e+07
1.40838e+07
1.47368e+07
1.58269e+07
1.6272e+07
1.63179e+07
1.72492e+07
1.72442e+07
1.64496e+07
1.65391e+07
1.5863e+07
1.45947e+07
1.41064e+07
1.39778e+07
1.41751e+07
1.41514e+07
1.38339e+07
1.44454e+07
1.53421e+07
1.49742e+07
1.54622e+07
1.66713e+07
1.63288e+07
1.64396e+07
1.71658e+07
1.68279e+07
1.65988e+07
1.66487e+07
1.6298e+07
1.56821e+07
1.52606e+07
1.43472e+07
1.3359e+07
1.33568e+07
1.29555e+07
1.22517e+07
1.31112e+07
1.37277e+07
1.42228e+07
1.57323e+07
1.74822e+07
1.88949e+07
1.96381e+07
2.0702e+07
2.17899e+07
2.13482e+07
2.1054e+07
2.11552e+07
2.01733e+07
1.86099e+07
1.709e+07
1.57211e+07
1.41911e+07
1.24735e+07
1.07429e+07
9.3969e+06
8.83439e+06
7.99435e+06
7.10051e+06
7.25528e+06
7.25415e+06
7.13151e+06
7.56479e+06
8.15692e+06
8.56149e+06
8.57815e+06
7.60412e+06
6.8742e+06
6.21848e+06
4.40441e+06
2.73869e+06
1.0925e+06
6.68485e+06
6.3105e+06
6.01097e+06
5.71015e+06
5.39407e+06
5.14764e+06
4.9779e+06
4.80184e+06
4.65263e+06
4.53804e+06
4.39257e+06
4.2647e+06
4.19895e+06
4.20003e+06
4.27029e+06
4.18632e+06
3.99023e+06
3.90573e+06
3.90404e+06
3.78629e+06
3.50442e+06
3.30654e+06
3.1867e+06
3.10311e+06
3.01447e+06
2.8871e+06
2.84555e+06
2.85259e+06
2.82366e+06
2.79295e+06
2.79068e+06
2.86472e+06
3.00406e+06
3.07132e+06
3.08605e+06
3.16292e+06
3.30371e+06
3.45752e+06
3.73121e+06
4.0462e+06
4.4154e+06
4.75552e+06
5.08231e+06
5.44851e+06
5.90441e+06
6.35027e+06
6.81177e+06
7.29322e+06
7.73166e+06
8.16749e+06
8.55048e+06
8.8803e+06
9.24025e+06
9.60215e+06
9.97958e+06
1.04445e+07
1.10317e+07
1.14759e+07
1.18966e+07
1.24496e+07
1.32326e+07
1.36865e+07
1.39649e+07
1.46097e+07
1.56931e+07
1.61291e+07
1.61683e+07
1.71026e+07
1.71048e+07
1.63162e+07
1.64194e+07
1.57656e+07
1.45141e+07
1.40386e+07
1.39195e+07
1.41227e+07
1.40998e+07
1.37803e+07
1.44007e+07
1.53003e+07
1.49214e+07
1.54226e+07
1.66508e+07
1.63002e+07
1.64124e+07
1.71576e+07
1.68238e+07
1.65984e+07
1.666e+07
1.63285e+07
1.57277e+07
1.53266e+07
1.44397e+07
1.34744e+07
1.34859e+07
1.31033e+07
1.24084e+07
1.32418e+07
1.38317e+07
1.43009e+07
1.57592e+07
1.74656e+07
1.88376e+07
1.95532e+07
2.05904e+07
2.16601e+07
2.12229e+07
2.09399e+07
2.10464e+07
2.00833e+07
1.85496e+07
1.70577e+07
1.57159e+07
1.42212e+07
1.25441e+07
1.08506e+07
9.52895e+06
8.96194e+06
8.12086e+06
7.22691e+06
7.35264e+06
7.32217e+06
7.17357e+06
7.56845e+06
8.12002e+06
8.48957e+06
8.48496e+06
7.51766e+06
6.80172e+06
6.15341e+06
4.35722e+06
2.71649e+06
1.08307e+06
6.68167e+06
6.3107e+06
6.01059e+06
5.7055e+06
5.38666e+06
5.14232e+06
4.96961e+06
4.78816e+06
4.63364e+06
4.51479e+06
4.36706e+06
4.23663e+06
4.1653e+06
4.16138e+06
4.23255e+06
4.14731e+06
3.94727e+06
3.86056e+06
3.86173e+06
3.74485e+06
3.45764e+06
3.25693e+06
3.13062e+06
3.04039e+06
2.95408e+06
2.8292e+06
2.77846e+06
2.77351e+06
2.74284e+06
2.7197e+06
2.71752e+06
2.78889e+06
2.92039e+06
2.98892e+06
3.01286e+06
3.09188e+06
3.23372e+06
3.38924e+06
3.65572e+06
3.97415e+06
4.34202e+06
4.67938e+06
5.00103e+06
5.3677e+06
5.8327e+06
6.2824e+06
6.74522e+06
7.22635e+06
7.66544e+06
8.10385e+06
8.48691e+06
8.81692e+06
9.17521e+06
9.53618e+06
9.91136e+06
1.03705e+07
1.09503e+07
1.13882e+07
1.18004e+07
1.23423e+07
1.3117e+07
1.35632e+07
1.38306e+07
1.44604e+07
1.55304e+07
1.59594e+07
1.59941e+07
1.69193e+07
1.69294e+07
1.61574e+07
1.6267e+07
1.56355e+07
1.44131e+07
1.39557e+07
1.38547e+07
1.4066e+07
1.40538e+07
1.37484e+07
1.43768e+07
1.52791e+07
1.49019e+07
1.54145e+07
1.66506e+07
1.62945e+07
1.64063e+07
1.71616e+07
1.68303e+07
1.66072e+07
1.66761e+07
1.63599e+07
1.57748e+07
1.53887e+07
1.45273e+07
1.35858e+07
1.36027e+07
1.32391e+07
1.25624e+07
1.33619e+07
1.39251e+07
1.43751e+07
1.57871e+07
1.74483e+07
1.87857e+07
1.94807e+07
2.04886e+07
2.15338e+07
2.11111e+07
2.08389e+07
2.09433e+07
1.99977e+07
1.84932e+07
1.70296e+07
1.57115e+07
1.425e+07
1.26137e+07
1.09568e+07
9.65482e+06
9.08135e+06
8.24049e+06
7.34874e+06
7.4416e+06
7.3824e+06
7.21319e+06
7.57283e+06
8.08402e+06
8.4227e+06
8.39984e+06
7.446e+06
6.74227e+06
6.09365e+06
4.32175e+06
2.70461e+06
1.07688e+06
6.67812e+06
6.3063e+06
6.00664e+06
5.70056e+06
5.38287e+06
5.13541e+06
4.95679e+06
4.77208e+06
4.61577e+06
4.49193e+06
4.33845e+06
4.20529e+06
4.13236e+06
4.12737e+06
4.19542e+06
4.10523e+06
3.90326e+06
3.81791e+06
3.82261e+06
3.70241e+06
3.40767e+06
3.2068e+06
3.0806e+06
2.97653e+06
2.88898e+06
2.7655e+06
2.71058e+06
2.69324e+06
2.65834e+06
2.64053e+06
2.64049e+06
2.7127e+06
2.8354e+06
2.90252e+06
2.93521e+06
3.0189e+06
3.16454e+06
3.317e+06
3.57499e+06
3.89713e+06
4.26593e+06
4.60106e+06
4.91645e+06
5.28062e+06
5.75617e+06
6.21115e+06
6.67678e+06
7.1577e+06
7.59616e+06
8.03631e+06
8.42031e+06
8.75013e+06
9.10809e+06
9.46624e+06
9.83951e+06
1.02945e+07
1.08671e+07
1.12963e+07
1.16998e+07
1.22322e+07
1.29989e+07
1.34347e+07
1.36913e+07
1.43088e+07
1.53645e+07
1.5783e+07
1.58151e+07
1.67334e+07
1.67497e+07
1.59944e+07
1.61142e+07
1.55046e+07
1.4311e+07
1.38737e+07
1.37883e+07
1.40056e+07
1.40037e+07
1.37098e+07
1.43427e+07
1.52469e+07
1.48695e+07
1.5393e+07
1.66397e+07
1.62792e+07
1.63907e+07
1.71607e+07
1.6833e+07
1.66124e+07
1.66922e+07
1.63928e+07
1.58244e+07
1.54571e+07
1.46223e+07
1.37072e+07
1.37323e+07
1.33859e+07
1.27286e+07
1.34953e+07
1.40287e+07
1.44569e+07
1.58188e+07
1.74309e+07
1.87298e+07
1.93998e+07
2.03756e+07
2.13965e+07
2.09855e+07
2.07236e+07
2.08288e+07
1.99039e+07
1.84302e+07
1.69957e+07
1.57065e+07
1.42813e+07
1.26856e+07
1.10682e+07
9.78995e+06
9.20974e+06
8.3682e+06
7.47952e+06
7.53999e+06
7.44989e+06
7.25748e+06
7.57867e+06
8.04631e+06
8.35069e+06
8.30766e+06
7.36525e+06
6.67178e+06
6.02515e+06
4.27906e+06
2.68692e+06
1.06926e+06
6.673e+06
6.30199e+06
6.0039e+06
5.69451e+06
5.3749e+06
5.12882e+06
4.94448e+06
4.7558e+06
4.59571e+06
4.4667e+06
4.30954e+06
4.17358e+06
4.09747e+06
4.08851e+06
4.15586e+06
4.06218e+06
3.85713e+06
3.77082e+06
3.77904e+06
3.65798e+06
3.35614e+06
3.15455e+06
3.02608e+06
2.90976e+06
2.82477e+06
2.70303e+06
2.64123e+06
2.60973e+06
2.57282e+06
2.56205e+06
2.56245e+06
2.63406e+06
2.7471e+06
2.81483e+06
2.85674e+06
2.94288e+06
3.09249e+06
3.24325e+06
3.49414e+06
3.81914e+06
4.18795e+06
4.52031e+06
4.82871e+06
5.18697e+06
5.67828e+06
6.13789e+06
6.60513e+06
7.08518e+06
7.52395e+06
7.96674e+06
8.35101e+06
8.67918e+06
9.0371e+06
9.39352e+06
9.76516e+06
1.02144e+07
1.07792e+07
1.12006e+07
1.15952e+07
1.2116e+07
1.28749e+07
1.33013e+07
1.35456e+07
1.41498e+07
1.51913e+07
1.5599e+07
1.56271e+07