/*--------------------------------*- C++ -*----------------------------------*\
| =========                 |                                                 |
| \\      /  F ield         | OpenFOAM: The Open Source CFD Toolbox           |
|  \\    /   O peration     | Version:  v2012                                 |
|   \\  /    A nd           | Website:  www.openfoam.com                      |
|    \\/     M anipulation  |                                                 |
\*---------------------------------------------------------------------------*/
FoamFile
{
    version     2.0;
    format      ascii;
    class       volScalarField;
    location    "1e-06";
    object      pPrime2Mean;
}
// * * * * * * * * * * * * * * * * * * * * * * * * * * * * * * * * * * * * * //

dimensions      [2 -2 -4 0 0 0 0];


internalField   nonuniform List<scalar> 
10098
(
1.09812e+14
1.13049e+14
1.1277e+14
1.11963e+14
1.106e+14
1.01912e+14
8.63659e+13
7.32976e+13
6.18663e+13
5.21171e+13
4.42461e+13
3.82797e+13
3.26182e+13
2.6256e+13
2.16728e+13
1.85917e+13
1.62413e+13
1.45448e+13
1.35594e+13
1.26122e+13
1.16536e+13
1.1227e+13
1.02338e+13
9.57669e+12
8.67539e+12
7.44503e+12
6.8077e+12
7.15829e+12
6.79405e+12
5.42064e+12
4.7046e+12
4.84568e+12
5.84183e+12
5.32571e+12
3.50912e+12
2.66011e+12
2.50044e+12
2.99027e+12
3.71262e+12
4.50606e+12
6.20294e+12
7.9454e+12
9.51593e+12
1.1412e+13
1.39772e+13
1.75707e+13
2.2628e+13
2.9192e+13
3.69409e+13
4.64668e+13
5.60603e+13
6.56511e+13
7.83305e+13
9.63618e+13
1.20838e+14
1.5472e+14
1.9982e+14
2.45655e+14
2.9812e+14
3.64009e+14
4.48226e+14
5.14116e+14
5.69517e+14
6.60815e+14
7.92873e+14
8.60875e+14
8.85813e+14
9.7365e+14
9.53756e+14
1.08917e+14
1.12231e+14
1.12103e+14
1.11595e+14
1.10886e+14
1.0226e+14
8.63556e+13
7.32422e+13
6.18286e+13
5.2064e+13
4.4172e+13
3.81702e+13
3.2388e+13
2.61225e+13
2.15693e+13
1.84907e+13
1.6133e+13
1.44401e+13
1.34588e+13
1.25099e+13
1.15489e+13
1.11056e+13
1.01362e+13
9.46364e+12
8.55574e+12
7.33365e+12
6.6699e+12
6.96749e+12
6.59699e+12
5.2674e+12
4.56228e+12
4.69339e+12
5.6588e+12
5.14857e+12
3.38077e+12
2.54659e+12
2.3828e+12
2.83834e+12
3.53198e+12
4.2999e+12
5.93919e+12
7.62214e+12
9.16378e+12
1.10214e+13
1.35441e+13
1.70863e+13
2.20683e+13
2.85648e+13
3.62359e+13
4.56742e+13
5.52406e+13
6.4886e+13
7.74877e+13
9.53584e+13
1.19642e+14
1.53332e+14
1.98259e+14
2.43894e+14
2.9596e+14
3.61437e+14
4.45446e+14
5.11002e+14
5.65798e+14
6.56598e+14
7.88228e+14
8.55688e+14
8.80088e+14
9.6811e+14
9.48405e+14
1.08045e+14
1.11422e+14
1.11435e+14
1.11219e+14
1.11236e+14
1.02569e+14
8.63508e+13
7.31931e+13
6.17832e+13
5.20037e+13
4.40906e+13
3.80708e+13
3.21686e+13
2.59833e+13
2.14598e+13
1.83847e+13
1.60209e+13
1.43316e+13
1.3354e+13
1.24032e+13
1.14396e+13
1.0988e+13
1.00369e+13
9.34834e+12
8.43323e+12
7.21972e+12
6.52872e+12
6.77147e+12
6.39377e+12
5.10764e+12
4.41402e+12
4.53552e+12
5.46866e+12
4.96433e+12
3.24701e+12
2.42986e+12
2.26259e+12
2.68278e+12
3.34639e+12
4.08893e+12
5.67107e+12
7.29497e+12
8.80338e+12
1.06198e+13
1.30994e+13
1.65888e+13
2.14945e+13
2.79204e+13
3.55094e+13
4.48535e+13
5.43888e+13
6.41028e+13
7.66052e+13
9.43056e+13
1.18388e+14
1.51878e+14
1.96625e+14
2.4204e+14
2.9369e+14
3.5873e+14
4.42521e+14
5.07713e+14
5.61863e+14
6.52141e+14
7.83311e+14
8.50185e+14
8.74008e+14
9.62229e+14
9.42697e+14
1.07201e+14
1.10621e+14
1.10767e+14
1.10832e+14
1.11689e+14
1.028e+14
8.63139e+13
7.31452e+13
6.17355e+13
5.19364e+13
4.39986e+13
3.78887e+13
3.19608e+13
2.58399e+13
2.13442e+13
1.82743e+13
1.59054e+13
1.42179e+13
1.32436e+13
1.22926e+13
1.13284e+13
1.08735e+13
9.93505e+12
9.23092e+12
8.31013e+12
7.10581e+12
6.38346e+12
6.56863e+12
6.18591e+12
4.94552e+12
4.26155e+12
4.37048e+12
5.27104e+12
4.77505e+12
3.11086e+12
2.31023e+12
2.13871e+12
2.52434e+12
3.15817e+12
3.87643e+12
5.39837e+12
6.96142e+12
8.43375e+12
1.02086e+13
1.26473e+13
1.60808e+13
2.09023e+13
2.72542e+13
3.47622e+13
4.40125e+13
5.35038e+13
6.32856e+13
7.56722e+13
9.3209e+13
1.17082e+14
1.50343e+14
1.94901e+14
2.40102e+14
2.91316e+14
3.55864e+14
4.39432e+14
5.04279e+14
5.57712e+14
6.47405e+14
7.78123e+14
8.44403e+14
8.67553e+14
9.55954e+14
9.36671e+14
1.06381e+14
1.09825e+14
1.10102e+14
1.10425e+14
1.12232e+14
1.03043e+14
8.62925e+13
7.30986e+13
6.16835e+13
5.18608e+13
4.39019e+13
3.7713e+13
3.17609e+13
2.56911e+13
2.12221e+13
1.81585e+13
1.57853e+13
1.40996e+13
1.31287e+13
1.21772e+13
1.12121e+13
1.07627e+13
9.83223e+12
9.11172e+12
8.18497e+12
6.99033e+12
6.23487e+12
6.36157e+12
5.97261e+12
4.77737e+12
4.10365e+12
4.20075e+12
5.06707e+12
4.57924e+12
2.96987e+12
2.18822e+12
2.01354e+12
2.3639e+12
2.96638e+12
3.6595e+12
5.12253e+12
6.62544e+12
8.05695e+12
9.78712e+12
1.21848e+13
1.55613e+13
2.02975e+13
2.65718e+13
3.39942e+13
4.31433e+13
5.25835e+13
6.24482e+13
7.46918e+13
9.20595e+13
1.15712e+14
1.48738e+14
1.93098e+14
2.38066e+14
2.88824e+14
3.52851e+14
4.35838e+14
5.00663e+14
5.53329e+14
6.42415e+14
7.72655e+14
8.38292e+14
8.60718e+14
9.49319e+14
9.3028e+14
8.23641e+14
1.05607e+14
1.09032e+14
1.09437e+14
1.09995e+14
1.1291e+14
1.03301e+14
8.62817e+13
7.30514e+13
6.16325e+13
5.17781e+13
4.37984e+13
3.75387e+13
3.15719e+13
2.55388e+13
2.1094e+13
1.8039e+13
1.56617e+13
1.39758e+13
1.30081e+13
1.20584e+13
1.10945e+13
1.06568e+13
9.7278e+12
8.99154e+12
8.06092e+12
6.87667e+12
6.08338e+12
6.14889e+12
5.75617e+12
4.6081e+12
3.94231e+12
4.02456e+12
4.85661e+12
4.37946e+12
2.82738e+12
2.06444e+12
1.88579e+12
2.20249e+12
2.7741e+12
3.44118e+12
4.84353e+12
6.28409e+12
7.67279e+12
9.35791e+12
1.1717e+13
1.50327e+13
1.96739e+13
2.58664e+13
3.32046e+13
4.22547e+13
5.16262e+13
6.15761e+13
7.36541e+13
9.08639e+13
1.14287e+14
1.47045e+14
1.91194e+14
2.35941e+14
2.86225e+14
3.49831e+14
4.32054e+14
4.96707e+14
5.48716e+14
6.37124e+14
7.66908e+14
8.31903e+14
8.53476e+14
9.4226e+14
9.23566e+14
8.17071e+14
1.0467e+14
1.08229e+14
1.08755e+14
1.09522e+14
1.12476e+14
1.02685e+14
8.62471e+13
7.29964e+13
6.15735e+13
5.16908e+13
4.36893e+13
3.73752e+13
3.1398e+13
2.53867e+13
2.0959e+13
1.79101e+13
1.55297e+13
1.38404e+13
1.28701e+13
1.19221e+13
1.09681e+13
1.05543e+13
9.61836e+12
8.86084e+12
7.92524e+12
6.75539e+12
5.92102e+12
5.91022e+12
5.5079e+12
4.41178e+12
3.76322e+12
3.82149e+12
4.60625e+12
4.1427e+12
2.66292e+12
1.93154e+12
1.74773e+12
2.03125e+12
2.56915e+12
3.21362e+12
4.55542e+12
5.93201e+12
7.27483e+12
8.91163e+12
1.12357e+13
1.44926e+13
1.9039e+13
2.51431e+13
3.23917e+13
4.13378e+13
5.0628e+13
6.06094e+13
7.25467e+13
8.95935e+13
1.1277e+14
1.4523e+14
1.89104e+14
2.33592e+14
2.83364e+14
3.4645e+14
4.28091e+14
4.92148e+14
5.4353e+14
6.30914e+14
7.59931e+14
8.24272e+14
8.45077e+14
9.33419e+14
9.15085e+14
8.09301e+14
1.03741e+14
1.07475e+14
1.08074e+14
1.09021e+14
1.1165e+14
1.021e+14
8.61828e+13
7.29287e+13
6.14813e+13
5.15955e+13
4.35741e+13
3.7221e+13
3.12309e+13
2.52268e+13
2.08177e+13
1.77746e+13
1.53921e+13
1.37017e+13
1.27288e+13
1.17801e+13
1.08361e+13
1.0459e+13
9.51075e+12
8.73171e+12
7.78945e+12
6.63558e+12
5.76028e+12
5.67425e+12
5.25759e+12
4.20975e+12
3.58078e+12
3.61676e+12
4.3536e+12
3.90129e+12
2.49329e+12
1.79854e+12
1.61319e+12
1.86219e+12
2.36223e+12
2.98436e+12
4.26854e+12
5.58352e+12
6.87489e+12
8.45768e+12
1.0742e+13
1.3941e+13
1.83985e+13
2.44088e+13
3.15555e+13
4.03801e+13
4.9586e+13
5.94956e+13
7.13871e+13
8.8254e+13
1.11172e+14
1.43348e+14
1.86938e+14
2.31114e+14
2.80355e+14
3.42926e+14
4.23963e+14
4.87339e+14
5.38077e+14
6.24466e+14
7.52625e+14
8.16218e+14
8.36256e+14
9.24179e+14
9.06088e+14
8.01103e+14
1.02833e+14
1.06587e+14
1.07386e+14
1.08502e+14
1.10904e+14
1.01552e+14
8.6085e+13
7.28415e+13
6.13816e+13
5.14901e+13
4.34494e+13
3.70712e+13
3.10661e+13
2.50602e+13
2.06692e+13
1.76338e+13
1.52492e+13
1.35571e+13
1.25821e+13
1.16334e+13
1.06997e+13
1.03679e+13
9.40412e+12
8.60425e+12
7.65688e+12
6.52102e+12
5.60113e+12
5.4391e+12
5.00772e+12
4.00759e+12
3.39709e+12
3.40979e+12
4.09837e+12
3.65886e+12
2.3229e+12
1.66668e+12
1.48232e+12
1.69737e+12
2.15796e+12
2.75732e+12
3.98251e+12
5.23581e+12
6.47248e+12
7.99869e+12
1.02428e+13
1.33813e+13
1.77454e+13
2.36559e+13
3.06952e+13
3.93927e+13
4.85012e+13
5.82556e+13
7.01638e+13
8.68532e+13
1.09502e+14
1.41378e+14
1.84671e+14
2.28519e+14
2.77207e+14
3.39228e+14
4.19644e+14
4.82322e+14
5.32352e+14
6.17712e+14
7.44975e+14
8.07782e+14
8.26963e+14
9.14457e+14
8.96626e+14
7.92434e+14
1.01944e+14
1.05751e+14
1.06695e+14
1.07965e+14
1.10002e+14
1.01061e+14
8.59664e+13
7.27353e+13
6.1267e+13
5.1372e+13
4.33179e+13
3.69305e+13
3.08846e+13
2.48842e+13
2.05132e+13
1.74856e+13
1.50998e+13
1.34088e+13
1.24317e+13
1.14803e+13
1.05569e+13
1.0278e+13
9.29983e+12
8.47921e+12
7.52624e+12
6.41165e+12
5.44583e+12
5.20793e+12
4.75772e+12
3.80182e+12
3.21228e+12
3.20472e+12
3.84237e+12
3.4132e+12
2.14983e+12
1.53762e+12
1.35828e+12
1.5387e+12
1.95527e+12
2.5314e+12
3.69979e+12
4.89323e+12
6.07078e+12
7.53525e+12
9.73492e+12
1.28129e+13
1.70875e+13
2.28924e+13
2.98116e+13
3.83655e+13
4.73728e+13
5.69479e+13
6.88849e+13
8.53781e+13
1.07748e+14
1.39336e+14
1.82321e+14
2.25788e+14
2.73899e+14
3.35378e+14
4.15152e+14
4.77044e+14
5.26345e+14
6.10702e+14
7.36976e+14
7.98899e+14
8.17219e+14
9.04307e+14
8.86616e+14
7.83308e+14
1.01076e+14
1.04951e+14
1.06001e+14
1.0742e+14
1.09263e+14
1.00643e+14
8.58367e+13
7.26241e+13
6.1155e+13
5.12436e+13
4.31756e+13
3.67947e+13
3.07013e+13
2.47007e+13
2.03495e+13
1.73317e+13
1.49448e+13
1.32543e+13
1.22753e+13
1.13225e+13
1.04095e+13
1.01843e+13
9.19727e+12
8.35713e+12
7.40138e+12
6.31225e+12
5.29448e+12
4.97918e+12
4.51071e+12
3.59962e+12
3.02951e+12
3.00008e+12
3.58553e+12
3.16903e+12
1.97908e+12
1.41248e+12
1.24145e+12
1.38867e+12
1.75939e+12
2.31082e+12
3.4204e+12
4.55375e+12
5.6701e+12
7.07102e+12
9.22585e+12
1.22398e+13
1.64183e+13
2.21102e+13
2.89042e+13
3.73097e+13
4.62033e+13
5.55839e+13
6.75397e+13
8.38382e+13
1.05919e+14
1.37198e+14
1.7986e+14
2.22935e+14
2.70446e+14
3.31339e+14
4.10458e+14
4.71553e+14
5.2005e+14
6.03359e+14
7.28602e+14
7.89614e+14
8.06967e+14
8.93637e+14
8.7612e+14
7.73682e+14
1.00225e+14
1.04211e+14
1.05312e+14
1.06868e+14
1.08587e+14
1.00324e+14
8.57173e+13
7.25143e+13
6.10313e+13
5.11014e+13
4.30248e+13
3.66695e+13
3.04925e+13
2.45069e+13
2.0178e+13
1.71701e+13
1.47829e+13
1.30955e+13
1.21151e+13
1.11581e+13
1.02552e+13
1.00896e+13
9.09729e+12
8.23896e+12
7.28138e+12
6.22368e+12
5.1492e+12
4.75625e+12
4.26634e+12
3.39776e+12
2.84888e+12
2.79867e+12
3.33001e+12
2.92394e+12
1.80886e+12
1.29291e+12
1.13404e+12
1.24986e+12
1.56972e+12
2.09407e+12
3.14685e+12
4.22158e+12
5.2741e+12
6.60752e+12
8.71342e+12
1.1662e+13
1.57456e+13
2.13181e+13
2.7974e+13
3.62164e+13
4.49923e+13
5.42095e+13
6.61389e+13
8.22202e+13
1.04002e+14
1.34981e+14
1.77308e+14
2.19939e+14
2.66824e+14
3.27138e+14
4.05583e+14
4.65795e+14
5.1346e+14
5.95743e+14
7.19857e+14
7.79861e+14
7.96231e+14
8.82509e+14
8.65057e+14
7.63574e+14
9.93918e+13
1.03522e+14
1.04621e+14
1.06319e+14
1.08087e+14
1.00117e+14
8.55971e+13
7.23977e+13
6.08998e+13
5.09487e+13
4.28605e+13
3.65508e+13
3.02849e+13
2.43052e+13
1.99984e+13
1.70028e+13
1.46152e+13
1.29299e+13
1.19484e+13
1.09896e+13
1.00963e+13
9.97788e+12
8.99962e+12
8.12559e+12
7.17009e+12
6.15127e+12
5.01032e+12
4.53755e+12
4.02795e+12
3.20294e+12
2.67403e+12
2.5991e+12
3.07571e+12
2.6832e+12
1.64411e+12
1.18079e+12
1.03676e+12
1.12563e+12
1.39212e+12
1.88489e+12
2.87971e+12
3.89549e+12
4.88371e+12
6.14908e+12
8.2057e+12
1.10842e+13
1.50638e+13
2.05078e+13
2.70213e+13
3.50974e+13
4.3743e+13
5.2805e+13
6.46707e+13
8.05366e+13
1.0201e+14
1.3266e+14
1.74633e+14
2.16819e+14
2.63052e+14
3.2273e+14
4.00492e+14
4.59822e+14
5.0657e+14
5.87762e+14
7.10713e+14
7.69694e+14
7.84954e+14
8.70827e+14
8.535e+14
7.52942e+14
9.85717e+13
1.02916e+14
1.03936e+14
1.05771e+14
1.07763e+14
1.00007e+14
8.54833e+13
7.22814e+13
6.07554e+13
5.07809e+13
4.26838e+13
3.6445e+13
3.00484e+13
2.40926e+13
1.98105e+13
1.68275e+13
1.44401e+13
1.27596e+13
1.1778e+13
1.08144e+13
9.93028e+12
9.86588e+12
8.90527e+12
8.01815e+12
7.06667e+12
6.09628e+12
4.87999e+12
4.32674e+12
3.79538e+12
3.0125e+12
2.5046e+12
2.40433e+12
2.82504e+12
2.44417e+12
1.48305e+12
1.078e+12
9.51688e+11
1.01952e+12
1.22667e+12
1.68382e+12
2.62137e+12
3.57988e+12
4.50325e+12
5.69801e+12
7.70152e+12
1.05068e+13
1.43808e+13
1.96892e+13
2.60475e+13
3.3945e+13
4.24546e+13
5.1385e+13
6.31465e+13
7.87735e+13
9.99283e+13
1.30253e+14
1.7186e+14
2.1355e+14
2.59104e+14
3.18146e+14
3.95211e+14
4.53582e+14
4.99372e+14
5.7949e+14
7.01176e+14
7.59036e+14
7.73146e+14
8.58657e+14
8.41369e+14
7.41793e+14
9.77648e+13
1.02139e+14
1.03243e+14
1.05228e+14
1.07644e+14
1.00019e+14
8.53611e+13
7.21533e+13
6.06051e+13
5.06024e+13
4.24884e+13
3.61436e+13
2.98142e+13
2.38728e+13
1.96141e+13
1.66467e+13
1.42591e+13
1.2581e+13
1.16002e+13
1.06358e+13
9.75981e+12
9.72544e+12
8.8146e+12
7.91788e+12
6.97438e+12
6.06598e+12
4.75879e+12
4.12208e+12
3.57208e+12
2.83304e+12
2.34328e+12
2.21276e+12
2.57768e+12
2.21262e+12
1.33106e+12
9.86615e+11
8.80167e+11
9.36429e+11
1.07959e+12
1.49642e+12
2.37324e+12
3.27395e+12
4.13447e+12
5.26036e+12
7.2099e+12
9.93585e+12
1.36918e+13
1.88536e+13
2.50539e+13
3.27725e+13
4.11311e+13
4.99289e+13
6.15521e+13
7.69458e+13
9.77713e+13
1.27732e+14
1.68951e+14
2.10157e+14
2.55005e+14
3.13336e+14
3.89698e+14
4.4713e+14
4.91863e+14
5.70816e+14
6.9122e+14
7.47954e+14
7.60754e+14
8.45891e+14
8.28749e+14
7.30107e+14
9.69681e+13
1.01452e+14
1.02551e+14
1.04682e+14
1.07745e+14
1.00232e+14
8.52379e+13
7.20118e+13
6.04427e+13
5.04081e+13
4.22795e+13
3.58541e+13
2.9566e+13
2.36425e+13
1.94092e+13
1.64579e+13
1.40703e+13
1.23966e+13
1.14187e+13
1.04507e+13
9.58204e+12
9.59075e+12
8.72928e+12
7.82636e+12
6.89198e+12
6.06621e+12
4.64908e+12
3.92777e+12
3.35825e+12
2.66179e+12
2.18996e+12
2.02751e+12
2.3364e+12
1.98579e+12
1.1857e+12
9.09299e+11
8.24627e+11
8.81515e+11
9.51972e+11
1.32253e+12
2.13773e+12
2.98284e+12
3.78248e+12
4.83973e+12
6.73036e+12
9.37211e+12
1.30057e+13
1.80123e+13
2.40422e+13
3.15723e+13
3.97712e+13
4.84543e+13
5.98991e+13
7.50387e+13
9.55236e+13
1.25117e+14
1.65934e+14
2.06613e+14
2.50726e+14
3.08335e+14
3.83985e+14
4.40416e+14
4.84028e+14
5.61829e+14
6.8086e+14
7.36364e+14
7.47782e+14
8.32611e+14
8.15563e+14
7.17856e+14
9.61875e+13
1.00721e+14
1.01838e+14
1.04133e+14
1.08099e+14
1.0061e+14
8.50998e+13
7.18552e+13
6.02786e+13
5.02036e+13
4.20517e+13
3.55614e+13
2.93194e+13
2.34066e+13
1.91963e+13
1.62658e+13
1.38767e+13
1.22026e+13
1.1229e+13
1.02632e+13
9.40092e+12
9.46884e+12
8.65125e+12
7.74549e+12
6.82147e+12
6.10345e+12
4.55207e+12
3.74214e+12
3.15781e+12
2.50572e+12
2.04954e+12
1.84717e+12
2.10038e+12
1.76957e+12
1.05281e+12
8.49609e+11
7.86685e+11
8.61421e+11
8.49929e+11
1.16782e+12
1.91682e+12
2.70598e+12
3.45024e+12
4.44368e+12
6.27355e+12
8.82317e+12
1.23175e+13
1.71566e+13
2.30155e+13
3.03621e+13
3.83801e+13
4.69369e+13
5.81723e+13
7.30716e+13
9.32057e+13
1.22375e+14
1.62766e+14
2.02949e+14
2.46301e+14
3.03086e+14
3.78021e+14
4.3351e+14
4.75877e+14
5.52404e+14
6.70083e+14
7.24374e+14
7.34183e+14
8.18691e+14
8.01927e+14
7.05071e+14
6.87686e+14
9.53884e+13
9.96994e+13
1.01086e+14
1.03551e+14
1.0768e+14
9.99283e+13
8.49228e+13
7.16789e+13
6.00967e+13
4.99873e+13
4.18151e+13
3.52873e+13
2.90994e+13
2.31611e+13
1.89712e+13
1.60567e+13
1.36678e+13
1.19925e+13
1.10195e+13
1.00578e+13
9.20797e+12
9.37039e+12
8.5833e+12
7.67704e+12
6.76102e+12
6.18703e+12
4.46834e+12
3.56192e+12
2.96002e+12
2.35311e+12
1.91743e+12
1.6651e+12
1.85328e+12
1.54403e+12
9.22527e+11
8.10353e+11
7.69318e+11
8.84899e+11
7.74641e+11
1.03082e+12
1.7106e+12
2.44596e+12
3.14029e+12
4.07499e+12
5.8359e+12
8.28774e+12
1.1636e+13
1.62891e+13
2.19613e+13
2.91158e+13
3.69428e+13
4.53339e+13
5.63443e+13
7.09808e+13
9.075e+13
1.19451e+14
1.59297e+14
1.98916e+14
2.4147e+14
2.97297e+14
3.71218e+14
4.25677e+14
4.66852e+14
5.41571e+14
6.57299e+14
7.10386e+14
7.18781e+14
8.01947e+14
7.85487e+14
6.90421e+14
6.7431e+14
5.908e+14
4.69401e+14
4.2044e+14
4.16236e+14
4.41041e+14
4.49726e+14
4.42025e+14
5.12287e+14
6.1104e+14
6.13014e+14
6.84875e+14
8.27749e+14
8.30181e+14
8.68243e+14
9.60779e+14
9.44056e+14
9.26764e+14
9.34363e+14
8.87755e+14
8.09943e+14
7.42737e+14
6.27592e+14
5.22233e+14
5.10405e+14
4.69813e+14
4.25146e+14
5.2292e+14
6.3156e+14
7.47788e+14
1.01943e+15
1.37672e+15
1.71763e+15
1.95992e+15
2.2656e+15
2.54645e+15
2.5025e+15
2.45113e+15
2.45643e+15
2.2287e+15
1.87233e+15
1.54297e+15
1.26454e+15
9.86182e+14
7.16538e+14
4.93157e+14
3.54557e+14
3.0071e+14
2.40544e+14
1.9042e+14
2.08642e+14
2.27026e+14
2.40915e+14
2.95481e+14
3.76202e+14
4.42161e+14
4.56073e+14
3.7362e+14
3.05446e+14
2.42202e+14
1.26204e+14
4.68679e+13
6.20096e+12
9.45971e+13
9.87887e+13
1.00342e+14
1.02941e+14
1.06686e+14
9.93985e+13
8.47391e+13
7.14896e+13
5.98637e+13
4.97506e+13
4.15706e+13
3.50289e+13
2.885e+13
2.29035e+13
1.87373e+13
1.58362e+13
1.34498e+13
1.1783e+13
1.0812e+13
9.84533e+12
9.00397e+12
9.29973e+12
8.52569e+12
7.62501e+12
6.71231e+12
6.33207e+12
4.40214e+12
3.40269e+12
2.7822e+12
2.21536e+12
1.80495e+12
1.50006e+12
1.62247e+12
1.32971e+12
8.03221e+11
7.98162e+11
7.74952e+11
9.61946e+11
7.32802e+11
9.15115e+11
1.52621e+12
2.2134e+12
2.86413e+12
3.74541e+12
5.42237e+12
7.77091e+12
1.09758e+13
1.54332e+13
2.08964e+13
2.78346e+13
3.54719e+13
4.36477e+13
5.44662e+13
6.87938e+13
8.81861e+13
1.1645e+14
1.55735e+14
1.94696e+14
2.36423e+14
2.91338e+14
3.64221e+14
4.17492e+14
4.57482e+14
5.30478e+14
6.44071e+14
6.95718e+14
7.02822e+14
7.84684e+14
7.68309e+14
6.75228e+14
6.60595e+14
5.7995e+14
4.61368e+14
4.14434e+14
4.11304e+14
4.36923e+14
4.46342e+14
4.39113e+14
5.09927e+14
6.09604e+14
6.10958e+14
6.8345e+14
8.27863e+14
8.29856e+14
8.67399e+14
9.61343e+14
9.45012e+14
9.2801e+14
9.36479e+14
8.91816e+14
8.15303e+14
7.49681e+14
6.35804e+14
5.31335e+14
5.20511e+14
4.81168e+14
4.36707e+14
5.33333e+14
6.39986e+14
7.54414e+14
1.02126e+15
1.37322e+15
1.70809e+15
1.94636e+15
2.24649e+15
2.52357e+15
2.48187e+15
2.43289e+15
2.43868e+15
2.2146e+15
1.86373e+15
1.53913e+15
1.26435e+15
9.90383e+14
7.24383e+14
5.02866e+14
3.64202e+14
3.09213e+14
2.479e+14
1.96817e+14
2.13566e+14
2.30152e+14
2.42535e+14
2.95461e+14
3.72946e+14
4.36262e+14
4.49034e+14
3.68226e+14
3.01786e+14
2.39299e+14
1.24879e+14
4.642e+13
6.2078e+12
9.38309e+13
9.79645e+13
9.95944e+13
1.02328e+14
1.05969e+14
9.90285e+13
8.45418e+13
7.12821e+13
5.96181e+13
4.94999e+13
4.13097e+13
3.47769e+13
2.86048e+13
2.2632e+13
1.84931e+13
1.56079e+13
1.32233e+13
1.15629e+13
1.05985e+13
9.62947e+12
8.79129e+12
9.21359e+12
8.47927e+12
7.59122e+12
6.67215e+12
6.55528e+12
4.35284e+12
3.26265e+12
2.62887e+12
2.10024e+12
1.71807e+12
1.34938e+12
1.40678e+12
1.13276e+12
7.00326e+11
8.12631e+11
8.04311e+11
1.10255e+12
7.30008e+11
8.26948e+11
1.36621e+12
2.00897e+12
2.6264e+12
3.46768e+12
5.04685e+12
7.28197e+12
1.03327e+13
1.45814e+13
1.98264e+13
2.65423e+13
3.39746e+13
4.18969e+13
5.25233e+13
6.65355e+13
8.55392e+13
1.13336e+14
1.52035e+14
1.90327e+14
2.31197e+14
2.85138e+14
3.56961e+14
4.09037e+14
4.47739e+14
5.1899e+14
6.30399e+14
6.80509e+14
6.86239e+14
7.66768e+14
7.50528e+14
6.59388e+14
6.46383e+14
5.68814e+14
4.53151e+14
4.08251e+14
4.06213e+14
4.32618e+14
4.42673e+14
4.35865e+14
5.07252e+14
6.07704e+14
6.08375e+14
6.81609e+14
8.27618e+14
8.29071e+14
8.66204e+14
9.61666e+14
9.45771e+14
9.29112e+14
9.38579e+14
8.95999e+14
8.20928e+14
7.57057e+14
6.44705e+14
5.41262e+14
5.3164e+14
4.93574e+14
4.49201e+14
5.44748e+14
6.49382e+14
7.61772e+14
1.0234e+15
1.36978e+15
1.69816e+15
1.93178e+15
2.22593e+15
2.49897e+15
2.45921e+15
2.41277e+15
2.41926e+15
2.19915e+15
1.85424e+15
1.53476e+15
1.26399e+15
9.94732e+14
7.32654e+14
5.13176e+14
3.74561e+14
3.18427e+14
2.5592e+14
2.03778e+14
2.18984e+14
2.33703e+14
2.44456e+14
2.95455e+14
3.69616e+14
4.30048e+14
4.41477e+14
3.62279e+14
2.97621e+14
2.36064e+14
1.23338e+14
4.59851e+13
6.1838e+12
9.31032e+13
9.72479e+13
9.88547e+13
1.01708e+14
1.05418e+14
9.88496e+13
8.4347e+13
7.10601e+13
5.93503e+13
4.92265e+13
4.10372e+13
3.45362e+13
2.82557e+13
2.23475e+13
1.82385e+13
1.5368e+13
1.29877e+13
1.13399e+13
1.03861e+13
9.4071e+12
8.56625e+12
9.10872e+12
8.4433e+12
7.57815e+12
6.63833e+12
6.88734e+12
4.31939e+12
3.144e+12
2.50153e+12
2.00766e+12
1.66198e+12
1.21576e+12
1.20915e+12
9.50979e+11
6.1346e+11
8.50546e+11
8.55703e+11
1.32199e+12
7.71906e+11
7.6823e+11
1.23284e+12
1.83688e+12
2.43423e+12
3.25343e+12
4.71277e+12
6.82451e+12
9.71762e+12
1.37481e+13
1.87552e+13
2.52315e+13
3.24531e+13
4.01489e+13
5.05335e+13
6.41878e+13
8.27929e+13
1.10138e+14
1.4823e+14
1.85776e+14
2.25759e+14
2.7875e+14
3.49487e+14
4.00251e+14
4.37632e+14
5.07199e+14
6.16278e+14
6.6463e+14
6.69087e+14
7.48296e+14
7.32042e+14
6.42982e+14
6.31785e+14
5.57332e+14
4.4472e+14
4.01965e+14
4.0099e+14
4.28054e+14
4.38741e+14
4.32286e+14
5.04111e+14
6.05217e+14
6.05183e+14
6.79123e+14
8.26849e+14
8.27759e+14
8.64509e+14
9.61713e+14
9.46344e+14
9.30039e+14
9.40726e+14
9.00359e+14
8.26863e+14
7.6499e+14
6.54329e+14
5.52053e+14
5.43867e+14
5.06988e+14
4.62749e+14
5.57253e+14
6.597e+14
7.69853e+14
1.02606e+15
1.36635e+15
1.68782e+15
1.91624e+15
2.20387e+15
2.47258e+15
2.43465e+15
2.39065e+15
2.39812e+15
2.18244e+15
1.84388e+15
1.52977e+15
1.26353e+15
9.9935e+14
7.41263e+14
5.24053e+14
3.85659e+14
3.28345e+14
2.64563e+14
2.11307e+14
2.24919e+14
2.37648e+14
2.46674e+14
2.95654e+14
3.66211e+14
4.23558e+14
4.33495e+14
3.55852e+14
2.92918e+14
2.32444e+14
1.21601e+14
4.55232e+13
6.16673e+12
9.23726e+13
9.66101e+13
9.81047e+13
1.01095e+14
1.05179e+14
9.881e+13
8.41402e+13
7.08175e+13
5.90722e+13
4.89394e+13
4.0743e+13
3.42604e+13
2.79095e+13
2.20479e+13
1.79728e+13
1.51205e+13
1.27442e+13
1.11057e+13
1.01647e+13
9.17953e+12
8.33123e+12
8.91971e+12
8.4226e+12
7.58909e+12
6.60219e+12
7.34993e+12
4.29977e+12
3.04656e+12
2.40514e+12
1.94332e+12
1.6229e+12
1.09772e+12
1.02841e+12
7.90059e+11
5.45759e+11
9.04185e+11
9.29282e+11
1.6397e+12
8.61854e+11
7.43547e+11
1.12923e+12
1.69939e+12
2.29414e+12
3.11996e+12
4.43342e+12
6.40886e+12
9.13016e+12
1.29277e+13
1.76908e+13
2.39255e+13
3.09184e+13
3.83801e+13
4.84823e+13
6.17797e+13
7.99776e+13
1.06817e+14
1.44273e+14
1.81087e+14
2.20155e+14
2.72096e+14
3.41727e+14
3.91218e+14
4.27174e+14
4.94977e+14
6.01716e+14
6.48222e+14
6.51328e+14
7.29117e+14
7.12996e+14
6.25976e+14
6.16645e+14
5.45597e+14
4.36142e+14
3.95467e+14
3.95624e+14
4.23318e+14
4.34472e+14
4.28297e+14
5.00608e+14
6.02134e+14
6.01301e+14
6.76135e+14
8.25591e+14
8.25841e+14
8.62381e+14
9.6145e+14
9.46645e+14
9.308e+14
9.42834e+14
9.04856e+14
8.33108e+14
7.73424e+14
6.64777e+14
5.63832e+14
5.57267e+14
5.21688e+14
4.77462e+14
5.70932e+14
6.71162e+14
7.78805e+14
1.02927e+15
1.363e+15
1.67699e+15
1.89954e+15
2.18024e+15
2.44418e+15
2.40778e+15
2.36641e+15
2.37509e+15
2.16419e+15
1.83251e+15
1.52425e+15
1.26293e+15
1.00408e+15
7.50361e+14
5.35614e+14
3.97557e+14
3.39097e+14
2.73998e+14
2.1951e+14
2.31427e+14
2.42103e+14
2.49238e+14
2.95688e+14
3.62718e+14
4.16754e+14
4.24958e+14
3.48826e+14
2.87669e+14
2.28417e+14
1.19599e+14
4.5043e+13
6.13726e+12
9.16586e+13
9.61147e+13
9.73515e+13
1.00476e+14
1.05269e+14
9.83911e+13
8.39274e+13
7.05577e+13
5.87746e+13
4.8631e+13
4.0432e+13
3.39888e+13
2.75365e+13
2.17356e+13
1.76966e+13
1.48623e+13
1.24913e+13
1.08686e+13
9.94473e+12
8.94743e+12
8.08341e+12
8.68441e+12
8.42154e+12
7.62868e+12
6.55395e+12
7.97856e+12
4.28963e+12
2.97247e+12
2.34231e+12
1.90823e+12
1.62161e+12
9.9735e+11
8.67543e+11
6.48273e+11
4.96791e+11
9.85107e+11
1.02168e+12
2.08301e+12
1.00683e+12
7.55675e+11
1.0575e+12
1.60059e+12
2.21419e+12
3.08392e+12
4.21383e+12
6.03946e+12
8.58225e+12
1.21372e+13
1.66385e+13
2.26184e+13
2.93708e+13
3.66124e+13
4.63883e+13
5.92939e+13
7.70726e+13
1.03406e+14
1.40203e+14
1.76227e+14
2.14349e+14
2.65233e+14
3.33739e+14
3.8188e+14
4.16329e+14
4.8243e+14
5.8672e+14
6.31182e+14
6.32972e+14
7.09355e+14
6.93313e+14
6.08339e+14
6.01079e+14
5.33563e+14
4.27393e+14
3.88872e+14
3.9013e+14
4.18346e+14
4.29901e+14
4.23906e+14
4.96576e+14
5.98327e+14
5.96613e+14
6.72361e+14
8.23635e+14
8.23211e+14
8.5962e+14
9.60813e+14
9.46593e+14
9.31338e+14
9.44967e+14
9.09544e+14
8.39705e+14
7.825e+14
6.76094e+14
5.76651e+14
5.71926e+14
5.3764e+14
4.93347e+14
5.85883e+14
6.83734e+14
7.88619e+14
1.03303e+15
1.35967e+15
1.66565e+15
1.88174e+15
2.15497e+15
2.41399e+15
2.37873e+15
2.33993e+15
2.35013e+15
2.14447e+15
1.82014e+15
1.51808e+15
1.26222e+15
1.00906e+15
7.59867e+14
5.47823e+14
4.10297e+14
3.50675e+14
2.84192e+14
2.28391e+14
2.38545e+14
2.47039e+14
2.52144e+14
2.95915e+14
3.59136e+14
4.09663e+14
4.15968e+14
3.41278e+14
2.81849e+14
2.24006e+14
1.17348e+14
4.44303e+13
6.04061e+12
9.09547e+13
9.53348e+13
9.65464e+13
9.98497e+13
1.05771e+14
9.78966e+13
8.36896e+13
7.02753e+13
5.84745e+13
4.8312e+13
4.00913e+13
3.35468e+13
2.71686e+13
2.14095e+13
1.74104e+13
1.46005e+13
1.22332e+13
1.06142e+13
9.71174e+12
8.71776e+12
7.82768e+12
8.41277e+12
8.45507e+12
7.70539e+12
6.4641e+12
7.43129e+12
4.27915e+12
2.92465e+12
2.31631e+12
1.90313e+12
1.64182e+12
9.14334e+11
7.2582e+11
5.30132e+11
4.66327e+11
1.10531e+12
1.13295e+12
2.65918e+12
1.19719e+12
8.05065e+11
1.02047e+12
1.54383e+12
2.20266e+12
3.17082e+12
4.0667e+12
5.72785e+12
8.07505e+12
1.13728e+13
1.56097e+13
2.13404e+13
2.7825e+13
3.48176e+13
4.42361e+13
5.67649e+13
7.41193e+13
9.9863e+13
1.35962e+14
1.71253e+14
2.08401e+14
2.58079e+14
3.25446e+14
3.7235e+14
4.05165e+14
4.69408e+14
5.71313e+14
6.13705e+14
6.14021e+14
6.88847e+14
6.73182e+14
5.90184e+14
5.84939e+14
5.21353e+14
4.18558e+14
3.8209e+14
3.84469e+14
4.13231e+14
4.24927e+14
4.19016e+14
4.92125e+14
5.93746e+14
5.91026e+14
6.67959e+14
8.21012e+14
8.19778e+14
8.56307e+14
9.59769e+14
9.46232e+14
9.31663e+14
9.47025e+14
9.14382e+14
8.46662e+14
7.92159e+14
6.88405e+14
5.90698e+14
5.87918e+14
5.55197e+14
5.10732e+14
6.02194e+14
6.97683e+14
7.99468e+14
1.03737e+15
1.35646e+15
1.65371e+15
1.86261e+15
2.12803e+15
2.38141e+15
2.347e+15
2.31104e+15
2.32305e+15
2.12294e+15
1.80662e+15
1.5114e+15
1.26133e+15
1.01407e+15
7.69952e+14
5.60814e+14
4.23943e+14
3.63237e+14
2.9534e+14
2.38081e+14
2.46342e+14
2.52594e+14
2.55449e+14
2.96137e+14
3.5546e+14
4.02221e+14
4.06386e+14
3.33078e+14
2.75463e+14
2.19092e+14
1.14756e+14
4.36728e+13
5.93972e+12
9.024e+13
9.42857e+13
9.56888e+13
9.91551e+13
1.05341e+14
9.75216e+13
8.34288e+13
6.99627e+13
5.81464e+13
4.79799e+13
3.97415e+13
3.3139e+13
2.68262e+13
2.10917e+13
1.7102e+13
1.43061e+13
1.19492e+13
1.0333e+13
9.44507e+12
8.45862e+12
7.55633e+12
8.16425e+12
8.52143e+12
7.82628e+12
6.3448e+12
6.87537e+12
4.2656e+12
2.90608e+12
2.33075e+12
1.93311e+12
1.71453e+12
8.50838e+11
6.01938e+11
4.31753e+11
4.55557e+11
1.28319e+12
1.25135e+12
2.39389e+12
1.36736e+12
8.90444e+11
1.01982e+12
1.53481e+12
2.26759e+12
3.40692e+12
3.99742e+12
5.47914e+12
7.62436e+12
1.06469e+13
1.4597e+13
2.006e+13
2.62626e+13
3.29711e+13
4.19954e+13
5.41127e+13
7.10285e+13
9.61202e+13
1.31359e+14
1.65827e+14
2.01971e+14
2.50252e+14
3.16058e+14
3.61623e+14
3.92915e+14
4.54692e+14
5.53457e+14
5.9383e+14
5.92955e+14
6.64818e+14
6.49613e+14
5.69734e+14
5.65894e+14
5.06426e+14
4.08212e+14
3.74259e+14
3.78352e+14
4.07777e+14
4.20354e+14
4.15708e+14
4.89277e+14
5.90913e+14
5.88297e+14
6.66443e+14
8.20449e+14
8.18701e+14
8.55183e+14
9.60097e+14
9.47083e+14
9.33026e+14
9.49688e+14
9.19401e+14
8.53907e+14
8.01615e+14
7.00595e+14
6.04778e+14
6.03269e+14
5.72251e+14
5.2849e+14
6.18027e+14
7.10965e+14
8.10211e+14
1.04201e+15
1.35318e+15
1.64255e+15
1.84522e+15
2.10253e+15
2.34919e+15
2.31721e+15
2.28406e+15
2.2967e+15
2.10196e+15
1.79339e+15
1.50515e+15
1.26051e+15
1.01896e+15
7.80122e+14
5.73992e+14
4.37522e+14
3.75576e+14
3.06419e+14
2.47865e+14
2.53917e+14
2.57856e+14
2.58731e+14
2.96444e+14
3.5182e+14
3.95114e+14
3.97354e+14
3.25794e+14
2.69814e+14
2.14376e+14
1.12576e+14
4.31171e+13
5.85655e+12
8.95384e+13
9.33913e+13
9.4827e+13
9.84083e+13
1.04477e+14
9.71413e+13
8.31924e+13
6.96333e+13
5.77779e+13
4.76184e+13
3.93821e+13
3.27538e+13
2.64609e+13
2.07496e+13
1.6783e+13
1.39965e+13
1.16565e+13
1.00528e+13
9.18564e+12
8.19279e+12
7.27227e+12
7.82832e+12
8.06667e+12
7.98191e+12
6.20518e+12
6.43078e+12
4.21988e+12
2.91561e+12
2.39171e+12
2.00609e+12
1.85402e+12
8.08192e+11
5.05933e+11
3.60712e+11
4.66523e+11
1.50618e+12
1.28956e+12
2.1047e+12
1.58194e+12
1.02077e+12
1.05615e+12
1.57477e+12
2.41548e+12
3.83248e+12
4.01491e+12
5.30058e+12
7.24508e+12
9.98895e+12
1.36274e+13
1.87917e+13
2.4707e+13
3.11034e+13
3.97397e+13
5.13816e+13
6.78483e+13
9.23237e+13
1.26675e+14
1.60209e+14
1.9532e+14
2.42256e+14
3.06476e+14
3.50526e+14
3.80306e+14
4.39751e+14
5.3519e+14
5.73271e+14
5.71383e+14
6.40303e+14
6.2537e+14
5.48701e+14
5.46584e+14
4.91172e+14
3.97684e+14
3.66402e+14
3.72072e+14
4.02032e+14
4.15524e+14
4.12027e+14
4.85769e+14
5.87264e+14
5.84684e+14
6.63922e+14
8.18958e+14
8.16773e+14
8.53236e+14
9.59973e+14
9.47611e+14
9.34078e+14
9.52416e+14
9.24652e+14
8.61554e+14
8.11881e+14
7.13774e+14
6.20129e+14
6.20075e+14
5.90722e+14
5.47788e+14
6.35433e+14
7.2551e+14
8.21938e+14
1.04726e+15
1.34988e+15
1.6308e+15
1.82661e+15
2.07516e+15
2.31484e+15
2.28524e+15
2.25453e+15
2.26815e+15
2.0794e+15
1.77906e+15
1.49804e+15
1.25957e+15
1.02419e+15
7.90674e+14
5.87874e+14
4.52092e+14
3.88863e+14
3.18357e+14
2.58429e+14
2.62244e+14
2.6367e+14
2.62322e+14
2.96871e+14
3.48085e+14
3.87679e+14
3.87912e+14
3.18001e+14
2.63531e+14
2.09187e+14
1.10144e+14
4.2444e+13
5.76969e+12
8.88694e+13
9.25922e+13
9.39356e+13
9.76313e+13
1.04123e+14
9.6741e+13
8.29589e+13
6.9274e+13
5.73865e+13
4.72374e+13
3.89977e+13
3.23686e+13
2.60692e+13
2.03983e+13
1.64504e+13
1.36771e+13
1.13546e+13
9.75967e+12
8.91284e+12
7.92073e+12
6.97849e+12
7.45718e+12
7.62093e+12
8.21437e+12
6.03115e+12
5.89146e+12
4.14193e+12
2.95621e+12
2.50118e+12
2.11446e+12
2.05536e+12
7.84063e+11
4.3701e+11
3.19799e+11
4.95104e+11
1.77984e+12
1.33598e+12
1.86729e+12
1.79953e+12
1.19347e+12
1.12958e+12
1.66515e+12
2.65171e+12
4.50202e+12
4.12907e+12
5.20413e+12
6.94291e+12
9.40196e+12
1.27181e+13
1.75703e+13
2.31759e+13
2.92244e+13
3.74575e+13
4.86153e+13
6.4627e+13
8.84308e+13
1.21857e+14
1.54466e+14
1.88521e+14
2.34005e+14
2.96628e+14
3.39191e+14
3.67357e+14
4.24443e+14