/*--------------------------------*- C++ -*----------------------------------*\
| =========                 |                                                 |
| \\      /  F ield         | OpenFOAM: The Open Source CFD Toolbox           |
|  \\    /   O peration     | Version:  v2012                                 |
|   \\  /    A nd           | Website:  www.openfoam.com                      |
|    \\/     M anipulation  |                                                 |
\*---------------------------------------------------------------------------*/
FoamFile
{
    version     2.0;
    format      ascii;
    class       volScalarField;
    location    "1e-06";
    object      totalPPrime2Mean;
}
// * * * * * * * * * * * * * * * * * * * * * * * * * * * * * * * * * * * * * //

dimensions      [2 -2 -4 0 0 0 0];


internalField   nonuniform List<scalar> 
10098
(
1.09813e+14
1.13049e+14
1.1277e+14
1.11963e+14
1.106e+14
1.01912e+14
8.63659e+13
7.32976e+13
6.18663e+13
5.21171e+13
4.42461e+13
3.82797e+13
3.26182e+13
2.6256e+13
2.16728e+13
1.85917e+13
1.62413e+13
1.45448e+13
1.35594e+13
1.26122e+13
1.16536e+13
1.1227e+13
1.02338e+13
9.57667e+12
8.67537e+12
7.44502e+12
6.80769e+12
7.15829e+12
6.79404e+12
5.42064e+12
4.70461e+12
4.8457e+12
5.84186e+12
5.32574e+12
3.50916e+12
2.66015e+12
2.50049e+12
2.99033e+12
3.71268e+12
4.50612e+12
6.20302e+12
7.9455e+12
9.51604e+12
1.14121e+13
1.39773e+13
1.75709e+13
2.26282e+13
2.91921e+13
3.6941e+13
4.64669e+13
5.60604e+13
6.56511e+13
7.83305e+13
9.63618e+13
1.20838e+14
1.5472e+14
1.9982e+14
2.45655e+14
2.9812e+14
3.64009e+14
4.48226e+14
5.14116e+14
5.69517e+14
6.60815e+14
7.92874e+14
8.60875e+14
8.85814e+14
9.73651e+14
9.53755e+14
1.08917e+14
1.12231e+14
1.12103e+14
1.11595e+14
1.10886e+14
1.0226e+14
8.63556e+13
7.32422e+13
6.18286e+13
5.2064e+13
4.4172e+13
3.81702e+13
3.2388e+13
2.61225e+13
2.15693e+13
1.84907e+13
1.6133e+13
1.44401e+13
1.34588e+13
1.25099e+13
1.15489e+13
1.11056e+13
1.01361e+13
9.46363e+12
8.55573e+12
7.33363e+12
6.6699e+12
6.96749e+12
6.59699e+12
5.2674e+12
4.56229e+12
4.69341e+12
5.65883e+12
5.14861e+12
3.38082e+12
2.54664e+12
2.38285e+12
2.8384e+12
3.53204e+12
4.29997e+12
5.93928e+12
7.62224e+12
9.1639e+12
1.10216e+13
1.35442e+13
1.70864e+13
2.20685e+13
2.85649e+13
3.6236e+13
4.56743e+13
5.52407e+13
6.48861e+13
7.74877e+13
9.53584e+13
1.19642e+14
1.53332e+14
1.98259e+14
2.43894e+14
2.9596e+14
3.61437e+14
4.45447e+14
5.11002e+14
5.65798e+14
6.56598e+14
7.88228e+14
8.55689e+14
8.80089e+14
9.68112e+14
9.48405e+14
1.08045e+14
1.11422e+14
1.11435e+14
1.11219e+14
1.11236e+14
1.02569e+14
8.63509e+13
7.31931e+13
6.17832e+13
5.20037e+13
4.40906e+13
3.80708e+13
3.21686e+13
2.59833e+13
2.14598e+13
1.83847e+13
1.60209e+13
1.43316e+13
1.3354e+13
1.24032e+13
1.14396e+13
1.0988e+13
1.00368e+13
9.34832e+12
8.43321e+12
7.2197e+12
6.52871e+12
6.77146e+12
6.39376e+12
5.10764e+12
4.41403e+12
4.53554e+12
5.46869e+12
4.96436e+12
3.24705e+12
2.4299e+12
2.26264e+12
2.68284e+12
3.34645e+12
4.089e+12
5.67116e+12
7.29507e+12
8.80349e+12
1.062e+13
1.30995e+13
1.65889e+13
2.14946e+13
2.79205e+13
3.55095e+13
4.48536e+13
5.43888e+13
6.41028e+13
7.66052e+13
9.43056e+13
1.18388e+14
1.51878e+14
1.96625e+14
2.4204e+14
2.9369e+14
3.58731e+14
4.42521e+14
5.07713e+14
5.61863e+14
6.52142e+14
7.83312e+14
8.50185e+14
8.74009e+14
9.6223e+14
9.42697e+14
1.07201e+14
1.10621e+14
1.10767e+14
1.10832e+14
1.11689e+14
1.028e+14
8.63139e+13
7.31453e+13
6.17355e+13
5.19364e+13
4.39986e+13
3.78887e+13
3.19608e+13
2.58399e+13
2.13442e+13
1.82743e+13
1.59053e+13
1.42178e+13
1.32436e+13
1.22925e+13
1.13284e+13
1.08735e+13
9.93504e+12
9.2309e+12
8.31011e+12
7.10579e+12
6.38345e+12
6.56863e+12
6.18591e+12
4.94552e+12
4.26157e+12
4.3705e+12
5.27108e+12
4.7751e+12
3.11091e+12
2.31028e+12
2.13877e+12
2.5244e+12
3.15823e+12
3.8765e+12
5.39846e+12
6.96153e+12
8.43386e+12
1.02087e+13
1.26474e+13
1.6081e+13
2.09024e+13
2.72543e+13
3.47624e+13
4.40126e+13
5.35039e+13
6.32857e+13
7.56723e+13
9.3209e+13
1.17082e+14
1.50343e+14
1.94901e+14
2.40102e+14
2.91316e+14
3.55864e+14
4.39432e+14
5.04279e+14
5.57712e+14
6.47405e+14
7.78124e+14
8.44403e+14
8.67554e+14
9.55955e+14
9.36671e+14
1.06381e+14
1.09825e+14
1.10102e+14
1.10425e+14
1.12232e+14
1.03043e+14
8.62926e+13
7.30986e+13
6.16835e+13
5.18608e+13
4.39019e+13
3.7713e+13
3.17609e+13
2.56911e+13
2.12221e+13
1.81585e+13
1.57853e+13
1.40996e+13
1.31286e+13
1.21772e+13
1.1212e+13
1.07627e+13
9.83221e+12
9.11171e+12
8.18495e+12
6.99032e+12
6.23486e+12
6.36156e+12
5.9726e+12
4.77736e+12
4.10365e+12
4.20077e+12
5.0671e+12
4.57927e+12
2.96991e+12
2.18827e+12
2.01359e+12
2.36396e+12
2.96644e+12
3.65957e+12
5.12262e+12
6.62554e+12
8.05707e+12
9.78724e+12
1.2185e+13
1.55614e+13
2.02976e+13
2.6572e+13
3.39944e+13
4.31434e+13
5.25835e+13
6.24483e+13
7.46919e+13
9.20595e+13
1.15712e+14
1.48738e+14
1.93098e+14
2.38066e+14
2.88824e+14
3.52851e+14
4.35838e+14
5.00663e+14
5.53329e+14
6.42416e+14
7.72656e+14
8.38293e+14
8.60719e+14
9.4932e+14
9.3028e+14
8.23641e+14
1.05607e+14
1.09032e+14
1.09437e+14
1.09995e+14
1.1291e+14
1.03301e+14
8.62818e+13
7.30515e+13
6.16326e+13
5.17781e+13
4.37984e+13
3.75387e+13
3.15719e+13
2.55388e+13
2.1094e+13
1.8039e+13
1.56617e+13
1.39758e+13
1.3008e+13
1.20583e+13
1.10945e+13
1.06568e+13
9.72778e+12
8.99153e+12
8.0609e+12
6.87666e+12
6.08338e+12
6.14888e+12
5.75616e+12
4.6081e+12
3.94232e+12
4.02458e+12
4.85665e+12
4.3795e+12
2.82743e+12
2.06449e+12
1.88584e+12
2.20254e+12
2.77416e+12
3.44125e+12
4.84361e+12
6.28419e+12
7.6729e+12
9.35803e+12
1.17171e+13
1.50328e+13
1.9674e+13
2.58665e+13
3.32048e+13
4.22548e+13
5.16263e+13
6.15762e+13
7.36541e+13
9.08639e+13
1.14287e+14
1.47045e+14
1.91194e+14
2.35941e+14
2.86225e+14
3.49832e+14
4.32054e+14
4.96707e+14
5.48716e+14
6.37124e+14
7.66909e+14
8.31903e+14
8.53477e+14
9.42261e+14
9.23566e+14
8.17071e+14
1.0467e+14
1.08229e+14
1.08755e+14
1.09522e+14
1.12476e+14
1.02685e+14
8.62472e+13
7.29965e+13
6.15735e+13
5.16909e+13
4.36893e+13
3.73751e+13
3.1398e+13
2.53867e+13
2.0959e+13
1.791e+13
1.55296e+13
1.38404e+13
1.287e+13
1.1922e+13
1.09681e+13
1.05543e+13
9.61834e+12
8.86083e+12
7.92522e+12
6.75538e+12
5.92102e+12
5.91022e+12
5.50789e+12
4.41179e+12
3.76323e+12
3.82151e+12
4.6063e+12
4.14274e+12
2.66296e+12
1.9316e+12
1.74778e+12
2.03131e+12
2.56921e+12
3.21369e+12
4.5555e+12
5.93212e+12
7.27495e+12
8.91175e+12
1.12358e+13
1.44927e+13
1.90391e+13
2.51432e+13
3.23918e+13
4.1338e+13
5.06281e+13
6.06094e+13
7.25468e+13
8.95935e+13
1.1277e+14
1.4523e+14
1.89104e+14
2.33592e+14
2.83364e+14
3.4645e+14
4.28091e+14
4.92148e+14
5.4353e+14
6.30915e+14
7.59932e+14
8.24272e+14
8.45078e+14
9.3342e+14
9.15085e+14
8.09301e+14
1.03741e+14
1.07475e+14
1.08074e+14
1.09021e+14
1.1165e+14
1.021e+14
8.61828e+13
7.29288e+13
6.14814e+13
5.15955e+13
4.35741e+13
3.7221e+13
3.12309e+13
2.52268e+13
2.08177e+13
1.77746e+13
1.5392e+13
1.37016e+13
1.27288e+13
1.17801e+13
1.0836e+13
1.04589e+13
9.51073e+12
8.73169e+12
7.78942e+12
6.63557e+12
5.76027e+12
5.67424e+12
5.25758e+12
4.20975e+12
3.58079e+12
3.61678e+12
4.35364e+12
3.90133e+12
2.49333e+12
1.79859e+12
1.61324e+12
1.86225e+12
2.36228e+12
2.98442e+12
4.26863e+12
5.58362e+12
6.875e+12
8.45779e+12
1.07421e+13
1.39411e+13
1.83986e+13
2.44089e+13
3.15556e+13
4.03803e+13
4.95861e+13
5.94957e+13
7.13872e+13
8.8254e+13
1.11172e+14
1.43348e+14
1.86938e+14
2.31114e+14
2.80355e+14
3.42926e+14
4.23963e+14
4.87339e+14
5.38078e+14
6.24466e+14
7.52626e+14
8.16219e+14
8.36257e+14
9.24181e+14
9.06088e+14
8.01103e+14
1.02834e+14
1.06588e+14
1.07386e+14
1.08502e+14
1.10904e+14
1.01552e+14
8.60851e+13
7.28415e+13
6.13816e+13
5.14902e+13
4.34494e+13
3.70712e+13
3.10661e+13
2.50602e+13
2.06692e+13
1.76338e+13
1.52491e+13
1.35571e+13
1.25821e+13
1.16334e+13
1.06997e+13
1.03679e+13
9.4041e+12
8.60424e+12
7.65687e+12
6.52101e+12
5.60113e+12
5.4391e+12
5.00771e+12
4.0076e+12
3.3971e+12
3.40982e+12
4.09842e+12
3.65891e+12
2.32295e+12
1.66673e+12
1.48237e+12
1.69743e+12
2.15802e+12
2.75739e+12
3.9826e+12
5.23592e+12
6.4726e+12
7.99881e+12
1.02429e+13
1.33814e+13
1.77456e+13
2.36561e+13
3.06954e+13
3.93928e+13
4.85013e+13
5.82556e+13
7.01638e+13
8.68533e+13
1.09502e+14
1.41378e+14
1.84671e+14
2.28519e+14
2.77207e+14
3.39228e+14
4.19644e+14
4.82322e+14
5.32353e+14
6.17713e+14
7.44976e+14
8.07783e+14
8.26964e+14
9.14459e+14
8.96626e+14
7.92434e+14
1.01944e+14
1.05752e+14
1.06695e+14
1.07965e+14
1.10002e+14
1.01061e+14
8.59665e+13
7.27354e+13
6.1267e+13
5.1372e+13
4.33179e+13
3.69305e+13
3.08846e+13
2.48842e+13
2.05132e+13
1.74855e+13
1.50997e+13
1.34087e+13
1.24316e+13
1.14802e+13
1.05568e+13
1.0278e+13
9.29981e+12
8.47919e+12
7.52622e+12
6.41163e+12
5.44583e+12
5.20792e+12
4.75771e+12
3.80182e+12
3.21229e+12
3.20474e+12
3.84241e+12
3.41324e+12
2.14987e+12
1.53767e+12
1.35833e+12
1.53876e+12
1.95533e+12
2.53146e+12
3.69987e+12
4.89332e+12
6.07089e+12
7.53536e+12
9.73504e+12
1.2813e+13
1.70876e+13
2.28925e+13
2.98117e+13
3.83656e+13
4.73729e+13
5.6948e+13
6.88849e+13
8.53781e+13
1.07748e+14
1.39336e+14
1.82321e+14
2.25788e+14
2.73899e+14
3.35378e+14
4.15153e+14
4.77044e+14
5.26345e+14
6.10703e+14
7.36977e+14
7.989e+14
8.1722e+14
9.04309e+14
8.86616e+14
7.83308e+14
1.01076e+14
1.04951e+14
1.06001e+14
1.0742e+14
1.09263e+14
1.00643e+14
8.58368e+13
7.26242e+13
6.1155e+13
5.12436e+13
4.31756e+13
3.67947e+13
3.07012e+13
2.47007e+13
2.03495e+13
1.73317e+13
1.49447e+13
1.32542e+13
1.22752e+13
1.13225e+13
1.04094e+13
1.01843e+13
9.19725e+12
8.35711e+12
7.40137e+12
6.31224e+12
5.29447e+12
4.97918e+12
4.51071e+12
3.59962e+12
3.02952e+12
3.00011e+12
3.58558e+12
3.16908e+12
1.97913e+12
1.41253e+12
1.2415e+12
1.38872e+12
1.75944e+12
2.31089e+12
3.42049e+12
4.55385e+12
5.67021e+12
7.07114e+12
9.22597e+12
1.224e+13
1.64184e+13
2.21103e+13
2.89044e+13
3.73098e+13
4.62034e+13
5.5584e+13
6.75398e+13
8.38382e+13
1.05919e+14
1.37198e+14
1.7986e+14
2.22935e+14
2.70446e+14
3.3134e+14
4.10458e+14
4.71553e+14
5.2005e+14
6.0336e+14
7.28603e+14
7.89615e+14
8.06968e+14
8.93638e+14
8.7612e+14
7.73682e+14
1.00225e+14
1.04211e+14
1.05312e+14
1.06868e+14
1.08587e+14
1.00324e+14
8.57174e+13
7.25144e+13
6.10313e+13
5.11014e+13
4.30248e+13
3.66695e+13
3.04925e+13
2.45069e+13
2.0178e+13
1.71701e+13
1.47828e+13
1.30955e+13
1.2115e+13
1.11581e+13
1.02552e+13
1.00895e+13
9.09726e+12
8.23894e+12
7.28136e+12
6.22367e+12
5.14919e+12
4.75625e+12
4.26633e+12
3.39776e+12
2.84888e+12
2.79869e+12
3.33005e+12
2.92398e+12
1.8089e+12
1.29296e+12
1.13409e+12
1.24991e+12
1.56977e+12
2.09412e+12
3.14693e+12
4.22167e+12
5.27421e+12
6.60763e+12
8.71354e+12
1.16621e+13
1.57457e+13
2.13183e+13
2.79741e+13
3.62165e+13
4.49924e+13
5.42095e+13
6.61389e+13
8.22201e+13
1.04002e+14
1.34981e+14
1.77307e+14
2.19939e+14
2.66824e+14
3.27138e+14
4.05583e+14
4.65795e+14
5.13461e+14
5.95744e+14
7.19858e+14
7.79862e+14
7.96232e+14
8.82511e+14
8.65057e+14
7.63574e+14
9.93919e+13
1.03522e+14
1.04622e+14
1.06319e+14
1.08087e+14
1.00117e+14
8.55972e+13
7.23978e+13
6.08999e+13
5.09487e+13
4.28604e+13
3.65507e+13
3.02849e+13
2.43051e+13
1.99983e+13
1.70027e+13
1.46151e+13
1.29299e+13
1.19484e+13
1.09895e+13
1.00962e+13
9.97784e+12
8.9996e+12
8.12558e+12
7.17008e+12
6.15127e+12
5.01033e+12
4.53756e+12
4.02795e+12
3.20295e+12
2.67404e+12
2.59913e+12
3.07576e+12
2.68325e+12
1.64416e+12
1.18084e+12
1.03681e+12
1.12568e+12
1.39217e+12
1.88495e+12
2.87979e+12
3.89558e+12
4.88382e+12
6.1492e+12
8.20582e+12
1.10843e+13
1.50639e+13
2.0508e+13
2.70215e+13
3.50975e+13
4.37431e+13
5.28051e+13
6.46708e+13
8.05367e+13
1.0201e+14
1.3266e+14
1.74633e+14
2.16819e+14
2.63052e+14
3.2273e+14
4.00492e+14
4.59823e+14
5.06571e+14
5.87763e+14
7.10714e+14
7.69695e+14
7.84955e+14
8.70828e+14
8.535e+14
7.52942e+14
9.85718e+13
1.02916e+14
1.03936e+14
1.05772e+14
1.07763e+14
1.00007e+14
8.54834e+13
7.22815e+13
6.07554e+13
5.07809e+13
4.26838e+13
3.6445e+13
3.00484e+13
2.40926e+13
1.98105e+13
1.68274e+13
1.444e+13
1.27595e+13
1.17779e+13
1.08144e+13
9.93022e+12
9.86584e+12
8.90524e+12
8.01813e+12
7.06666e+12
6.09627e+12
4.87999e+12
4.32674e+12
3.79537e+12
3.0125e+12
2.50461e+12
2.40435e+12
2.82508e+12
2.44421e+12
1.4831e+12
1.07804e+12
9.51734e+11
1.01957e+12
1.22671e+12
1.68387e+12
2.62144e+12
3.57997e+12
4.50335e+12
5.69811e+12
7.70163e+12
1.05069e+13
1.4381e+13
1.96893e+13
2.60476e+13
3.39451e+13
4.24547e+13
5.13851e+13
6.31465e+13
7.87734e+13
9.99282e+13
1.30253e+14
1.7186e+14
2.1355e+14
2.59104e+14
3.18146e+14
3.95211e+14
4.53582e+14
4.99372e+14
5.79491e+14
7.01177e+14
7.59036e+14
7.73147e+14
8.58659e+14
8.41369e+14
7.41793e+14
9.77649e+13
1.02139e+14
1.03244e+14
1.05228e+14
1.07644e+14
1.0002e+14
8.53612e+13
7.21534e+13
6.06052e+13
5.06025e+13
4.24884e+13
3.61436e+13
2.98141e+13
2.38728e+13
1.96141e+13
1.66466e+13
1.42591e+13
1.25809e+13
1.16002e+13
1.06358e+13
9.75976e+12
9.7254e+12
8.81458e+12
7.91787e+12
6.97437e+12
6.06598e+12
4.7588e+12
4.12208e+12
3.57208e+12
2.83305e+12
2.34329e+12
2.21278e+12
2.57772e+12
2.21267e+12
1.33111e+12
9.86666e+11
8.80216e+11
9.36478e+11
1.07963e+12
1.49647e+12
2.37331e+12
3.27404e+12
4.13457e+12
5.26046e+12
7.21e+12
9.93597e+12
1.3692e+13
1.88537e+13
2.5054e+13
3.27726e+13
4.11312e+13
4.99289e+13
6.15522e+13
7.69457e+13
9.77712e+13
1.27732e+14
1.68951e+14
2.10157e+14
2.55005e+14
3.13336e+14
3.89698e+14
4.4713e+14
4.91864e+14
5.70817e+14
6.91222e+14
7.47955e+14
7.60755e+14
8.45893e+14
8.2875e+14
7.30107e+14
9.69682e+13
1.01453e+14
1.02551e+14
1.04682e+14
1.07745e+14
1.00232e+14
8.5238e+13
7.20119e+13
6.04428e+13
5.04081e+13
4.22795e+13
3.5854e+13
2.9566e+13
2.36425e+13
1.94092e+13
1.64579e+13
1.40702e+13
1.23965e+13
1.14186e+13
1.04507e+13
9.58198e+12
9.5907e+12
8.72926e+12
7.82634e+12
6.89197e+12
6.06621e+12
4.64909e+12
3.92778e+12
3.35825e+12
2.6618e+12
2.18997e+12
2.02753e+12
2.33643e+12
1.98583e+12
1.18575e+12
9.09345e+11
8.24671e+11
8.81558e+11
9.52013e+11
1.32257e+12
2.1378e+12
2.98293e+12
3.78258e+12
4.83983e+12
6.73046e+12
9.37222e+12
1.30058e+13
1.80125e+13
2.40424e+13
3.15724e+13
3.97713e+13
4.84544e+13
5.98991e+13
7.50387e+13
9.55236e+13
1.25117e+14
1.65934e+14
2.06613e+14
2.50726e+14
3.08335e+14
3.83985e+14
4.40416e+14
4.84028e+14
5.6183e+14
6.80861e+14
7.36365e+14
7.47783e+14
8.32612e+14
8.15563e+14
7.17856e+14
9.61876e+13
1.00721e+14
1.01838e+14
1.04134e+14
1.08099e+14
1.00611e+14
8.51e+13
7.18553e+13
6.02787e+13
5.02036e+13
4.20517e+13
3.55613e+13
2.93194e+13
2.34066e+13
1.91962e+13
1.62657e+13
1.38766e+13
1.22025e+13
1.12289e+13
1.02632e+13
9.40085e+12
9.46879e+12
8.65122e+12
7.74548e+12
6.82146e+12
6.10346e+12
4.55208e+12
3.74215e+12
3.15781e+12
2.50572e+12
2.04955e+12
1.8472e+12
2.10042e+12
1.76962e+12
1.05286e+12
8.49654e+11
7.86728e+11
8.61463e+11
8.4997e+11
1.16787e+12
1.91688e+12
2.70606e+12
3.45033e+12
4.44377e+12
6.27364e+12
8.82328e+12
1.23176e+13
1.71567e+13
2.30157e+13
3.03623e+13
3.83802e+13
4.6937e+13
5.81723e+13
7.30716e+13
9.32056e+13
1.22375e+14
1.62766e+14
2.02949e+14
2.46301e+14
3.03087e+14
3.78021e+14
4.3351e+14
4.75877e+14
5.52405e+14
6.70084e+14
7.24375e+14
7.34184e+14
8.18693e+14
8.01927e+14
7.05071e+14
6.87686e+14
9.53885e+13
9.96996e+13
1.01086e+14
1.03551e+14
1.07681e+14
9.99286e+13
8.49231e+13
7.16791e+13
6.00968e+13
4.99874e+13
4.18151e+13
3.52873e+13
2.90993e+13
2.31611e+13
1.89711e+13
1.60566e+13
1.36677e+13
1.19925e+13
1.10195e+13
1.00577e+13
9.2079e+12
9.37034e+12
8.58328e+12
7.67703e+12
6.76102e+12
6.18705e+12
4.46836e+12
3.56193e+12
2.96003e+12
2.35313e+12
1.91745e+12
1.66512e+12
1.85333e+12
1.54408e+12
9.2258e+11
8.10398e+11
7.69359e+11
8.8494e+11
7.74681e+11
1.03087e+12
1.71066e+12
2.44604e+12
3.14038e+12
4.07508e+12
5.83599e+12
8.28785e+12
1.16362e+13
1.62892e+13
2.19614e+13
2.91159e+13
3.69429e+13
4.5334e+13
5.63444e+13
7.09808e+13
9.075e+13
1.19451e+14
1.59297e+14
1.98916e+14
2.41469e+14
2.97297e+14
3.71218e+14
4.25677e+14
4.66853e+14
5.41572e+14
6.573e+14
7.10386e+14
7.18783e+14
8.01949e+14
7.85487e+14
6.90421e+14
6.7431e+14
5.90798e+14
4.69399e+14
4.20439e+14
4.16235e+14
4.4104e+14
4.49725e+14
4.42023e+14
5.12287e+14
6.11038e+14
6.13012e+14
6.84875e+14
8.27748e+14
8.3018e+14
8.68243e+14
9.60779e+14
9.44055e+14
9.26764e+14
9.34362e+14
8.87755e+14
8.09943e+14
7.42736e+14
6.27591e+14
5.22233e+14
5.10405e+14
4.69812e+14
4.25145e+14
5.2292e+14
6.31558e+14
7.47787e+14
1.01943e+15
1.37672e+15
1.71762e+15
1.95992e+15
2.2656e+15
2.54645e+15
2.50249e+15
2.45113e+15
2.45643e+15
2.2287e+15
1.87232e+15
1.54297e+15
1.26454e+15
9.86182e+14
7.16537e+14
4.93157e+14
3.54557e+14
3.00709e+14
2.40543e+14
1.90419e+14
2.08641e+14
2.27026e+14
2.40914e+14
2.9548e+14
3.76202e+14
4.4216e+14
4.56072e+14
3.7362e+14
3.05446e+14
2.42201e+14
1.26204e+14
4.68678e+13
6.20091e+12
9.45972e+13
9.87889e+13
1.00342e+14
1.02942e+14
1.06686e+14
9.93988e+13
8.47393e+13
7.14898e+13
5.98638e+13
4.97506e+13
4.15706e+13
3.50289e+13
2.885e+13
2.29035e+13
1.87373e+13
1.58361e+13
1.34496e+13
1.17829e+13
1.0812e+13
9.84524e+12
9.0039e+12
9.29967e+12
8.52566e+12
7.62499e+12
6.7123e+12
6.33209e+12
4.40216e+12
3.4027e+12
2.78221e+12
2.21537e+12
1.80496e+12
1.50008e+12
1.6225e+12
1.32976e+12
8.03268e+11
7.98201e+11
7.74986e+11
9.61981e+11
7.32837e+11
9.15152e+11
1.52626e+12
2.21347e+12
2.86421e+12
3.74549e+12
5.42245e+12
7.771e+12
1.09759e+13
1.54334e+13
2.08966e+13
2.78347e+13
3.54719e+13
4.36477e+13
5.44662e+13
6.87937e+13
8.8186e+13
1.1645e+14
1.55735e+14
1.94696e+14
2.36422e+14
2.91338e+14
3.64221e+14
4.17492e+14
4.57482e+14
5.30479e+14
6.44073e+14
6.95718e+14
7.02824e+14
7.84686e+14
7.68309e+14
6.75228e+14
6.60595e+14
5.79949e+14
4.61366e+14
4.14433e+14
4.11303e+14
4.36922e+14
4.46341e+14
4.39112e+14
5.09927e+14
6.09602e+14
6.10956e+14
6.8345e+14
8.27862e+14
8.29854e+14
8.67398e+14
9.61342e+14
9.45011e+14
9.28009e+14
9.36478e+14
8.91816e+14
8.15303e+14
7.4968e+14
6.35804e+14
5.31335e+14
5.20511e+14
4.81167e+14
4.36706e+14
5.33333e+14
6.39985e+14
7.54412e+14
1.02126e+15
1.37322e+15
1.70809e+15
1.94636e+15
2.24649e+15
2.52357e+15
2.48187e+15
2.43289e+15
2.43868e+15
2.2146e+15
1.86373e+15
1.53913e+15
1.26435e+15
9.90382e+14
7.24383e+14
5.02865e+14
3.64202e+14
3.09213e+14
2.47899e+14
1.96817e+14
2.13566e+14
2.30152e+14
2.42535e+14
2.95461e+14
3.72946e+14
4.36262e+14
4.49033e+14
3.68225e+14
3.01785e+14
2.39299e+14
1.24879e+14
4.64199e+13
6.20775e+12
9.3831e+13
9.79648e+13
9.95947e+13
1.02328e+14
1.05969e+14
9.90288e+13
8.45421e+13
7.12823e+13
5.96183e+13
4.94999e+13
4.13097e+13
3.47768e+13
2.86048e+13
2.2632e+13
1.8493e+13
1.56078e+13
1.32232e+13
1.15629e+13
1.05984e+13
9.62938e+12
8.79122e+12
9.21353e+12
8.47925e+12
7.59121e+12
6.67215e+12
6.55531e+12
4.35287e+12
3.26267e+12
2.62888e+12
2.10026e+12
1.71808e+12
1.34941e+12
1.40682e+12
1.13282e+12
7.00374e+11
8.12669e+11
8.04343e+11
1.10258e+12
7.30043e+11
8.26983e+11
1.36626e+12
2.00903e+12
2.62647e+12
3.46775e+12
5.04693e+12
7.28206e+12
1.03328e+13
1.45815e+13
1.98265e+13
2.65424e+13
3.39747e+13
4.1897e+13
5.25234e+13
6.65354e+13
8.55391e+13
1.13336e+14
1.52035e+14
1.90327e+14
2.31197e+14
2.85139e+14
3.56961e+14
4.09038e+14
4.47739e+14
5.18991e+14
6.304e+14
6.80509e+14
6.8624e+14
7.6677e+14
7.50528e+14
6.59388e+14
6.46383e+14
5.68812e+14
4.53149e+14
4.0825e+14
4.06212e+14
4.32617e+14
4.42671e+14
4.35864e+14
5.07252e+14
6.07702e+14
6.08374e+14
6.81609e+14
8.27617e+14
8.29069e+14
8.66203e+14
9.61665e+14
9.4577e+14
9.29111e+14
9.38578e+14
8.95998e+14
8.20928e+14
7.57057e+14
6.44704e+14
5.41261e+14
5.3164e+14
4.93573e+14
4.492e+14
5.44748e+14
6.49381e+14
7.61771e+14
1.02339e+15
1.36978e+15
1.69816e+15
1.93178e+15
2.22593e+15
2.49897e+15
2.45921e+15
2.41277e+15
2.41926e+15
2.19915e+15
1.85424e+15
1.53476e+15
1.26399e+15
9.94731e+14
7.32653e+14
5.13175e+14
3.74561e+14
3.18427e+14
2.55919e+14
2.03778e+14
2.18984e+14
2.33703e+14
2.44455e+14
2.95455e+14
3.69616e+14
4.30047e+14
4.41476e+14
3.62278e+14
2.9762e+14
2.36064e+14
1.23338e+14
4.5985e+13
6.18374e+12
9.31032e+13
9.72482e+13
9.8855e+13
1.01708e+14
1.05419e+14
9.885e+13
8.43472e+13
7.10603e+13
5.93504e+13
4.92266e+13
4.10372e+13
3.45361e+13
2.82557e+13
2.23475e+13
1.82384e+13
1.53679e+13
1.29876e+13
1.13398e+13
1.0386e+13
9.407e+12
8.56617e+12
9.10866e+12
8.44327e+12
7.57813e+12
6.63832e+12
6.88738e+12
4.31943e+12
3.14402e+12
2.50154e+12
2.00767e+12
1.66199e+12
1.21578e+12
1.20919e+12
9.51023e+11
6.13502e+11
8.50577e+11
8.55727e+11
1.32202e+12
7.71936e+11
7.68257e+11
1.23288e+12
1.83693e+12
2.43429e+12
3.25348e+12
4.71283e+12
6.82459e+12
9.71773e+12
1.37482e+13
1.87553e+13
2.52316e+13
3.24532e+13
4.0149e+13
5.05335e+13
6.41878e+13
8.27928e+13
1.10137e+14
1.4823e+14
1.85776e+14
2.25759e+14
2.7875e+14
3.49488e+14
4.00252e+14
4.37633e+14
5.072e+14
6.16279e+14
6.64631e+14
6.69089e+14
7.48298e+14
7.32042e+14
6.42982e+14
6.31785e+14
5.5733e+14
4.44718e+14
4.01964e+14
4.00989e+14
4.28053e+14
4.38739e+14
4.32285e+14
5.0411e+14
6.05216e+14
6.05181e+14
6.79123e+14
8.26849e+14
8.27758e+14
8.64508e+14
9.61712e+14
9.46343e+14
9.30039e+14
9.40725e+14
9.00358e+14
8.26863e+14
7.64989e+14
6.54328e+14
5.52052e+14
5.43867e+14
5.06987e+14
4.62748e+14
5.57253e+14
6.59698e+14
7.69852e+14
1.02606e+15
1.36635e+15
1.68781e+15
1.91624e+15
2.20387e+15
2.47258e+15
2.43464e+15
2.39065e+15
2.39812e+15
2.18244e+15
1.84388e+15
1.52977e+15
1.26353e+15
9.99349e+14
7.41262e+14
5.24052e+14
3.85659e+14
3.28345e+14
2.64563e+14
2.11306e+14
2.24919e+14
2.37648e+14
2.46673e+14
2.95654e+14
3.66211e+14
4.23557e+14
4.33495e+14
3.55851e+14
2.92918e+14
2.32444e+14
1.21601e+14
4.55231e+13
6.16667e+12
9.23727e+13
9.66103e+13
9.81051e+13
1.01096e+14
1.0518e+14
9.88104e+13
8.41405e+13
7.08177e+13
5.90723e+13
4.89395e+13
4.0743e+13
3.42603e+13
2.79095e+13
2.20479e+13
1.79727e+13
1.51204e+13
1.2744e+13
1.11056e+13
1.01646e+13
9.17944e+12
8.33115e+12
8.91964e+12
8.42257e+12
7.58909e+12
6.6022e+12
7.34999e+12
4.29982e+12
3.04659e+12
2.40515e+12
1.94333e+12
1.62292e+12
1.09775e+12
1.02845e+12
7.90107e+11
5.458e+11
9.04212e+11
9.29301e+11
1.63972e+12
8.61884e+11
7.4357e+11
1.12926e+12
1.69944e+12
2.29419e+12
3.12001e+12
4.43347e+12
6.40894e+12
9.13027e+12
1.29278e+13
1.76909e+13
2.39256e+13
3.09185e+13
3.83802e+13
4.84823e+13
6.17797e+13
7.99775e+13
1.06817e+14
1.44273e+14
1.81087e+14
2.20155e+14
2.72096e+14
3.41727e+14
3.91219e+14
4.27174e+14
4.94978e+14
6.01717e+14
6.48223e+14
6.5133e+14
7.29119e+14
7.12996e+14
6.25976e+14
6.16645e+14
5.45596e+14
4.3614e+14
3.95466e+14
3.95623e+14
4.23317e+14
4.3447e+14
4.28296e+14
5.00608e+14
6.02133e+14
6.01299e+14
6.76135e+14
8.2559e+14
8.2584e+14
8.6238e+14
9.6145e+14
9.46643e+14
9.308e+14
9.42834e+14
9.04856e+14
8.33107e+14
7.73424e+14
6.64776e+14
5.63832e+14
5.57267e+14
5.21686e+14
4.77462e+14
5.70932e+14
6.71161e+14
7.78803e+14
1.02927e+15
1.36299e+15
1.67699e+15
1.89954e+15
2.18024e+15
2.44418e+15
2.40778e+15
2.36641e+15
2.37509e+15
2.16419e+15
1.83251e+15
1.52425e+15
1.26293e+15
1.00408e+15
7.5036e+14
5.35613e+14
3.97556e+14
3.39096e+14
2.73998e+14
2.19509e+14
2.31427e+14
2.42103e+14
2.49237e+14
2.95688e+14
3.62718e+14
4.16753e+14
4.24958e+14
3.48826e+14
2.87669e+14
2.28416e+14
1.19598e+14
4.50429e+13
6.1372e+12
9.16587e+13
9.6115e+13
9.73519e+13
1.00476e+14
1.05269e+14
9.83915e+13
8.39277e+13
7.05579e+13
5.87747e+13
4.86311e+13
4.0432e+13
3.39887e+13
2.75365e+13
2.17355e+13
1.76965e+13
1.48621e+13
1.24912e+13
1.08685e+13
9.94463e+12
8.94732e+12
8.08333e+12
8.68434e+12
8.42151e+12
7.62867e+12
6.55395e+12
7.97861e+12
4.28969e+12
2.9725e+12
2.34232e+12
1.90824e+12
1.62163e+12
9.97373e+11
8.67577e+11
6.48314e+11
4.96824e+11
9.85127e+11
1.02168e+12
2.08303e+12
1.00686e+12
7.55691e+11
1.05752e+12
1.60062e+12
2.21422e+12
3.08395e+12
4.21387e+12
6.03952e+12
8.58234e+12
1.21373e+13
1.66386e+13
2.26185e+13
2.93709e+13
3.66124e+13
4.63883e+13
5.92938e+13
7.70725e+13
1.03406e+14
1.40203e+14
1.76227e+14
2.14349e+14
2.65234e+14
3.33739e+14
3.8188e+14
4.16329e+14
4.82431e+14
5.86721e+14
6.31183e+14
6.32974e+14
7.09357e+14
6.93313e+14
6.08339e+14
6.01079e+14
5.33561e+14
4.27391e+14
3.88871e+14
3.90129e+14
4.18345e+14
4.29899e+14
4.23905e+14
4.96575e+14
5.98325e+14
5.96611e+14
6.72361e+14
8.23635e+14
8.23209e+14
8.59619e+14
9.60813e+14
9.46592e+14
9.31337e+14
9.44967e+14
9.09543e+14
8.39705e+14
7.825e+14
6.76093e+14
5.76651e+14
5.71926e+14
5.37639e+14
4.93347e+14
5.85882e+14
6.83733e+14
7.88618e+14
1.03303e+15
1.35967e+15
1.66565e+15
1.88173e+15
2.15497e+15
2.41399e+15
2.37873e+15
2.33993e+15
2.35013e+15
2.14447e+15
1.82014e+15
1.51808e+15
1.26222e+15
1.00905e+15
7.59866e+14
5.47822e+14
4.10296e+14
3.50675e+14
2.84191e+14
2.28391e+14
2.38545e+14
2.47038e+14
2.52144e+14
2.95914e+14
3.59136e+14
4.09662e+14
4.15967e+14
3.41278e+14
2.81849e+14
2.24006e+14
1.17348e+14
4.44302e+13
6.04054e+12
9.09548e+13
9.53351e+13
9.65468e+13
9.985e+13
1.05771e+14
9.7897e+13
8.36899e+13
7.02756e+13
5.84746e+13
4.83121e+13
4.00913e+13
3.35467e+13
2.71686e+13
2.14095e+13
1.74103e+13
1.46003e+13
1.2233e+13
1.06141e+13
9.71164e+12
8.71765e+12
7.82758e+12
8.41269e+12
8.45504e+12
7.7054e+12
6.46411e+12
7.43133e+12
4.27923e+12
2.92469e+12
2.31633e+12
1.90314e+12
1.64184e+12
9.14359e+11
7.25855e+11
5.30173e+11
4.66355e+11
1.10532e+12
1.13295e+12
2.65917e+12
1.19722e+12
8.05076e+11
1.02048e+12
1.54384e+12
2.20266e+12
3.17083e+12
4.06673e+12
5.72791e+12
8.07514e+12
1.13729e+13
1.56098e+13
2.13405e+13
2.78251e+13
3.48177e+13
4.42362e+13
5.67649e+13
7.41191e+13
9.98629e+13
1.35962e+14
1.71252e+14
2.08401e+14
2.5808e+14
3.25446e+14
3.7235e+14
4.05166e+14
4.69409e+14
5.71314e+14
6.13706e+14
6.14023e+14
6.88849e+14
6.73182e+14
5.90184e+14
5.84938e+14
5.21351e+14
4.18556e+14
3.82088e+14
3.84468e+14
4.1323e+14
4.24925e+14
4.19015e+14
4.92124e+14
5.93745e+14
5.91024e+14
6.67959e+14
8.21011e+14
8.19777e+14
8.56306e+14
9.59768e+14
9.46231e+14
9.31663e+14
9.47025e+14
9.14381e+14
8.46662e+14
7.92158e+14
6.88404e+14
5.90697e+14
5.87918e+14
5.55196e+14
5.10731e+14
6.02194e+14
6.97682e+14
7.99467e+14
1.03737e+15
1.35646e+15
1.65371e+15
1.86261e+15
2.12803e+15
2.38141e+15
2.34699e+15
2.31104e+15
2.32305e+15
2.12294e+15
1.80662e+15
1.5114e+15
1.26133e+15
1.01407e+15
7.69952e+14
5.60813e+14
4.23943e+14
3.63237e+14
2.9534e+14
2.3808e+14
2.46341e+14
2.52593e+14
2.55449e+14
2.96137e+14
3.55459e+14
4.02221e+14
4.06386e+14
3.33077e+14
2.75462e+14
2.19091e+14
1.14756e+14
4.36727e+13
5.93966e+12
9.02401e+13
9.42861e+13
9.56893e+13
9.91555e+13
1.05341e+14
9.75221e+13
8.34292e+13
6.99629e+13
5.81466e+13
4.79801e+13
3.97415e+13
3.3139e+13
2.68262e+13
2.10916e+13
1.71019e+13
1.4306e+13
1.1949e+13
1.03328e+13
9.44496e+12
8.4585e+12
7.55624e+12
8.16416e+12
8.52139e+12
7.8263e+12
6.34482e+12
6.87542e+12
4.26569e+12
2.90612e+12
2.33078e+12
1.93313e+12
1.71455e+12
8.50868e+11
6.01975e+11
4.31793e+11
4.55579e+11
1.2832e+12
1.25135e+12
2.39386e+12
1.36738e+12
8.90447e+11
1.01982e+12
1.53481e+12
2.26757e+12
3.40691e+12
3.99744e+12
5.47919e+12
7.62444e+12
1.0647e+13
1.45971e+13
2.00601e+13
2.62627e+13
3.29712e+13
4.19954e+13
5.41126e+13
7.10283e+13
9.612e+13
1.31358e+14
1.65826e+14
2.01971e+14
2.50252e+14
3.16058e+14
3.61623e+14
3.92915e+14
4.54693e+14
5.53458e+14
5.93831e+14
5.92957e+14
6.6482e+14
6.49613e+14
5.69734e+14
5.65894e+14
5.06424e+14
4.0821e+14
3.74257e+14
3.78351e+14
4.07775e+14
4.20352e+14
4.15707e+14
4.89276e+14
5.90911e+14
5.88295e+14
6.66443e+14
8.20448e+14
8.18699e+14
8.55183e+14
9.60097e+14
9.47082e+14
9.33025e+14
9.49687e+14
9.194e+14
8.53906e+14
8.01614e+14
7.00594e+14
6.04777e+14
6.03269e+14
5.7225e+14
5.28489e+14
6.18026e+14
7.10964e+14
8.10209e+14
1.04201e+15
1.35318e+15
1.64255e+15
1.84522e+15
2.10252e+15
2.34918e+15
2.31721e+15
2.28406e+15
2.2967e+15
2.10196e+15
1.79339e+15
1.50515e+15
1.26051e+15
1.01896e+15
7.80121e+14
5.73991e+14
4.37522e+14
3.75575e+14
3.06418e+14
2.47864e+14
2.53917e+14
2.57855e+14
2.5873e+14
2.96444e+14
3.5182e+14
3.95113e+14
3.97353e+14
3.25793e+14
2.69814e+14
2.14376e+14
1.12576e+14
4.31169e+13
5.85649e+12
8.95385e+13
9.33917e+13
9.48274e+13
9.84086e+13
1.04477e+14
9.71417e+13
8.31928e+13
6.96336e+13
5.77781e+13
4.76185e+13
3.93821e+13
3.27538e+13
2.64609e+13
2.07495e+13
1.67829e+13
1.39964e+13
1.16563e+13
1.00527e+13
9.18552e+12
8.19266e+12
7.27217e+12
7.82823e+12
8.06661e+12
7.98192e+12
6.2052e+12
6.43083e+12
4.21998e+12
2.91566e+12
2.39173e+12
2.00609e+12
1.85405e+12
8.08222e+11
5.05965e+11
3.60744e+11
4.66533e+11
1.50618e+12
1.28956e+12
2.10466e+12
1.58194e+12
1.02076e+12
1.05613e+12
1.57475e+12
2.41544e+12
3.83244e+12
4.01491e+12
5.3006e+12
7.24514e+12
9.98904e+12
1.36275e+13
1.87917e+13
2.4707e+13
3.11035e+13
3.97397e+13
5.13815e+13
6.78481e+13
9.23235e+13
1.26675e+14
1.60209e+14
1.9532e+14
2.42256e+14
3.06477e+14
3.50526e+14
3.80306e+14
4.39752e+14
5.35192e+14
5.73272e+14
5.71385e+14
6.40306e+14
6.25371e+14
5.48701e+14
5.46584e+14
4.9117e+14
3.97682e+14
3.66401e+14
3.72071e+14
4.02031e+14
4.15522e+14
4.12026e+14
4.85769e+14
5.87262e+14
5.84682e+14
6.63922e+14
8.18957e+14
8.16771e+14
8.53236e+14
9.59972e+14
9.4761e+14
9.34078e+14
9.52415e+14
9.24651e+14
8.61553e+14
8.1188e+14
7.13772e+14
6.20128e+14
6.20074e+14
5.90721e+14
5.47787e+14
6.35433e+14
7.25509e+14
8.21936e+14
1.04726e+15
1.34988e+15
1.6308e+15
1.82661e+15
2.07516e+15
2.31483e+15
2.28524e+15
2.25453e+15
2.26815e+15
2.0794e+15
1.77906e+15
1.49804e+15
1.25957e+15
1.02419e+15
7.90673e+14
5.87873e+14
4.52092e+14
3.88863e+14
3.18356e+14
2.58428e+14
2.62244e+14
2.63669e+14
2.62321e+14
2.96871e+14
3.48085e+14
3.87678e+14
3.87911e+14
3.18e+14
2.6353e+14
2.09187e+14
1.10143e+14
4.24438e+13
5.76963e+12
8.88696e+13
9.25926e+13
9.39361e+13
9.76317e+13
1.04124e+14
9.67415e+13
8.29593e+13
6.92743e+13
5.73867e+13
4.72376e+13
3.89978e+13
3.23686e+13
2.60692e+13
2.03982e+13
1.64503e+13
1.3677e+13
1.13544e+13
9.75955e+12
8.91272e+12
7.92061e+12
6.97838e+12
7.4571e+12
7.62087e+12
8.21439e+12
6.0312e+12
5.89153e+12
4.14204e+12
2.95627e+12
2.5012e+12
2.11447e+12
2.0554e+12
7.84099e+11
4.37043e+11
3.19829e+11
4.95103e+11
1.77982e+12
1.33599e+12
1.86724e+12
1.79951e+12
1.19346e+12
1.12955e+12
1.6651e+12
2.65163e+12
4.50195e+12
4.12906e+12
5.20415e+12
6.94296e+12
9.40204e+12
1.27182e+13
1.75704e+13
2.3176e+13
2.92245e+13
3.74575e+13
4.86152e+13
6.46268e+13
8.84305e+13
1.21857e+14
1.54466e+14
1.88521e+14
2.34005e+14
2.96629e+14
3.39191e+14
3.67358e+14
4.24444e+14
5.16552e+14
5.52248e+14