/*--------------------------------*- C++ -*----------------------------------*\
| =========                 |                                                 |
| \\      /  F ield         | OpenFOAM: The Open Source CFD Toolbox           |
|  \\    /   O peration     | Version:  v2012                                 |
|   \\  /    A nd           | Website:  www.openfoam.com                      |
|    \\/     M anipulation  |                                                 |
\*---------------------------------------------------------------------------*/
FoamFile
{
    version     2.0;
    format      ascii;
    class       volScalarField;
    location    "1e-06";
    object      totalP;
}
// * * * * * * * * * * * * * * * * * * * * * * * * * * * * * * * * * * * * * //

dimensions      [1 -1 -2 0 0 0 0];


internalField   nonuniform List<scalar> 
10098
(
464728
470650
480586
486229
488642
493862
507058
513337
521922
537459
546283
558135
574792
591637
626340
647895
661336
692723
743890
784003
810574
863025
915924
997063
1.06504e+06
1.12737e+06
1.21115e+06
1.33295e+06
1.43594e+06
1.53176e+06
1.6515e+06
1.77679e+06
1.93012e+06
2.06641e+06
2.17097e+06
2.30901e+06
2.43786e+06
2.57647e+06
2.70291e+06
2.81226e+06
2.94381e+06
3.05519e+06
3.16205e+06
3.26403e+06
3.36331e+06
3.45091e+06
3.53759e+06
3.61347e+06
3.67672e+06
3.73418e+06
3.77331e+06
3.78257e+06
3.78108e+06
3.75589e+06
3.70006e+06
3.61306e+06
3.52277e+06
3.3673e+06
3.19746e+06
3.00577e+06
2.85563e+06
2.64747e+06
2.42087e+06
2.24101e+06
2.17762e+06
2.01689e+06
1.79389e+06
1.85224e+06
1.75691e+06
464539
470428
480403
486029
488217
493543
506802
512887
521389
536854
545730
557547
573876
590791
625473
646908
660107
691287
742323
782310
808870
860881
913901
994477
1.06267e+06
1.12507e+06
1.20903e+06
1.33021e+06
1.43366e+06
1.52979e+06
1.6499e+06
1.77507e+06
1.92862e+06
2.06466e+06
2.1705e+06
2.30792e+06
2.43759e+06
2.57555e+06
2.70242e+06
2.81177e+06
2.94298e+06
3.0547e+06
3.16164e+06
3.26351e+06
3.36274e+06
3.45083e+06
3.53733e+06
3.614e+06
3.67737e+06
3.73547e+06
3.77468e+06
3.78488e+06
3.78371e+06
3.75915e+06
3.70344e+06
3.61676e+06
3.52637e+06
3.37094e+06
3.2003e+06
3.00788e+06
2.85715e+06
2.64842e+06
2.42026e+06
2.24006e+06
2.17642e+06
2.01541e+06
1.79192e+06
1.85046e+06
1.75527e+06
464353
470092
480088
485863
487866
493170
506378
512396
520932
536272
545061
556793
572959
590003
624534
645746
658745
689849
740697
780458
806900
858613
911806
991712
1.06e+06
1.12253e+06
1.20678e+06
1.32734e+06
1.43113e+06
1.52756e+06
1.6481e+06
1.77331e+06
1.92695e+06
2.06277e+06
2.16961e+06
2.30688e+06
2.43727e+06
2.57465e+06
2.70158e+06
2.8113e+06
2.94225e+06
3.05407e+06
3.16102e+06
3.26287e+06
3.36205e+06
3.45066e+06
3.53711e+06
3.61451e+06
3.67799e+06
3.73665e+06
3.77611e+06
3.78732e+06
3.78643e+06
3.76242e+06
3.7069e+06
3.62063e+06
3.53011e+06
3.37458e+06
3.20312e+06
3.01001e+06
2.85853e+06
2.64913e+06
2.41951e+06
2.23894e+06
2.1749e+06
2.01353e+06
1.78967e+06
1.84838e+06
1.75317e+06
464178
469915
479890
485638
487406
492851
506045
511945
520335
535647
544461
556147
571996
589060
623584
644693
657419
688295
738976
778641
805036
856318
909561
988919
1.05738e+06
1.12007e+06
1.20441e+06
1.32439e+06
1.42859e+06
1.52548e+06
1.64632e+06
1.77153e+06
1.9253e+06
2.06103e+06
2.16917e+06
2.30592e+06
2.43692e+06
2.57392e+06
2.70117e+06
2.81086e+06
2.94162e+06
3.05361e+06
3.16052e+06
3.26239e+06
3.36159e+06
3.45063e+06
3.53699e+06
3.61513e+06
3.67884e+06
3.73812e+06
3.77778e+06
3.7899e+06
3.78944e+06
3.76607e+06
3.71074e+06
3.62475e+06
3.53415e+06
3.37861e+06
3.20625e+06
3.01235e+06
2.86059e+06
2.65007e+06
2.41887e+06
2.23784e+06
2.17353e+06
2.01185e+06
1.78747e+06
1.84643e+06
1.7514e+06
464011
469620
479518
485513
487095
492509
505510
511438
519832
535028
543707
555278
571011
588141
622510
643383
655906
686699
737147
776592
802816
853855
907219
985871
1.05437e+06
1.11728e+06
1.20183e+06
1.32124e+06
1.4257e+06
1.52304e+06
1.64428e+06
1.76964e+06
1.9234e+06
2.05904e+06
2.16807e+06
2.30485e+06
2.43656e+06
2.57295e+06
2.70028e+06
2.81036e+06
2.94104e+06
3.05293e+06
3.15983e+06
3.26171e+06
3.36096e+06
3.4505e+06
3.53691e+06
3.61573e+06
3.67965e+06
3.73947e+06
3.77949e+06
3.79257e+06
3.79254e+06
3.76972e+06
3.71464e+06
3.62903e+06
3.5383e+06
3.3826e+06
3.20933e+06
3.0144e+06
2.86186e+06
2.65091e+06
2.41808e+06
2.23644e+06
2.17166e+06
2.0096e+06
1.7849e+06
1.84397e+06
1.74894e+06
1.5286e+06
463643
469286
479102
485200
486482
491976
504965
510902
519148
534415
543087
554666
570099
587321
621800
642534
654650
685264
735617
774991
801043
851552
905034
983179
1.0518e+06
1.11486e+06
1.19943e+06
1.31845e+06
1.42331e+06
1.52121e+06
1.64256e+06
1.76844e+06
1.92271e+06
2.05841e+06
2.16788e+06
2.3044e+06
2.43671e+06
2.57231e+06
2.69969e+06
2.81006e+06
2.94049e+06
3.05231e+06
3.15915e+06
3.26137e+06
3.36065e+06
3.45054e+06
3.53691e+06
3.61647e+06
3.68072e+06
3.74113e+06
3.78148e+06
3.79563e+06
3.79605e+06
3.77385e+06
3.71904e+06
3.63374e+06
3.54304e+06
3.38727e+06
3.21298e+06
3.01749e+06
2.86343e+06
2.6521e+06
2.41787e+06
2.23584e+06
2.17097e+06
2.0085e+06
1.78315e+06
1.84302e+06
1.74822e+06
1.52726e+06
463687
469442
479097
485117
486230
491837
504774
510495
518532
533711
542354
553829
568939
585970
620410
641078
652923
683241
733303
772599
798591
848798
902163
979662
1.04842e+06
1.11179e+06
1.19638e+06
1.31468e+06
1.41986e+06
1.51847e+06
1.64021e+06
1.76615e+06
1.92035e+06
2.05618e+06
2.16621e+06
2.30289e+06
2.43609e+06
2.57083e+06
2.69872e+06
2.80967e+06
2.93987e+06
3.05181e+06
3.15865e+06
3.26081e+06
3.36031e+06
3.45059e+06
3.53701e+06
3.61728e+06
3.68191e+06
3.74292e+06
3.78363e+06
3.79883e+06
3.79972e+06
3.77811e+06
3.72357e+06
3.63846e+06
3.54763e+06
3.39173e+06
3.2164e+06
3.01979e+06
2.8652e+06
2.6524e+06
2.4172e+06
2.23375e+06
2.16833e+06
2.00559e+06
1.7799e+06
1.83952e+06
1.74495e+06
1.52438e+06
463459
469111
478637
484803
485782
491347
504124
509876
517953
533046
541476
552851
567902
584928
619256
639633
651226
681499
731300
770359
796074
846071
899504
976270
1.04501e+06
1.10865e+06
1.19343e+06
1.3112e+06
1.41658e+06
1.51579e+06
1.63792e+06
1.76418e+06
1.91834e+06
2.05424e+06
2.1653e+06
2.30231e+06
2.43569e+06
2.5702e+06
2.6981e+06
2.80899e+06
2.93916e+06
3.05097e+06
3.1578e+06
3.26017e+06
3.35983e+06
3.45056e+06
3.53714e+06
3.61807e+06
3.68303e+06
3.74456e+06
3.78585e+06
3.80182e+06
3.80354e+06
3.78243e+06
3.72825e+06
3.64354e+06
3.55261e+06
3.39642e+06
3.22003e+06
3.02251e+06
2.86688e+06
2.65305e+06
2.41635e+06
2.23223e+06
2.16633e+06
2.00312e+06
1.77714e+06
1.83702e+06
1.74245e+06
1.52206e+06
463321
469025
478447
484476
485304
491032
503781
509365
517233
532328
540776
552062
566804
583693
618116
638400
649568
679577
729175
768196
793703
843289
896668
972810
1.0417e+06
1.10561e+06
1.19033e+06
1.30757e+06
1.4133e+06
1.5133e+06
1.63565e+06
1.76214e+06
1.91633e+06
2.05248e+06
2.16486e+06
2.30172e+06
2.43527e+06
2.56969e+06
2.6975e+06
2.80863e+06
2.93858e+06
3.05035e+06
3.15711e+06
3.25974e+06
3.35968e+06
3.45071e+06
3.53737e+06
3.61901e+06
3.68444e+06
3.74659e+06
3.78839e+06
3.80502e+06
3.80775e+06
3.78726e+06
3.73343e+06
3.64893e+06
3.55796e+06
3.4016e+06
3.22405e+06
3.02538e+06
2.86878e+06
2.65398e+06
2.41564e+06
2.2306e+06
2.16434e+06
2.00078e+06
1.77431e+06
1.83447e+06
1.74023e+06
1.51979e+06
463123
468626
478016
484200
484933
490554
503104
508690
516625
531618
539799
550961
565684
582514
616826
636783
647655
677656
726944
765699
790863
840283
893722
969025
1.03788e+06
1.1021e+06
1.18702e+06
1.30371e+06
1.40959e+06
1.5103e+06
1.6331e+06
1.76001e+06
1.9141e+06
2.0504e+06
2.16373e+06
2.30111e+06
2.43493e+06
2.56907e+06
2.69686e+06
2.80794e+06
2.93778e+06
3.04944e+06
3.15627e+06
3.25911e+06
3.35929e+06
3.45074e+06
3.53767e+06
3.61995e+06
3.68578e+06
3.74847e+06
3.79099e+06
3.80845e+06
3.81207e+06
3.79208e+06
3.73868e+06
3.65458e+06
3.5635e+06
3.40675e+06
3.22804e+06
3.0283e+06
2.87057e+06
2.65451e+06
2.41474e+06
2.22876e+06
2.1619e+06
1.99784e+06
1.77117e+06
1.83149e+06
1.73727e+06
1.51719e+06
462997
468575
477866
483875
484474
490222
502750
508145
515882
530854
539053
550097
564515
581171
615609
635461
645853
675593
724648
763389
788263
837283
890674
965232
1.03428e+06
1.09875e+06
1.18361e+06
1.29975e+06
1.40597e+06
1.50759e+06
1.63063e+06
1.75789e+06
1.91198e+06
2.04863e+06
2.16334e+06
2.30059e+06
2.4345e+06
2.56849e+06
2.69617e+06
2.80771e+06
2.93709e+06
3.04869e+06
3.1556e+06
3.25873e+06
3.35927e+06
3.45101e+06
3.53807e+06
3.62105e+06
3.68745e+06
3.75078e+06
3.79395e+06
3.81207e+06
3.81679e+06
3.79748e+06
3.7445e+06
3.66059e+06
3.56949e+06
3.41248e+06
3.2325e+06
3.03143e+06
2.8726e+06
2.65542e+06
2.41401e+06
2.22689e+06
2.15962e+06
1.99518e+06
1.76807e+06
1.82867e+06
1.73482e+06
1.51479e+06
462785
468146
477406
483578
484112
489684
502039
507405
515227
530101
537972
548879
563310
579883
614215
633698
643741
673501
722223
760658
785117
833975
887438
961061
1.03006e+06
1.09486e+06
1.17995e+06
1.29552e+06
1.40185e+06
1.5043e+06
1.62782e+06
1.75562e+06
1.90961e+06
2.04645e+06
2.16219e+06
2.29995e+06
2.43416e+06
2.56766e+06
2.69543e+06
2.80711e+06
2.93617e+06
3.04786e+06
3.15482e+06
3.25812e+06
3.35901e+06
3.45114e+06
3.53854e+06
3.62217e+06
3.68902e+06
3.75294e+06
3.79695e+06
3.81601e+06
3.82164e+06
3.80288e+06
3.7504e+06
3.66691e+06
3.57569e+06
3.41817e+06
3.23693e+06
3.03462e+06
2.8745e+06
2.65585e+06
2.41307e+06
2.22479e+06
2.15682e+06
1.99184e+06
1.76461e+06
1.82533e+06
1.73155e+06
1.51198e+06
462679
468139
477271
483262
483669
489327
501680
506837
514451
529292
537193
547978
562055
578417
612919
632287
641791
671278
719751
758195
782266
830735
884131
956928
1.02611e+06
1.09118e+06
1.17619e+06
1.29117e+06
1.39786e+06
1.50134e+06
1.62514e+06
1.75337e+06
1.90736e+06
2.04466e+06
2.1618e+06
2.29945e+06
2.43394e+06
2.56705e+06
2.69468e+06
2.80695e+06
2.93538e+06
3.04716e+06
3.15422e+06
3.25781e+06
3.35915e+06
3.45153e+06
3.53915e+06
3.62346e+06
3.69096e+06
3.75558e+06
3.80034e+06
3.8202e+06
3.82692e+06
3.80892e+06
3.75693e+06
3.67363e+06
3.58237e+06
3.42451e+06
3.24189e+06
3.03804e+06
2.87667e+06
2.65674e+06
2.41232e+06
2.22265e+06
2.15419e+06
1.9888e+06
1.76122e+06
1.82215e+06
1.72885e+06
1.50943e+06
462462
467678
476761
482980
483325
488710
500912
506050
513751
528499
536007
546688
560764
577050
611414
630352
639451
669006
717125
755208
778755
827093
880577
952364
1.02142e+06
1.08686e+06
1.17214e+06
1.28653e+06
1.3933e+06
1.49771e+06
1.62203e+06
1.75097e+06
1.90483e+06
2.04238e+06
2.16065e+06
2.29863e+06
2.43359e+06
2.56625e+06
2.69383e+06
2.80635e+06
2.93451e+06
3.04642e+06
3.1535e+06
3.25724e+06
3.35901e+06
3.45178e+06
3.53982e+06
3.62479e+06
3.69279e+06
3.75806e+06
3.80376e+06
3.82461e+06
3.83236e+06
3.81496e+06
3.76355e+06
3.6807e+06
3.58931e+06
3.43082e+06
3.24682e+06
3.04153e+06
2.87869e+06
2.657e+06
2.41127e+06
2.22025e+06
2.15098e+06
1.98499e+06
1.75741e+06
1.8184e+06
1.72524e+06
1.50638e+06
462378
467665
476664
482663
482884
488339
500594
505467
512901
527642
535195
545694
559425
575433
610049
628870
637372
666604
714472
752590
775676
823586
876941
947907
1.01708e+06
1.08284e+06
1.16801e+06
1.28174e+06
1.38891e+06
1.4945e+06
1.61913e+06
1.74859e+06
1.90246e+06
2.04057e+06
2.1603e+06
2.29845e+06
2.43344e+06
2.56569e+06
2.69335e+06
2.80642e+06
2.93382e+06
3.04582e+06
3.15299e+06
3.25702e+06
3.35934e+06
3.45234e+06
3.54063e+06
3.6263e+06
3.69502e+06
3.76108e+06
3.80761e+06
3.82931e+06
3.83826e+06
3.82174e+06
3.77089e+06
3.68822e+06
3.59678e+06
3.43786e+06
3.25234e+06
3.04527e+06
2.88098e+06
2.65783e+06
2.41034e+06
2.21779e+06
2.14798e+06
1.98153e+06
1.75373e+06
1.81482e+06
1.72227e+06
1.50369e+06
462183
467162
476133
482513
482613
487735
499770
504662
512196
526788
533883
544150
558031
573903
608333
626655
634748
664072
711592
749279
771695
819582
873022
942894
1.01182e+06
1.07799e+06
1.16349e+06
1.27659e+06
1.3838e+06
1.49042e+06
1.61568e+06
1.74598e+06
1.89971e+06
2.03811e+06
2.15904e+06
2.29791e+06
2.43316e+06
2.56474e+06
2.69238e+06
2.8059e+06
2.93307e+06
3.04524e+06
3.15234e+06
3.25649e+06
3.35933e+06
3.45272e+06
3.54153e+06
3.62785e+06
3.69712e+06
3.76391e+06
3.81148e+06
3.83424e+06
3.84431e+06
3.82848e+06
3.77825e+06
3.69611e+06
3.60448e+06
3.4448e+06
3.25778e+06
3.04902e+06
2.88299e+06
2.65765e+06
2.40891e+06
2.21489e+06
2.14405e+06
1.97695e+06
1.7494e+06
1.81029e+06
1.71796e+06
1.50017e+06
461823
466862
475827
482042
481877
487030
499211
503920
511233
526033
533107
543325
556855
572628
607514
625608
632864
661846
709203
746902
768616
815925
869208
938337
1.0073e+06
1.07375e+06
1.15919e+06
1.27173e+06
1.37943e+06
1.48733e+06
1.61282e+06
1.74386e+06
1.89774e+06
2.03763e+06
2.15898e+06
2.29802e+06
2.43335e+06
2.56461e+06
2.69215e+06
2.80595e+06
2.93278e+06
3.04493e+06
3.15204e+06
3.25645e+06
3.35991e+06
3.45348e+06
3.54261e+06
3.62972e+06
3.69976e+06
3.76743e+06
3.81587e+06
3.83977e+06
3.85107e+06
3.83622e+06
3.78673e+06
3.70477e+06
3.61325e+06
3.45304e+06
3.26433e+06
3.05364e+06
2.88628e+06
2.65935e+06
2.40819e+06
2.2133e+06
2.14226e+06
1.97441e+06
1.74658e+06
1.80834e+06
1.7168e+06
1.49858e+06
1.60498e+06
462162
467291
476187
481898
481872
487072
499291
503457
510431
525126
532144
542094
555151
570381
605435
623518
630163
658745
705864
743617
764822
811780
864818
933031
1.00207e+06
1.06884e+06
1.15418e+06
1.26579e+06
1.37389e+06
1.4832e+06
1.60916e+06
1.7408e+06
1.89464e+06
2.03526e+06
2.15825e+06
2.29745e+06
2.43315e+06
2.56394e+06
2.6917e+06
2.806e+06
2.93219e+06
3.04445e+06
3.15159e+06
3.2563e+06
3.36049e+06
3.45427e+06
3.54378e+06
3.63157e+06
3.70239e+06
3.77104e+06
3.82042e+06
3.84546e+06
3.85789e+06
3.84407e+06
3.79521e+06
3.7135e+06
3.62168e+06
3.46083e+06
3.27043e+06
3.05742e+06
2.88789e+06
2.65866e+06
2.40612e+06
2.20904e+06
2.13682e+06
1.96859e+06
1.74113e+06
1.80176e+06
1.71107e+06
1.49411e+06
1.5999e+06
1.56042e+06
1.41232e+06
1.42106e+06
1.40234e+06
1.42071e+06
1.4081e+06
1.28711e+06
1.32112e+06
1.43361e+06
1.23815e+06
1.2319e+06
1.40469e+06
1.21536e+06
1.18916e+06
1.31858e+06
1.19156e+06
1.16625e+06
1.20833e+06
1.17478e+06
1.11491e+06
1.16037e+06
1.10508e+06
991255
1.10041e+06
1.07179e+06
859576
1.02381e+06
986029
851475
896875
920779
925072
800339
790205
913988
723007
675620
790240
723309
637004
608179
614462
588414
546164
490824
419157
508318
458823
317078
407650
381389
285199
291903
290897
280706
308940
166089
144663
246771
101818
90486
112881
461859
466571
475576
481423
481495
486257
498258
502447
509655
524182
530667
540463
553742
568836
603681
621132
627365
656081
702816
740006
760302
807299
860369
927351
995990
1.06318e+06
1.14905e+06
1.25988e+06
1.36805e+06
1.47853e+06
1.60531e+06
1.73806e+06
1.8918e+06
2.03277e+06
2.15746e+06
2.29717e+06
2.43314e+06
2.56323e+06
2.69074e+06
2.80578e+06
2.93174e+06
3.04403e+06
3.15108e+06
3.25592e+06
3.36074e+06
3.45492e+06
3.54507e+06
3.63355e+06
3.70498e+06
3.77451e+06
3.8251e+06
3.85122e+06
3.86508e+06
3.8521e+06
3.80405e+06
3.72296e+06
3.63094e+06
3.46911e+06
3.27699e+06
3.06192e+06
2.89032e+06
2.65862e+06
2.40443e+06
2.20586e+06
2.13252e+06
1.96349e+06
1.73662e+06
1.79702e+06
1.70678e+06
1.4908e+06
1.59666e+06
1.55809e+06
1.40949e+06
1.41955e+06
1.39994e+06
1.41907e+06
1.40675e+06
1.2851e+06
1.31916e+06
1.43318e+06
1.23561e+06
1.22962e+06
1.40531e+06
1.21365e+06
1.18718e+06
1.31841e+06
1.1911e+06
1.16496e+06
1.20743e+06
1.17424e+06
1.11426e+06
1.15958e+06
1.10503e+06
991622
1.09943e+06
1.07139e+06
862698
1.02341e+06
985624
852576
897225
919778
923839
800114
790111
912124
723255
675663
789517
722233
637517
607921
613882
588152
546684
490841
421381
507170
458195
319137
408010
380641
285968
292096
290777
279364
307799
165757
145651
245508
101489
91056.8
113138
461845
466813
475692
481140
481114
485998
498066
501874
508745
523187
529820
539380
552190
566874
602096
619441
624861
653094
699688
737018
756482
803092
855893
921956
990773
1.0581e+06
1.14388e+06
1.25379e+06
1.36257e+06
1.4746e+06
1.60174e+06
1.7353e+06
1.88912e+06
2.03097e+06
2.15744e+06
2.29719e+06
2.4335e+06
2.56304e+06
2.69083e+06
2.80602e+06
2.93152e+06
3.04386e+06
3.15086e+06
3.25608e+06
3.36165e+06
3.45599e+06
3.54654e+06
3.63574e+06
3.70806e+06
3.77871e+06
3.83031e+06
3.85733e+06
3.87285e+06
3.86107e+06
3.81406e+06
3.733e+06
3.64081e+06
3.47828e+06
3.28428e+06
3.06663e+06
2.89289e+06
2.65901e+06
2.4027e+06
2.20238e+06
2.12815e+06
1.95863e+06
1.73193e+06
1.792e+06
1.70286e+06
1.48742e+06
1.59343e+06
1.55619e+06
1.4074e+06
1.41835e+06
1.39858e+06
1.41843e+06
1.40619e+06
1.28434e+06
1.31879e+06
1.43377e+06
1.23425e+06
1.22886e+06
1.40673e+06
1.21269e+06
1.186e+06
1.31872e+06
1.19096e+06
1.16412e+06
1.20666e+06
1.17395e+06
1.11379e+06
1.15878e+06
1.10518e+06
992354
1.09841e+06
1.07144e+06
865867
1.02301e+06
985449
854088
897667
919176
922846
800292
790522
910589
723562
676523
789049
721415
638252
608265
613421
587970
547619
491832
423691
506291
457954
321535
408284
380154
286829
292397
290723
278287
306609
165751
147242
244670
101389
92188.1
113708
461530
466134
475079
480792
480813
485218
497031
500815
507952
522180
528176
537605
550576
565148
600112
616776
621781
650141
696399
733029
751436
798152
850955
915662
984009
1.05162e+06
1.13815e+06
1.24713e+06
1.35598e+06
1.46932e+06
1.59735e+06
1.73228e+06
1.88603e+06
2.02827e+06
2.15654e+06
2.29688e+06
2.43361e+06
2.56227e+06
2.68996e+06
2.80578e+06
2.93102e+06
3.04357e+06
3.15042e+06
3.25581e+06
3.36207e+06
3.45683e+06
3.5481e+06
3.63802e+06
3.71096e+06
3.78266e+06
3.83554e+06
3.864e+06
3.88085e+06
3.87e+06
3.8239e+06
3.74359e+06
3.6511e+06
3.48742e+06
3.29155e+06
3.07151e+06
2.89529e+06
2.65819e+06
2.40046e+06
2.19852e+06
2.12284e+06
1.95267e+06
1.72666e+06
1.78625e+06
1.69776e+06
1.48351e+06
1.58951e+06
1.55287e+06
1.40443e+06
1.41643e+06
1.39614e+06
1.41648e+06
1.40482e+06
1.28265e+06
1.31713e+06
1.43341e+06
1.2321e+06
1.22708e+06
1.40744e+06
1.21133e+06
1.18419e+06
1.3188e+06
1.19059e+06
1.16296e+06
1.20575e+06
1.17349e+06
1.11312e+06
1.15787e+06
1.10469e+06
992874
1.09695e+06
1.07067e+06
868929
1.02225e+06
984570
855380
897743
918200
921607
800411
790583
908843
724529
677172
788256
720575
638843
608173
612844
587705
547610
491984
425732
504947
457330
323711
408230
379203
287558
292678
290452
277165
305388
165684
148473
243496
101261
93028.7
113871
461592
466469
475306
480518
480424
485044
496897
500248
507028
521159
527308
536571
548958
563096
598419
614946
619190
646919
693050
729837
747328
793639
846086
909800
978302
1.04626e+06
1.13253e+06
1.24039e+06
1.34999e+06
1.46507e+06
1.59346e+06
1.72938e+06
1.88326e+06
2.02655e+06
2.15686e+06
2.29706e+06
2.43419e+06
2.56205e+06
2.69019e+06
2.80629e+06
2.93092e+06
3.0436e+06
3.15034e+06
3.25617e+06
3.36324e+06
3.45819e+06
3.54989e+06
3.64054e+06
3.71444e+06
3.78744e+06
3.8414e+06
3.87106e+06
3.8895e+06
3.88004e+06
3.83496e+06
3.75488e+06
3.66217e+06
3.49767e+06
3.29975e+06
3.07672e+06
2.89798e+06
2.65837e+06
2.39842e+06
2.19456e+06
2.11775e+06
1.94726e+06
1.72149e+06
1.78061e+06
1.69348e+06
1.48005e+06
1.58602e+06
1.55046e+06
1.40245e+06
1.41505e+06
1.39471e+06
1.41561e+06
1.40401e+06
1.28188e+06
1.31678e+06
1.43365e+06
1.23066e+06
1.22649e+06
1.40863e+06
1.21036e+06
1.18296e+06
1.31915e+06
1.19038e+06
1.16211e+06
1.20491e+06
1.17323e+06
1.11265e+06
1.15703e+06
1.10473e+06
994027
1.09582e+06
1.07075e+06
872581
1.02185e+06
984325
857244
897777
917611
920480
800664
790851
906885
724758
678217
787492
719742
639115
608580
612372
587493
548500
493156
428148
504164
457154
326462
408384
378776
288581
293032
290260
276098
303810
165660
149919
242296
101097
94226.8
114168
461379
465787
474700
480361
480212
484319
495769
499201
506288
520021
525441
534551
547125
561135
596036
611793
615733
643603
689461
725374
741628
788248
840844
902895
970777
1.03932e+06
1.1262e+06
1.23302e+06
1.3426e+06
1.45914e+06
1.58852e+06
1.72612e+06
1.87994e+06
2.02363e+06
2.15592e+06
2.29687e+06
2.43431e+06
2.56183e+06
2.68936e+06
2.80604e+06
2.93055e+06
3.0436e+06
3.15e+06
3.25608e+06
3.36383e+06
3.45926e+06
3.55178e+06
3.64315e+06
3.71768e+06
3.79189e+06
3.84724e+06
3.87849e+06
3.89837e+06
3.88998e+06
3.84603e+06
3.76675e+06
3.67363e+06
3.50779e+06
3.30784e+06
3.08202e+06
2.90026e+06
2.65696e+06
2.39553e+06
2.18991e+06
2.11122e+06
1.9403e+06
1.71532e+06
1.77367e+06
1.68736e+06
1.47537e+06
1.58132e+06
1.54601e+06
1.39919e+06
1.41271e+06
1.3921e+06
1.41335e+06
1.40257e+06
1.28071e+06
1.31554e+06
1.43339e+06
1.22919e+06
1.22543e+06
1.40948e+06
1.20945e+06
1.18149e+06
1.31949e+06
1.19004e+06
1.16108e+06
1.20405e+06
1.17275e+06
1.11194e+06
1.15591e+06
1.10415e+06
994681
1.09387e+06
1.06952e+06
875520
1.02072e+06
983022
858666
897440
916609
919288
801309
791106
905298
726069
679481
786679
719090
639817
608620
611844
587207
548368
493497
430091
502592
456308
328760
407913
377589
289317
293324
289909
275140
302485
166264
151391
241291
101283
95432.2
114213
461056
465640
474660
479787
479294
483697
495276
498394
505187
519153
524717
533893
545919
559828
595502
610947
613826
640879
686813
722724
737722
783422
835470
896429
964427
1.03291e+06
1.11988e+06
1.22567e+06
1.336e+06
1.45459e+06
1.58433e+06
1.72327e+06
1.87748e+06
2.02301e+06
2.15662e+06
2.2973e+06
2.43499e+06
2.56219e+06
2.68956e+06
2.8065e+06
2.93041e+06
3.04376e+06
3.14999e+06
3.25649e+06
3.36526e+06
3.46087e+06
3.55392e+06
3.64619e+06
3.72172e+06
3.79746e+06
3.85389e+06
3.88669e+06
3.90829e+06
3.90153e+06
3.8587e+06
3.77979e+06
3.68664e+06
3.51988e+06
3.31761e+06
3.08855e+06
2.90434e+06
2.65872e+06
2.394e+06
2.18703e+06
2.10754e+06
1.93618e+06
1.71119e+06
1.77026e+06
1.68563e+06
1.47355e+06
1.58027e+06
1.54594e+06
1.39914e+06
1.41249e+06
1.39102e+06
1.41233e+06
1.40049e+06
1.2773e+06
1.31254e+06
1.43038e+06
1.22351e+06
1.22109e+06
1.40768e+06
1.20547e+06
1.17761e+06
1.3183e+06
1.18845e+06
1.1591e+06
1.20269e+06
1.1725e+06
1.11163e+06
1.15585e+06
1.1054e+06
997467
1.09482e+06
1.07174e+06
880764
1.02225e+06
984574
861825
897837
916050
917190
800027
789536
901735
724505
678396
784076
717056
639654
608353
611233
587218
549566
495374
433851
503390
457734
332969
409400
378521
291114
293754
289441
273247
299268
164362
150713
238633
99383.5
95118.3
113439
461922
466596
475549
479999
479530
484451
495581
498102
504485
518016
523592
532423
543723
556771
592344
607765
610125
636476
682402
718313
732627
778178
829976
889880
958102
1.02631e+06
1.11339e+06
1.21799e+06
1.32896e+06
1.44942e+06
1.57958e+06
1.71981e+06
1.87412e+06
2.02069e+06
2.15694e+06
2.29766e+06
2.43577e+06
2.56263e+06
2.68992e+06
2.8076e+06
2.93069e+06
3.04447e+06
3.15033e+06
3.25724e+06
3.36703e+06
3.46266e+06
3.55627e+06
3.64919e+06
3.7257e+06
3.80306e+06
3.86068e+06
3.89509e+06
3.91815e+06
3.91311e+06
3.87153e+06
3.79298e+06
3.6992e+06
3.53133e+06
3.32676e+06
3.09388e+06
2.90585e+06
2.65767e+06
2.39018e+06
2.18037e+06
2.0986e+06
1.92751e+06
1.70332e+06
1.76016e+06
1.67728e+06
1.4676e+06
1.57307e+06
1.53937e+06
1.3952e+06
1.40926e+06
1.38902e+06
1.41074e+06
1.40023e+06
1.27961e+06
1.31502e+06
1.43293e+06
1.22662e+06
1.22501e+06
1.41123e+06
1.20772e+06
1.17926e+06
1.3203e+06
1.18964e+06
1.15947e+06
1.20241e+06
1.17223e+06
1.11114e+06
1.154e+06
1.10426e+06
997640
1.09125e+06
1.06917e+06
883411
1.01942e+06
982010
862981
897476
915218
916809
802537
791671
900872
727887
682309
784587
717172
641340
609635
611032
586665
549730
495528
435039
500835
456054
334930
407610
376393
291750
294052
289297
273125
298669
166963
154326
238364
101143
98154.5
114348
461605
465544
474851
479467
478999
483650
494105
496786
503606
516724
521514
530345
541928
554782
589867
604402
606650
633015
678707
713438
726559
772171
823855
882050
949413
1.01777e+06
1.10583e+06
1.20935e+06
1.3203e+06
1.44235e+06
1.57383e+06
1.71621e+06
1.87062e+06
2.01759e+06
2.15652e+06
2.29778e+06
2.43595e+06
2.56193e+06
2.68915e+06
2.80753e+06
2.93045e+06
3.04481e+06
3.15017e+06
3.25743e+06
3.3679e+06
3.46408e+06
3.55869e+06
3.65241e+06
3.72957e+06
3.80849e+06
3.86762e+06
3.90382e+06
3.9287e+06
3.92499e+06
3.88494e+06
3.80732e+06
3.71305e+06
3.54357e+06
3.33665e+06
3.10034e+06
2.90859e+06
2.65602e+06
2.38687e+06
2.17521e+06
2.09121e+06
1.91985e+06
1.69685e+06
1.75275e+06
1.67112e+06
1.46354e+06
1.56837e+06
1.53487e+06
1.39253e+06
1.40694e+06
1.38644e+06
1.40804e+06
1.39802e+06
1.27786e+06
1.313e+06
1.43108e+06
1.22394e+06
1.22309e+06
1.41059e+06
1.2059e+06
1.17698e+06
1.32009e+06
1.18893e+06
1.15803e+06
1.20138e+06
1.17164e+06
1.11049e+06
1.15296e+06
1.10377e+06
998989
1.08997e+06
1.06834e+06
887603
1.01875e+06
981162
865141
897137
914135
915189
802757
791327
898069
727787
683115
782912
716182
641322
609459
610502
586370
549569
496572
437578
499717
455298
338087
407349
375553
293046
294314
288752
271928
296354
166901
155060
236293
100873
98899.4
113847
462059
466293
475542
479415
478621
483921
494112
496407
502805
515636
520679
529374
540268
552469
587759
602100
603727
629024
674635
709332
721475
766665
817595
874840
942504
1.01061e+06
1.09858e+06
1.20093e+06
1.3128e+06
1.43695e+06
1.56909e+06
1.71293e+06
1.86765e+06
2.01666e+06
2.15735e+06
2.2985e+06
2.43679e+06
2.56239e+06
2.68971e+06
2.80874e+06
2.9309e+06
3.04574e+06
3.15058e+06
3.25728e+06
3.3702e+06
3.46625e+06
3.56147e+06
3.65593e+06
3.7342e+06
3.81502e+06
3.87539e+06
3.91307e+06
3.94002e+06
3.93831e+06
3.89977e+06
3.82257e+06
3.72783e+06
3.55719e+06
3.3477e+06
3.10713e+06
2.91146e+06
2.65484e+06
2.38359e+06
2.16954e+06
2.08358e+06
1.91237e+06
1.69018e+06
1.74475e+06
1.66527e+06
1.45975e+06
1.56339e+06
1.53089e+06
1.3906e+06
1.40482e+06
1.38466e+06
1.40621e+06
1.39615e+06
1.27734e+06
1.31265e+06
1.42999e+06
1.2228e+06
1.22341e+06
1.41092e+06
1.20515e+06
1.17611e+06
1.32045e+06
1.18868e+06
1.15724e+06
1.20054e+06
1.17129e+06
1.1102e+06
1.15186e+06
1.10366e+06
1.00085e+06
1.0888e+06
1.06807e+06
892130
1.01807e+06
980657
867727
897001
913295
913753
803433
791498
895322
727937
684700
781465
715312
641616
610010
610165
585977
550436
498089
440317
498937
455046
341752
406958
375058
294551
294628
288269
270930
293784
167091
156325
234355
100819
100260
113733
461997
465398
475172
479282
478446
483736
492580
495223
502074
514181
518300
526927
538147
550047
584437
597842
599590
624824
670181
703490
714625
759956
810881
866265
933009
1.00108e+06
1.09028e+06
1.19161e+06
1.30326e+06
1.42887e+06
1.56282e+06
1.709e+06
1.8639e+06
2.01333e+06
2.15706e+06
2.29865e+06
2.43738e+06
2.56214e+06
2.68938e+06
2.80903e+06
2.93103e+06
3.04665e+06
3.15075e+06
3.25775e+06
3.37151e+06
3.46805e+06
3.56434e+06
3.65957e+06
3.73845e+06
3.82105e+06
3.88306e+06
3.92298e+06
3.9517e+06
3.95125e+06
3.91473e+06
3.83866e+06
3.74322e+06
3.57072e+06
3.35864e+06
3.11409e+06
2.91378e+06
2.65305e+06
2.37922e+06
2.16299e+06
2.07408e+06
1.90288e+06
1.68241e+06
1.73507e+06
1.65713e+06
1.45478e+06
1.55682e+06
1.52464e+06
1.38719e+06
1.40173e+06
1.38178e+06
1.40307e+06
1.39388e+06
1.27683e+06
1.3116e+06
1.4286e+06
1.22198e+06
1.22324e+06
1.41076e+06
1.20453e+06
1.17492e+06
1.32069e+06
1.18825e+06
1.15616e+06
1.1997e+06
1.17056e+06
1.10953e+06
1.15037e+06
1.10273e+06
1.00197e+06
1.08682e+06
1.06624e+06
895994
1.01657e+06
979028
869814
896584
912089
912341
804515
791809
892920
729363
686561
780058
714670
642371
610053
609797
585552
550208
499005
442613
497230
453915
344781
405938
373807
295702
294850
287617
270144
291535
168158
157754
232637
101323
101592
113439
461847
465505
475658
478700
477442
483805
492156
494475
500951
513144
517571
526416
537051
548816
583841
596907
597962
622059
667530
700572
710448
754300
803983
858215
924960
992552
1.08148e+06
1.18141e+06
1.29419e+06
1.42202e+06
1.55704e+06
1.70523e+06
1.86091e+06
2.01203e+06
2.15802e+06
2.29939e+06
2.43829e+06
2.56268e+06
2.68982e+06
2.80992e+06
2.93107e+06
3.04716e+06
3.15075e+06
3.26495e+06
3.37337e+06
3.47043e+06
3.56744e+06
3.66365e+06
3.74368e+06
3.82854e+06
3.89181e+06
3.93374e+06
3.96497e+06
3.96663e+06
3.93169e+06
3.8563e+06
3.76063e+06
3.58684e+06
3.37183e+06
3.12267e+06
2.9183e+06
2.65428e+06
2.37658e+06
2.15852e+06
2.06799e+06
1.89668e+06
1.67732e+06
1.72962e+06
1.65424e+06
1.45356e+06
1.55424e+06
1.52347e+06
1.38737e+06
1.40088e+06
1.38036e+06
1.40108e+06
1.39049e+06
1.27342e+06
1.30815e+06
1.42332e+06
1.21546e+06
1.21866e+06
1.40674e+06
1.19958e+06
1.17053e+06
1.31881e+06
1.18622e+06
1.15397e+06
1.19835e+06
1.17027e+06
1.10959e+06
1.15022e+06
1.10413e+06
1.00555e+06
1.08793e+06
1.0681e+06
902411
1.01789e+06
980449
873725
896576
911082
909755
803324
789995
888196
727542
685705
776567
712421
642197
609844
609364
585360
551436
501183
446763
497952
455270
349624
407081
374720
297997
295192
286729
268326
287288
166467
156833
228881
99331.8
101010
112214
463544
467517
476934
479681
478206
484754
493141
494601
500658
512125
516693
525107
534751
545483
579603
592744
593556
616491
661317
693951
703937
747418
796388
850122
916842
984137
1.07316e+06
1.17212e+06
1.28631e+06
1.41557e+06
1.55142e+06
1.70163e+06
1.85796e+06
2.01097e+06
2.15908e+06
2.30027e+06
2.43965e+06
2.56354e+06
2.69132e+06
2.81204e+06
2.93237e+06
3.04941e+06
3.15174e+06
3.26356e+06
3.37648e+06
3.47331e+06
3.57109e+06
3.66791e+06
3.74902e+06
3.83615e+06
3.9008e+06
3.94481e+06
3.97765e+06
3.9817e+06
3.94904e+06
3.8743e+06
3.77763e+06
3.60231e+06
3.38432e+06
3.12982e+06
2.91954e+06
2.65189e+06
2.37097e+06
2.14936e+06
2.0552e+06
1.88475e+06
1.66754e+06
1.71566e+06
1.64301e+06
1.44731e+06
1.54426e+06
1.51456e+06
1.383e+06
1.39655e+06
1.37754e+06
1.39815e+06
1.38881e+06
1.27637e+06
1.31059e+06
1.42438e+06
1.22048e+06
1.22475e+06
1.4098e+06
1.20337e+06
1.17387e+06
1.32106e+06
1.18782e+06
1.15473e+06
1.1982e+06
1.16965e+06
1.10924e+06
1.14777e+06
1.10253e+06
1.0063e+06
1.08424e+06
1.06491e+06
906065
1.01453e+06
977530
875583
896242
909935
909105
806351
792246
886455
731183
690377
776523
712477
644020
611274
609379
584574
551617
502199
448420
495293
453633
352106
404953
372517
299100
295475
286236
268264
285639
169442
160378
227813
101626
104316
113028
463356
466426
475580
479347
477732
483187
491280
492989
499828
510395
514045
522573
532615
543241
575964
588183
589426
612193
656397
687341
696719
739858
788275
840337
905693
972924
1.06299e+06
1.16105e+06
1.27525e+06
1.40548e+06
1.54368e+06
1.69704e+06
1.85399e+06
2.00729e+06
2.15937e+06
2.30047e+06
2.44053e+06
2.56318e+06
2.69093e+06
2.81224e+06
2.93243e+06
3.05061e+06