/*--------------------------------*- C++ -*----------------------------------*\
| =========                 |                                                 |
| \\      /  F ield         | OpenFOAM: The Open Source CFD Toolbox           |
|  \\    /   O peration     | Version:  v2012                                 |
|   \\  /    A nd           | Website:  www.openfoam.com                      |
|    \\/     M anipulation  |                                                 |
\*---------------------------------------------------------------------------*/
FoamFile
{
    version     2.0;
    format      ascii;
    class       volScalarField;
    location    "1e-06";
    object      totalPMean;
}
// * * * * * * * * * * * * * * * * * * * * * * * * * * * * * * * * * * * * * //

dimensions      [1 -1 -2 0 0 0 0];


internalField   nonuniform List<scalar> 
10098
(
6.64002e+06
6.2985e+06
6.03014e+06
5.76189e+06
5.48722e+06
5.26881e+06
5.13553e+06
4.99857e+06
4.88423e+06
4.79844e+06
4.69546e+06
4.60325e+06
4.55937e+06
4.57449e+06
4.62894e+06
4.57798e+06
4.44983e+06
4.39559e+06
4.41334e+06
4.32202e+06
4.11902e+06
3.99528e+06
3.95917e+06
4.01499e+06
3.97218e+06
3.84462e+06
3.83788e+06
3.96303e+06
3.96217e+06
3.83701e+06
3.81775e+06
3.90388e+06
4.12136e+06
4.1885e+06
4.10673e+06
4.16147e+06
4.31972e+06
4.58889e+06
4.86625e+06
5.1232e+06
5.5028e+06
5.86372e+06
6.21009e+06
6.56629e+06
6.9364e+06
7.32937e+06
7.75559e+06
8.20091e+06
8.62017e+06
9.0507e+06
9.4098e+06
9.71106e+06
1.00402e+07
1.04339e+07
1.08703e+07
1.13938e+07
1.2026e+07
1.2549e+07
1.31056e+07
1.3759e+07
1.46001e+07
1.51645e+07
1.5595e+07
1.63576e+07
1.75041e+07
1.80278e+07
1.81713e+07
1.90247e+07
1.89569e+07
6.64437e+06
6.30127e+06
6.03103e+06
5.76124e+06
5.48436e+06
5.26503e+06
5.13151e+06
4.99347e+06
4.87861e+06
4.7925e+06
4.68895e+06
4.59659e+06
4.55286e+06
4.56702e+06
4.62103e+06
4.57006e+06
4.44127e+06
4.38568e+06
4.40178e+06
4.30995e+06
4.10653e+06
3.98043e+06
3.94161e+06
3.99395e+06
3.94986e+06
3.82327e+06
3.81488e+06
3.93737e+06
3.93662e+06
3.81431e+06
3.79478e+06
3.88077e+06
4.09669e+06
4.16383e+06
4.08459e+06
4.13897e+06
4.29651e+06
4.56377e+06
4.84088e+06
5.09774e+06
5.4753e+06
5.83541e+06
6.1831e+06
6.5401e+06
6.91074e+06
7.30429e+06
7.7308e+06
8.17728e+06
8.59743e+06
9.02814e+06
9.38912e+06
9.6938e+06
1.00231e+07
1.04151e+07
1.08498e+07
1.1372e+07
1.20039e+07
1.25259e+07
1.30786e+07
1.37296e+07
1.45712e+07
1.51342e+07
1.55605e+07
1.63215e+07
1.74684e+07
1.79907e+07
1.81319e+07
1.899e+07
1.89241e+07
6.64855e+06
6.30376e+06
6.03163e+06
5.76068e+06
5.4812e+06
5.26107e+06
5.12723e+06
4.98826e+06
4.87278e+06
4.78625e+06
4.68193e+06
4.58922e+06
4.54572e+06
4.55928e+06
4.61279e+06
4.56142e+06
4.43193e+06
4.37526e+06
4.38969e+06
4.29714e+06
4.09259e+06
3.96455e+06
3.92313e+06
3.97171e+06
3.9261e+06
3.80041e+06
3.79061e+06
3.91035e+06
3.90955e+06
3.78999e+06
3.77039e+06
3.85637e+06
4.07057e+06
4.13759e+06
4.06086e+06
4.11517e+06
4.27204e+06
4.53714e+06
4.8138e+06
5.07077e+06
5.44659e+06
5.80591e+06
6.15478e+06
6.51252e+06
6.88372e+06
7.278e+06
7.70502e+06
8.15271e+06
8.57367e+06
9.00445e+06
9.36743e+06
9.67615e+06
1.0005e+07
1.03951e+07
1.08282e+07
1.13491e+07
1.19806e+07
1.25012e+07
1.30501e+07
1.36985e+07
1.45405e+07
1.51019e+07
1.55239e+07
1.62833e+07
1.74303e+07
1.79509e+07
1.80898e+07
1.89529e+07
1.88887e+07
6.65235e+06
6.3065e+06
6.03257e+06
5.75983e+06
5.47694e+06
5.25714e+06
5.12235e+06
4.98305e+06
4.86608e+06
4.77945e+06
4.67485e+06
4.58265e+06
4.53782e+06
4.5505e+06
4.60427e+06
4.55292e+06
4.42229e+06
4.36378e+06
4.37677e+06
4.28392e+06
4.0786e+06
3.94773e+06
3.90324e+06
3.94839e+06
3.90158e+06
3.77676e+06
3.76489e+06
3.88172e+06
3.88128e+06
3.76491e+06
3.7449e+06
3.83046e+06
4.04306e+06
4.11022e+06
4.03637e+06
4.09008e+06
4.24596e+06
4.50916e+06
4.78571e+06
5.04281e+06
5.41656e+06
5.775e+06
6.12504e+06
6.48378e+06
6.85588e+06
7.25076e+06
7.67798e+06
8.12706e+06
8.54914e+06
8.9802e+06
9.34484e+06
9.65765e+06
9.98593e+06
1.03745e+07
1.08057e+07
1.13248e+07
1.19559e+07
1.24756e+07
1.30203e+07
1.36656e+07
1.45087e+07
1.50683e+07
1.54852e+07
1.62427e+07
1.73904e+07
1.79094e+07
1.80453e+07
1.89135e+07
1.88517e+07
6.65595e+06
6.30884e+06
6.03321e+06
5.7592e+06
5.47219e+06
5.25288e+06
5.11712e+06
4.97761e+06
4.85921e+06
4.77231e+06
4.66726e+06
4.57512e+06
4.52933e+06
4.54134e+06
4.59533e+06
4.54362e+06
4.41172e+06
4.35164e+06
4.36323e+06
4.26985e+06
4.06297e+06
3.92974e+06
3.88237e+06
3.92375e+06
3.87546e+06
3.75141e+06
3.73759e+06
3.85156e+06
3.85128e+06
3.73798e+06
3.71779e+06
3.8031e+06
4.01392e+06
4.08106e+06
4.01004e+06
4.06347e+06
4.21845e+06
4.47944e+06
4.75557e+06
5.01306e+06
5.38512e+06
5.74275e+06
6.0937e+06
6.45336e+06
6.8265e+06
7.2222e+06
7.64988e+06
8.10039e+06
8.52349e+06
8.9547e+06
9.32106e+06
9.63861e+06
9.96565e+06
1.03526e+07
1.07819e+07
1.12993e+07
1.193e+07
1.24483e+07
1.29888e+07
1.36305e+07
1.4471e+07
1.50327e+07
1.54442e+07
1.61996e+07
1.73478e+07
1.7865e+07
1.79978e+07
1.88714e+07
1.88119e+07
1.79485e+07
6.65707e+06
6.31123e+06
6.03408e+06
5.75776e+06
5.46535e+06
5.24801e+06
5.11252e+06
4.97204e+06
4.85129e+06
4.76459e+06
4.6598e+06
4.56788e+06
4.5201e+06
4.53131e+06
4.5865e+06
4.53508e+06
4.40112e+06
4.33869e+06
4.34918e+06
4.25583e+06
4.04786e+06
3.91096e+06
3.86026e+06
3.89842e+06
3.84907e+06
3.72558e+06
3.70901e+06
3.82015e+06
3.82062e+06
3.71079e+06
3.68971e+06
3.77461e+06
3.98387e+06
4.05149e+06
3.98337e+06
4.03581e+06
4.18955e+06
4.44856e+06
4.72483e+06
4.98223e+06
5.35234e+06
5.709e+06
6.06097e+06
6.42191e+06
6.79633e+06
7.19264e+06
7.62032e+06
8.07247e+06
8.49699e+06
8.92864e+06
9.29623e+06
9.61899e+06
9.94423e+06
1.03302e+07
1.07573e+07
1.12725e+07
1.19028e+07
1.24203e+07
1.29562e+07
1.3596e+07
1.44314e+07
1.49943e+07
1.54016e+07
1.61549e+07
1.73046e+07
1.78198e+07
1.79482e+07
1.88284e+07
1.87722e+07
1.79066e+07
6.663e+06
6.31564e+06
6.03653e+06
5.75683e+06
5.46287e+06
5.24739e+06
5.10952e+06
4.96678e+06
4.84345e+06
4.7563e+06
4.65145e+06
4.55909e+06
4.50903e+06
4.51844e+06
4.57407e+06
4.52315e+06
4.38778e+06
4.32246e+06
4.33116e+06
4.23763e+06
4.02953e+06
3.88928e+06
3.83416e+06
3.86843e+06
3.81803e+06
3.6957e+06
3.67654e+06
3.78309e+06
3.78386e+06
3.67789e+06
3.65747e+06
3.74059e+06
3.94761e+06
4.0156e+06
3.95142e+06
4.0044e+06
4.15609e+06
4.4135e+06
4.68996e+06
4.94857e+06
5.31704e+06
5.67275e+06
6.02569e+06
6.38791e+06
6.76433e+06
7.16166e+06
7.58963e+06
8.04339e+06
8.46934e+06
8.90151e+06
9.2701e+06
9.59681e+06
9.92107e+06
1.0306e+07
1.07307e+07
1.12432e+07
1.18723e+07
1.23886e+07
1.29199e+07
1.35564e+07
1.439e+07
1.49492e+07
1.53529e+07
1.61009e+07
1.72499e+07
1.7764e+07
1.78895e+07
1.87711e+07
1.87181e+07
1.78548e+07
6.66845e+06
6.31844e+06
6.03783e+06
5.75512e+06
5.46131e+06
5.24548e+06
5.10497e+06
4.96067e+06
4.83602e+06
4.74808e+06
4.6422e+06
4.54898e+06
4.49761e+06
4.50598e+06
4.56167e+06
4.5102e+06
4.37354e+06
4.3063e+06
4.31313e+06
4.21873e+06
4.00964e+06
3.86655e+06
3.80763e+06
3.83753e+06
3.78523e+06
3.66391e+06
3.64292e+06
3.74526e+06
3.74568e+06
3.64303e+06
3.62358e+06
3.70555e+06
3.91015e+06
3.97817e+06
3.91766e+06
3.97163e+06
4.12145e+06
4.3769e+06
4.65298e+06
4.9129e+06
5.28037e+06
5.6353e+06
5.98881e+06
6.35198e+06
6.73027e+06
7.12904e+06
7.55796e+06
8.01332e+06
8.44031e+06
8.8725e+06
9.24242e+06
9.5702e+06
9.89661e+06
1.02802e+07
1.07024e+07
1.12129e+07
1.18408e+07
1.2355e+07
1.28815e+07
1.35154e+07
1.43464e+07
1.49019e+07
1.53018e+07
1.60455e+07
1.71936e+07
1.77057e+07
1.78281e+07
1.87124e+07
1.86618e+07
1.78008e+07
6.67356e+06
6.32263e+06
6.03919e+06
5.75315e+06
5.45928e+06
5.24333e+06
5.10043e+06
4.9542e+06
4.82789e+06
4.73941e+06
4.63278e+06
4.53848e+06
4.48561e+06
4.49274e+06
4.54893e+06
4.49725e+06
4.35864e+06
4.28913e+06
4.2943e+06
4.19929e+06
3.98902e+06
3.84262e+06
3.77976e+06
3.8054e+06
3.75136e+06
3.63087e+06
3.60765e+06
3.70577e+06
3.70601e+06
3.6069e+06
3.58808e+06
3.66867e+06
3.87106e+06
3.93935e+06
3.88255e+06
3.93713e+06
4.08504e+06
4.33856e+06
4.61443e+06
4.87588e+06
5.24214e+06
5.59627e+06
5.95026e+06
6.31442e+06
6.69496e+06
7.09512e+06
7.52488e+06
7.98197e+06
8.41017e+06
8.84251e+06
9.21341e+06
9.54003e+06
9.87073e+06
1.02535e+07
1.06729e+07
1.1181e+07
1.18076e+07
1.23199e+07
1.28414e+07
1.34721e+07
1.43008e+07
1.48525e+07
1.52481e+07
1.59871e+07
1.71345e+07
1.76446e+07
1.77633e+07
1.86505e+07
1.86028e+07
1.77437e+07
6.67847e+06
6.32535e+06
6.03945e+06
5.75178e+06
5.45816e+06
5.24049e+06
5.09444e+06
4.94681e+06
4.82039e+06
4.73066e+06
4.62223e+06
4.52638e+06
4.47309e+06
4.47964e+06
4.53569e+06
4.48275e+06
4.34242e+06
4.27174e+06
4.27501e+06
4.17853e+06
3.96631e+06
3.81733e+06
3.75117e+06
3.77176e+06
3.71506e+06
3.59537e+06
3.5709e+06
3.66482e+06
3.66412e+06
3.56795e+06
3.5504e+06
3.6304e+06
3.8301e+06
3.89812e+06
3.84474e+06
3.9008e+06
4.04723e+06
4.29804e+06
4.57323e+06
4.83654e+06
5.20224e+06
5.55573e+06
5.90982e+06
6.27469e+06
6.65736e+06
7.05938e+06
7.49069e+06
7.9495e+06
8.37849e+06
8.81053e+06
9.18271e+06
9.50785e+06
9.84334e+06
1.02247e+07
1.06415e+07
1.11477e+07
1.1773e+07
1.22825e+07
1.27989e+07
1.34267e+07
1.4253e+07
1.48e+07
1.51912e+07
1.59261e+07
1.70721e+07
1.75795e+07
1.76949e+07
1.85853e+07
1.85395e+07
1.76833e+07
6.68291e+06
6.3281e+06
6.0398e+06
5.75023e+06
5.4563e+06
5.23728e+06
5.0887e+06
4.93943e+06
4.81237e+06
4.72134e+06
4.61151e+06
4.5139e+06
4.45995e+06
4.46566e+06
4.52215e+06
4.46839e+06
4.32569e+06
4.25332e+06
4.25488e+06
4.15738e+06
3.94308e+06
3.79095e+06
3.72135e+06
3.73679e+06
3.67777e+06
3.55875e+06
3.53248e+06
3.6221e+06
3.62076e+06
3.52795e+06
3.51116e+06
3.59038e+06
3.78745e+06
3.85556e+06
3.80577e+06
3.86271e+06
4.00775e+06
4.25561e+06
4.53037e+06
4.79587e+06
5.16065e+06
5.51345e+06
5.86754e+06
6.23322e+06
6.61843e+06
7.02225e+06
7.45492e+06
7.91554e+06
8.34557e+06
8.77749e+06
9.15063e+06
9.4738e+06
9.81437e+06
1.01946e+07
1.06088e+07
1.11126e+07
1.17365e+07
1.22434e+07
1.27544e+07
1.33789e+07
1.42029e+07
1.47453e+07
1.51316e+07
1.58619e+07
1.70067e+07
1.75115e+07
1.76227e+07
1.85168e+07
1.84736e+07
1.76195e+07
6.68705e+06
6.32927e+06
6.03908e+06
5.74901e+06
5.4547e+06
5.23322e+06
5.08193e+06
4.93155e+06
4.80451e+06
4.71191e+06
4.59953e+06
4.49976e+06
4.44623e+06
4.45176e+06
4.50811e+06
4.45251e+06
4.30759e+06
4.23458e+06
4.23427e+06
4.1348e+06
3.91773e+06
3.76301e+06
3.69053e+06
3.7001e+06
3.6379e+06
3.51958e+06
3.49244e+06
3.57781e+06
3.575e+06
3.48511e+06
3.46961e+06
3.54879e+06
3.74281e+06
3.8104e+06
3.76402e+06
3.82252e+06
3.96671e+06
4.21075e+06
4.48461e+06
4.75258e+06
5.11719e+06
5.46947e+06
5.82317e+06
6.18936e+06
6.57707e+06
6.98314e+06
7.41783e+06
7.88029e+06
8.31092e+06
8.74234e+06
9.11675e+06
9.43929e+06
9.78383e+06
1.01622e+07
1.05739e+07
1.10759e+07
1.16984e+07
1.22018e+07
1.27073e+07
1.33287e+07
1.41503e+07
1.46872e+07
1.50685e+07
1.57948e+07
1.69377e+07
1.74392e+07
1.75465e+07
1.84446e+07
1.84031e+07
1.7552e+07
6.69061e+06
6.33042e+06
6.03864e+06
5.74745e+06
5.45201e+06
5.22873e+06
5.07546e+06
4.9237e+06
4.79572e+06
4.70176e+06
4.58747e+06
4.48539e+06
4.4315e+06
4.43672e+06
4.49376e+06
4.43691e+06
4.28906e+06
4.21466e+06
4.21272e+06
4.11205e+06
3.89209e+06
3.73416e+06
3.65828e+06
3.66202e+06
3.59723e+06
3.47941e+06
3.45061e+06
3.53153e+06
3.52775e+06
3.44133e+06
3.42662e+06
3.50529e+06
3.69631e+06
3.76396e+06
3.7212e+06
3.78056e+06
3.92392e+06
4.16389e+06
4.43719e+06
4.70758e+06
5.0719e+06
5.42352e+06
5.77675e+06
6.14366e+06
6.53432e+06
6.94257e+06
7.37897e+06
7.84331e+06
8.27488e+06
8.70606e+06
9.08141e+06
9.40359e+06
9.75159e+06
1.01287e+07
1.05378e+07
1.10372e+07
1.16582e+07
1.21584e+07
1.26581e+07
1.32759e+07
1.40952e+07
1.4627e+07
1.50024e+07
1.57241e+07
1.68655e+07
1.73639e+07
1.74663e+07
1.83687e+07
1.83298e+07
1.7481e+07
6.69371e+06
6.32947e+06
6.03712e+06
5.74611e+06
5.4491e+06
5.22256e+06
5.06779e+06
4.9153e+06
4.78681e+06
4.69145e+06
4.57414e+06
4.46911e+06
4.41638e+06
4.42171e+06
4.47892e+06
4.41982e+06
4.26901e+06
4.19425e+06
4.19064e+06
4.0878e+06
3.86431e+06
3.70353e+06
3.62471e+06
3.62198e+06
3.55387e+06
3.43644e+06
3.40698e+06
3.48351e+06
3.47793e+06
3.39468e+06
3.38116e+06
3.46003e+06
3.64765e+06
3.71472e+06
3.67552e+06
3.73625e+06
3.8792e+06
4.11429e+06
4.38663e+06
4.65972e+06
5.02452e+06
5.37566e+06
5.72801e+06
6.09522e+06
6.489e+06
6.89984e+06
7.33855e+06
7.80482e+06
8.23691e+06
8.66759e+06
9.04412e+06
9.36705e+06
9.71764e+06
1.00928e+07
1.04993e+07
1.09968e+07
1.16162e+07
1.21123e+07
1.26061e+07
1.32204e+07
1.40375e+07
1.45632e+07
1.49326e+07
1.56502e+07
1.67893e+07
1.72838e+07
1.73815e+07
1.82889e+07
1.82517e+07
1.74057e+07
6.69606e+06
6.33038e+06
6.03616e+06
5.74421e+06
5.44462e+06
5.21547e+06
5.06067e+06
4.90684e+06
4.77654e+06
4.6802e+06
4.56101e+06
4.45496e+06
4.40004e+06
4.40492e+06
4.46376e+06
4.40334e+06
4.24878e+06
4.17229e+06
4.16743e+06
4.06367e+06
3.83675e+06
3.67213e+06
3.5894e+06
3.58043e+06
3.5101e+06
3.39277e+06
3.36137e+06
3.43315e+06
3.42658e+06
3.34739e+06
3.33449e+06
3.41253e+06
3.59691e+06
3.6643e+06
3.62908e+06
3.69035e+06
3.83253e+06
4.0626e+06
4.33456e+06
4.61053e+06
4.97516e+06
5.32553e+06
5.67698e+06
6.04483e+06
6.4423e+06
6.85559e+06
7.29607e+06
7.76431e+06
8.19742e+06
8.628e+06
9.00531e+06
9.32904e+06
9.68171e+06
1.00556e+07
1.04592e+07
1.0954e+07
1.15718e+07
1.20644e+07
1.25519e+07
1.31619e+07
1.3977e+07
1.44971e+07
1.48594e+07
1.55722e+07
1.67096e+07
1.72005e+07
1.72922e+07
1.82049e+07
1.81708e+07
1.73268e+07
6.69774e+06
6.32915e+06
6.03401e+06
5.74264e+06
5.43966e+06
5.20776e+06
5.05224e+06
4.89756e+06
4.76598e+06
4.66866e+06
4.54655e+06
4.43881e+06
4.38309e+06
4.38791e+06
4.44802e+06
4.3853e+06
4.22679e+06
4.14948e+06
4.1436e+06
4.03792e+06
3.80685e+06
3.63863e+06
3.55257e+06
3.53664e+06
3.4635e+06
3.34629e+06
3.31369e+06
3.3808e+06
3.3724e+06
3.29709e+06
3.28508e+06
3.36293e+06
3.54377e+06
3.61083e+06
3.57956e+06
3.64187e+06
3.78383e+06
4.00783e+06
4.27909e+06
4.55833e+06
4.92347e+06
5.27324e+06
5.62333e+06
5.99144e+06
6.39287e+06
6.80902e+06
7.2518e+06
7.72202e+06
8.15575e+06
8.58609e+06
8.96436e+06
9.28998e+06
9.64361e+06
1.00159e+07
1.04165e+07
1.09092e+07
1.15251e+07
1.20135e+07
1.24946e+07
1.31004e+07
1.39135e+07
1.44271e+07
1.47822e+07
1.54906e+07
1.66253e+07
1.71119e+07
1.71977e+07
1.81162e+07
1.80846e+07
1.72429e+07
6.69745e+06
6.32859e+06
6.0326e+06
5.73917e+06
5.4317e+06
5.19929e+06
5.0449e+06
4.8879e+06
4.75315e+06
4.65602e+06
4.53261e+06
4.42367e+06
4.36604e+06
4.36895e+06
4.43282e+06
4.36933e+06
4.20552e+06
4.12515e+06
4.11891e+06
4.0131e+06
3.77837e+06
3.60434e+06
3.51346e+06
3.49164e+06
3.41728e+06
3.29978e+06
3.26418e+06
3.32605e+06
3.31729e+06
3.24719e+06
3.23476e+06
3.31124e+06
3.48918e+06
3.55715e+06
3.53018e+06
3.59197e+06
3.73303e+06
3.95114e+06
4.22257e+06
4.50507e+06
4.86977e+06
5.2184e+06
5.56726e+06
5.93609e+06
6.34228e+06
6.76095e+06
7.20511e+06
7.67745e+06
8.11255e+06
8.54335e+06
8.92184e+06
9.24938e+06
9.60339e+06
9.97516e+06
1.03728e+07
1.0862e+07
1.14764e+07
1.19614e+07
1.24355e+07
1.30361e+07
1.3848e+07
1.43562e+07
1.47022e+07
1.54059e+07
1.65396e+07
1.70219e+07
1.70993e+07
1.80258e+07
1.79987e+07
1.71571e+07
1.71898e+07
6.70035e+06
6.33046e+06
6.03339e+06
5.73637e+06
5.42812e+06
5.19641e+06
5.03984e+06
4.87876e+06
4.74037e+06
4.64206e+06
4.51695e+06
4.40566e+06
4.34435e+06
4.34717e+06
4.41136e+06
4.34764e+06
4.17941e+06
4.09631e+06
4.08937e+06
3.98369e+06
3.74571e+06
3.5667e+06
3.47086e+06
3.44201e+06
3.36669e+06
3.24881e+06
3.21029e+06
3.26496e+06
3.25507e+06
3.19081e+06
3.17897e+06
3.25339e+06
3.42695e+06
3.49606e+06
3.47508e+06
3.53772e+06
3.67806e+06
3.89005e+06
4.16205e+06
4.44868e+06
4.81272e+06
5.16016e+06
5.50752e+06
5.87722e+06
6.28878e+06
6.71041e+06
7.1561e+06
7.63e+06
8.06631e+06
8.49784e+06
8.87662e+06
9.20521e+06
9.55952e+06
9.93065e+06
1.03252e+07
1.08104e+07
1.14213e+07
1.19023e+07
1.23697e+07
1.29635e+07
1.3771e+07
1.42734e+07
1.46116e+07
1.53054e+07
1.64332e+07
1.69127e+07
1.69843e+07
1.791e+07
1.78875e+07
1.70536e+07
1.7092e+07
1.63359e+07
1.49943e+07
1.44383e+07
1.42586e+07
1.44218e+07
1.43643e+07
1.40363e+07
1.4606e+07
1.54593e+07
1.5126e+07
1.55771e+07
1.67006e+07
1.6391e+07
1.65122e+07
1.71702e+07
1.68179e+07
1.65797e+07
1.65896e+07
1.61632e+07
1.54889e+07
1.49914e+07
1.39847e+07
1.29102e+07
1.28589e+07
1.23803e+07
1.16206e+07
1.26079e+07
1.33475e+07
1.3941e+07
1.56555e+07
1.75817e+07
1.91475e+07
1.99815e+07
2.11528e+07
2.23095e+07
2.1824e+07
2.14826e+07
2.1574e+07
2.05208e+07
1.88391e+07
1.7209e+07
1.57392e+07
1.40562e+07
1.21716e+07
1.02837e+07
8.84479e+06
8.3163e+06
7.49006e+06
6.59102e+06
6.88144e+06
7.0183e+06
6.99758e+06
7.56301e+06
8.33152e+06
8.87237e+06
8.95357e+06
7.93073e+06
7.13017e+06
6.4491e+06
4.55756e+06
2.80316e+06
1.11265e+06
6.70246e+06
6.33084e+06
6.03137e+06
5.73321e+06
5.42645e+06
5.1911e+06
5.03136e+06
4.86797e+06
4.72901e+06
4.62788e+06
4.49905e+06
4.38493e+06
4.32359e+06
4.32612e+06
4.39012e+06
4.32338e+06
4.15162e+06
4.06901e+06
4.06094e+06
3.95282e+06
3.70937e+06
3.52715e+06
3.42837e+06
3.39065e+06
3.31242e+06
3.19361e+06
3.15516e+06
3.20306e+06
3.19007e+06
3.13035e+06
3.12043e+06
3.1949e+06
3.36346e+06
3.43194e+06
3.41632e+06
3.4814e+06
3.62187e+06
3.82611e+06
4.09738e+06
4.38851e+06
4.75344e+06
5.10008e+06
5.44514e+06
5.81461e+06
6.23165e+06
6.65709e+06
7.10555e+06
7.58096e+06
8.01755e+06
8.44909e+06
8.82893e+06
9.15722e+06
9.51355e+06
9.88303e+06
1.02745e+07
1.07572e+07
1.13646e+07
1.18399e+07
1.23004e+07
1.28886e+07
1.3692e+07
1.41866e+07
1.45173e+07
1.52029e+07
1.6324e+07
1.67984e+07
1.68654e+07
1.77919e+07
1.77723e+07
1.69469e+07
1.69934e+07
1.62509e+07
1.49225e+07
1.43795e+07
1.42097e+07
1.43805e+07
1.43314e+07
1.40055e+07
1.45835e+07
1.54473e+07
1.51073e+07
1.55633e+07
1.67026e+07
1.63867e+07
1.65045e+07
1.71736e+07
1.68235e+07
1.65864e+07
1.66023e+07
1.61891e+07
1.55247e+07
1.50398e+07
1.40482e+07
1.29876e+07
1.29441e+07
1.24807e+07
1.17332e+07
1.26949e+07
1.34118e+07
1.39891e+07
1.56681e+07
1.75634e+07
1.91035e+07
1.99238e+07
2.10775e+07
2.2222e+07
2.17467e+07
2.14138e+07
2.15056e+07
2.04638e+07
1.88023e+07
1.71914e+07
1.57377e+07
1.40821e+07
1.22278e+07
1.03678e+07
8.94449e+06
8.40854e+06
7.57901e+06
6.68153e+06
6.94666e+06
7.05696e+06
7.0187e+06
7.56373e+06
8.30027e+06
8.81814e+06
8.89044e+06
7.8777e+06
7.09226e+06
6.4138e+06
4.53575e+06
2.79185e+06
1.11194e+06
6.70284e+06
6.33121e+06
6.02972e+06
5.72998e+06
5.42339e+06
5.18533e+06
5.02338e+06
4.8572e+06
4.7163e+06
4.61239e+06
4.48107e+06
4.36362e+06
4.30064e+06
4.3037e+06
4.36824e+06
4.29923e+06
4.12287e+06
4.03942e+06
4.0315e+06
3.92234e+06
3.67267e+06
3.48677e+06
3.38476e+06
3.33816e+06
3.25838e+06
3.13733e+06
3.09824e+06
3.13897e+06
3.12347e+06
3.06908e+06
3.06016e+06
3.13433e+06
3.29776e+06
3.36651e+06
3.35635e+06
3.42328e+06
3.56378e+06
3.76057e+06
4.03167e+06
4.32677e+06
4.6921e+06
5.0377e+06
5.38007e+06
5.74937e+06
6.17281e+06
6.60185e+06
7.05267e+06
7.52947e+06
7.96675e+06
8.39875e+06
8.7792e+06
9.10599e+06
9.46513e+06
9.83354e+06
1.02221e+07
1.07013e+07
1.1305e+07
1.17751e+07
1.22282e+07
1.28098e+07
1.36092e+07
1.40966e+07
1.44183e+07
1.50954e+07
1.62101e+07
1.66791e+07
1.67405e+07
1.76681e+07
1.76525e+07
1.68346e+07
1.68905e+07
1.61636e+07
1.48492e+07
1.43189e+07
1.41598e+07
1.43383e+07
1.42963e+07
1.39726e+07
1.45598e+07
1.54325e+07
1.50854e+07
1.55479e+07
1.67029e+07
1.638e+07
1.64952e+07
1.71758e+07
1.68282e+07
1.65925e+07
1.6615e+07
1.62159e+07
1.55624e+07
1.5091e+07
1.41166e+07
1.30716e+07
1.30371e+07
1.25896e+07
1.18529e+07
1.27894e+07
1.34833e+07
1.40425e+07
1.56827e+07
1.75459e+07
1.90577e+07
1.9862e+07
2.09965e+07
2.21279e+07
2.16613e+07
2.13382e+07
2.14308e+07
2.04013e+07
1.87618e+07
1.7172e+07
1.57356e+07
1.41088e+07
1.22872e+07
1.04568e+07
9.05005e+06
8.50734e+06
7.67494e+06
6.77865e+06
7.01717e+06
7.10107e+06
7.04352e+06
7.56479e+06
8.26818e+06
8.76089e+06
8.82198e+06
7.81929e+06
7.04915e+06
6.37464e+06
4.51033e+06
2.78177e+06
1.10948e+06
6.69958e+06
6.32808e+06
6.02582e+06
5.72711e+06
5.42047e+06
5.1777e+06
5.01287e+06
4.84494e+06
4.70375e+06
4.59669e+06
4.46058e+06
4.33963e+06
4.27819e+06
4.28046e+06
4.34567e+06
4.27218e+06
4.09204e+06
4.00997e+06
4.00252e+06
3.88985e+06
3.63234e+06
3.44429e+06
3.34021e+06
3.28318e+06
3.19983e+06
3.07627e+06
3.03937e+06
3.07297e+06
3.05295e+06
3.00302e+06
2.99648e+06
3.07205e+06
3.22968e+06
3.29706e+06
3.29229e+06
3.36269e+06
3.50367e+06
3.69142e+06
3.96123e+06
4.2609e+06
4.62794e+06
4.97284e+06
5.31183e+06
5.68e+06
6.11026e+06
6.54359e+06
6.99776e+06
7.47594e+06
7.91303e+06
8.34511e+06
8.72672e+06
9.05387e+06
9.41431e+06
9.78051e+06
1.01661e+07
1.06429e+07
1.12428e+07
1.17061e+07
1.21516e+07
1.27276e+07
1.35226e+07
1.40011e+07
1.43141e+07
1.49836e+07
1.60904e+07
1.65522e+07
1.66095e+07
1.75386e+07
1.75256e+07
1.67166e+07
1.67833e+07
1.60717e+07
1.47723e+07
1.42564e+07
1.41071e+07
1.42921e+07
1.42576e+07
1.39356e+07
1.45304e+07
1.54121e+07
1.50577e+07
1.55267e+07
1.66989e+07
1.63693e+07
1.64819e+07
1.71762e+07
1.68315e+07
1.65972e+07
1.66279e+07
1.62437e+07
1.56017e+07
1.51457e+07
1.41894e+07
1.31618e+07
1.31376e+07
1.27047e+07
1.19804e+07
1.28915e+07
1.35604e+07
1.41004e+07
1.56999e+07
1.7528e+07
1.90096e+07
1.97958e+07
2.09086e+07
2.20263e+07
2.15689e+07
2.12544e+07
2.13487e+07
2.03336e+07
1.87173e+07
1.71489e+07
1.57328e+07
1.41369e+07
1.23478e+07
1.05492e+07
9.16123e+06
8.61155e+06
7.77621e+06
6.88131e+06
7.09296e+06
7.14912e+06
7.07177e+06
7.56818e+06
8.23501e+06
8.70056e+06
8.74912e+06
7.75623e+06
6.99956e+06
6.33e+06
4.48139e+06
2.77053e+06
1.10741e+06
6.6978e+06
6.32533e+06
6.02291e+06
5.7235e+06
5.41489e+06
5.16922e+06
5.00342e+06
4.83277e+06
4.68931e+06
4.57941e+06
4.44032e+06
4.31625e+06
4.2539e+06
4.2557e+06
4.32229e+06
4.24567e+06
4.06072e+06
3.97804e+06
3.9718e+06
3.85742e+06
3.59269e+06
3.40168e+06
3.29356e+06
3.2272e+06
3.14187e+06
3.01564e+06
2.97879e+06
3.00426e+06
2.98128e+06
2.93723e+06
2.93219e+06
3.00738e+06
3.1591e+06
3.22659e+06
3.22781e+06
3.30056e+06
3.44157e+06
3.61972e+06
3.88963e+06
4.19408e+06
4.56178e+06
4.90543e+06
5.24064e+06
5.60842e+06
6.04619e+06
6.48349e+06
6.94018e+06
7.41949e+06
7.85712e+06
8.29003e+06
8.67225e+06
8.99958e+06
9.36079e+06
9.72567e+06
1.01085e+07
1.05815e+07
1.11773e+07
1.16346e+07
1.20722e+07
1.26409e+07
1.34319e+07
1.39025e+07
1.42052e+07
1.48662e+07
1.59658e+07
1.64203e+07
1.64722e+07
1.74027e+07
1.73944e+07
1.65934e+07
1.66715e+07
1.59779e+07
1.46942e+07
1.4192e+07
1.40534e+07
1.42451e+07
1.42159e+07
1.38955e+07
1.4499e+07
1.53874e+07
1.50252e+07
1.55031e+07
1.6692e+07
1.6355e+07
1.64664e+07
1.71749e+07
1.68333e+07
1.66012e+07
1.66404e+07
1.62725e+07
1.56431e+07
1.52035e+07
1.42683e+07
1.32597e+07
1.32468e+07
1.28302e+07
1.21169e+07
1.30023e+07
1.36459e+07
1.41647e+07
1.57204e+07
1.7511e+07
1.89592e+07
1.97246e+07
2.08141e+07
2.19162e+07
2.14663e+07
2.11623e+07
2.1259e+07
2.02592e+07
1.86683e+07
1.71237e+07
1.57295e+07
1.41657e+07
1.24123e+07
1.06468e+07
9.27903e+06
8.72328e+06
7.88571e+06
6.99163e+06
7.1752e+06
7.20338e+06
7.10435e+06
7.56984e+06
8.20092e+06
8.63692e+06
8.67006e+06
7.6864e+06
6.94381e+06
6.2798e+06
4.44772e+06
2.75908e+06
1.1048e+06
6.69438e+06
6.31857e+06
6.018e+06
5.72012e+06
5.40894e+06
5.16034e+06
4.99152e+06
4.81913e+06
4.67445e+06
4.56138e+06
4.41746e+06
4.29016e+06
4.22874e+06
4.22998e+06
4.2979e+06
4.21642e+06
4.02706e+06
3.94612e+06
3.94136e+06
3.8231e+06
3.54967e+06
3.35708e+06
3.2451e+06
3.16873e+06
3.07952e+06
2.94775e+06
2.91578e+06
2.93301e+06
2.90545e+06
2.86671e+06
2.86411e+06
2.94036e+06
3.08566e+06
3.15187e+06
3.1593e+06
3.23564e+06
3.37726e+06
3.54458e+06
3.81331e+06
4.12309e+06
4.49256e+06
4.83507e+06
5.16583e+06
5.53202e+06
5.97835e+06
6.42024e+06
6.88018e+06
7.36057e+06
7.79796e+06
8.23161e+06
8.6148e+06
8.94374e+06
9.30444e+06
9.66705e+06
1.0047e+07
1.05172e+07
1.11086e+07
1.15586e+07
1.19882e+07
1.25502e+07
1.33369e+07
1.37982e+07
1.40902e+07
1.47438e+07
1.58347e+07
1.62802e+07
1.63274e+07
1.726e+07
1.72556e+07
1.64631e+07
1.65544e+07
1.58791e+07
1.46126e+07
1.41253e+07
1.39968e+07
1.41942e+07
1.41703e+07
1.38508e+07
1.44616e+07
1.53562e+07
1.49857e+07
1.54729e+07
1.66798e+07
1.63358e+07
1.64462e+07
1.71713e+07
1.68328e+07
1.66035e+07
1.6653e+07
1.63022e+07
1.56864e+07
1.52652e+07
1.43521e+07
1.33646e+07
1.3364e+07
1.2963e+07
1.22608e+07
1.31213e+07
1.3738e+07
1.42342e+07
1.57437e+07
1.74937e+07
1.89063e+07
1.96484e+07
2.07122e+07
2.1799e+07
2.13558e+07
2.10612e+07
2.11612e+07
2.01787e+07
1.86148e+07
1.70948e+07
1.57256e+07
1.41957e+07
1.24782e+07
1.0748e+07
9.40264e+06
8.84085e+06
8.00106e+06
7.10802e+06
7.26333e+06
7.26235e+06
7.14035e+06
7.5736e+06
8.16569e+06
8.57018e+06
8.58633e+06
7.61133e+06
6.88116e+06
6.22447e+06
4.40967e+06
2.74375e+06
1.09693e+06
6.68916e+06
6.31469e+06
6.01499e+06
5.71402e+06
5.39777e+06
5.15122e+06
4.98133e+06
4.80516e+06
4.65591e+06
4.54132e+06
4.39585e+06
4.26804e+06
4.20244e+06
4.20374e+06
4.27432e+06
4.1905e+06
3.99476e+06
3.91055e+06
3.90914e+06
3.7915e+06
3.50985e+06
3.31202e+06
3.1922e+06
3.10857e+06
3.01991e+06
2.8925e+06
2.85091e+06
2.85797e+06
2.82902e+06
2.79837e+06
2.79617e+06
2.87033e+06
3.0098e+06
3.07711e+06
3.09197e+06
3.16888e+06
3.30965e+06
3.46333e+06
3.73693e+06
4.05179e+06
4.42086e+06
4.7609e+06
5.0876e+06
5.45373e+06
5.90956e+06
6.35537e+06
6.81684e+06
7.29826e+06
7.73668e+06
8.17251e+06
8.5555e+06
8.88535e+06
9.24532e+06
9.60721e+06
9.98467e+06
1.04497e+07
1.10369e+07
1.14813e+07
1.19021e+07
1.24554e+07
1.32388e+07
1.36929e+07
1.39718e+07
1.46172e+07
1.57016e+07
1.6138e+07
1.61784e+07
1.71142e+07
1.71171e+07
1.63305e+07
1.64358e+07
1.57827e+07
1.4533e+07
1.40585e+07
1.39396e+07
1.41429e+07
1.41198e+07
1.37983e+07
1.44181e+07
1.53154e+07
1.49338e+07
1.5434e+07
1.66599e+07
1.63077e+07
1.64195e+07
1.71634e+07
1.68291e+07
1.66034e+07
1.66646e+07
1.63331e+07
1.57323e+07
1.53316e+07
1.44449e+07
1.34804e+07
1.34935e+07
1.31113e+07
1.24178e+07
1.32522e+07
1.38424e+07
1.43126e+07
1.57708e+07
1.74774e+07
1.88492e+07
1.95639e+07
2.06008e+07
2.16694e+07
2.12308e+07
2.09474e+07
2.10527e+07
2.00891e+07
1.85549e+07
1.70628e+07
1.57207e+07
1.42261e+07
1.25492e+07
1.0856e+07
9.535e+06
8.96871e+06
8.12786e+06
7.23465e+06
7.36092e+06
7.33059e+06
7.18258e+06
7.57743e+06
8.12895e+06
8.49843e+06
8.49335e+06
7.52513e+06
6.80893e+06
6.15961e+06
4.36273e+06
2.72181e+06
1.08772e+06
6.68689e+06
6.31577e+06
6.01538e+06
5.71012e+06
5.39114e+06
5.1467e+06
4.97376e+06
4.79216e+06
4.6376e+06
4.51881e+06
4.37107e+06
4.24064e+06
4.16947e+06
4.16586e+06
4.23745e+06
4.15233e+06
3.95263e+06
3.86631e+06
3.86793e+06
3.75121e+06
3.46419e+06
3.26354e+06
3.13731e+06
3.0471e+06
2.96073e+06
2.83566e+06
2.78481e+06
2.7799e+06
2.74923e+06
2.72603e+06
2.72382e+06
2.7953e+06
2.92698e+06
2.99555e+06
3.01953e+06
3.09855e+06
3.24041e+06
3.39582e+06
3.66216e+06
3.98033e+06
4.34804e+06
4.68531e+06
5.00687e+06
5.37345e+06
5.83832e+06
6.28793e+06
6.75071e+06
7.23185e+06
7.67094e+06
8.10932e+06
8.49234e+06
8.82241e+06
9.18076e+06
9.54173e+06
9.91689e+06
1.03761e+07
1.09561e+07
1.13941e+07
1.18064e+07
1.23486e+07
1.31237e+07
1.35701e+07
1.3838e+07
1.44686e+07
1.55396e+07
1.59689e+07
1.60049e+07
1.69318e+07
1.69427e+07
1.61725e+07
1.62843e+07
1.56536e+07
1.44329e+07
1.39766e+07
1.38759e+07
1.40872e+07
1.40747e+07
1.37677e+07
1.43952e+07
1.52951e+07
1.49151e+07
1.54268e+07
1.66603e+07
1.63026e+07
1.64138e+07
1.71678e+07
1.68359e+07
1.66126e+07
1.66811e+07
1.63649e+07
1.57797e+07
1.53941e+07
1.45329e+07
1.35922e+07
1.36107e+07
1.32476e+07
1.25722e+07
1.33727e+07
1.39362e+07
1.43871e+07
1.5799e+07
1.74603e+07
1.87976e+07
1.94917e+07
2.04993e+07
2.15434e+07
2.11193e+07
2.08468e+07
2.09499e+07
2.00038e+07
1.84988e+07
1.70351e+07
1.57166e+07
1.42553e+07
1.26191e+07
1.09625e+07
9.66119e+06
9.08843e+06
8.24778e+06
7.35673e+06
7.45011e+06
7.39106e+06
7.22235e+06
7.58196e+06
8.0931e+06
8.43171e+06
8.40841e+06
7.45372e+06
6.74974e+06
6.10009e+06
4.32752e+06
2.7102e+06
1.08176e+06
6.68343e+06
6.31149e+06
6.01166e+06
5.7054e+06
5.38748e+06
5.13987e+06
4.96109e+06
4.77627e+06
4.6199e+06
4.49604e+06
4.34255e+06
4.20948e+06
4.13673e+06
4.13198e+06
4.20038e+06
4.11038e+06
3.90887e+06
3.8239e+06
3.82894e+06
3.70887e+06
3.41448e+06
3.21373e+06
3.08754e+06
2.98336e+06
2.89578e+06
2.77226e+06
2.71724e+06
2.69978e+06
2.6648e+06
2.64701e+06
2.64702e+06
2.71931e+06
2.84207e+06
2.90922e+06
2.94205e+06
3.02577e+06
3.17136e+06
3.32364e+06
3.58153e+06
3.90349e+06
4.27211e+06
4.60711e+06
4.92235e+06
5.28642e+06
5.76188e+06
6.2168e+06
6.68239e+06
7.16325e+06
7.60169e+06
8.04185e+06
8.42586e+06
8.75571e+06
9.11368e+06
9.47183e+06
9.84515e+06
1.03002e+07
1.08729e+07
1.13022e+07
1.1706e+07
1.22385e+07
1.30057e+07
1.34417e+07
1.36989e+07
1.4317e+07
1.53737e+07
1.57926e+07
1.58261e+07
1.6746e+07
1.6763e+07
1.60097e+07
1.61316e+07
1.55227e+07
1.4331e+07
1.38948e+07
1.38095e+07
1.40269e+07
1.40248e+07
1.3729e+07
1.43612e+07
1.52632e+07
1.48828e+07
1.54053e+07
1.66495e+07
1.62873e+07
1.63982e+07
1.71669e+07
1.68386e+07
1.66178e+07
1.66972e+07
1.63977e+07
1.58294e+07
1.54625e+07
1.46279e+07
1.37137e+07
1.37403e+07
1.33943e+07
1.27385e+07
1.35062e+07
1.40398e+07
1.4469e+07
1.58307e+07
1.7443e+07
1.87416e+07
1.94107e+07
2.03863e+07
2.14061e+07
2.09937e+07
2.07315e+07
2.08355e+07
1.991e+07
1.84358e+07
1.70012e+07
1.57116e+07
1.42865e+07
1.2691e+07
1.10739e+07
9.79634e+06
9.21683e+06
8.37551e+06
7.48757e+06
7.54854e+06
7.45857e+06
7.2667e+06
7.58782e+06
8.05542e+06
8.35972e+06
8.31626e+06
7.37297e+06
6.67926e+06
6.03166e+06
4.28484e+06
2.69251e+06
1.07416e+06
6.6794e+06
6.30823e+06
6.00986e+06
5.70026e+06
5.38045e+06
5.13423e+06
4.94965e+06
4.76082e+06
4.60065e+06
4.47167e+06
4.31449e+06
4.17857e+06
4.10266e+06
4.094e+06
4.1618e+06
4.06828e+06
3.86371e+06
3.77785e+06
3.78658e+06
3.66573e+06
3.36422e+06
3.16281e+06
3.03439e+06
2.91805e+06
2.83298e+06
2.71108e+06
2.64911e+06
2.61748e+06
2.5805e+06
2.56961e+06
2.56996e+06
2.64161e+06
2.75474e+06
2.82248e+06
2.86443e+06
2.95057e+06
3.10014e+06
3.25073e+06
3.50148e+06
3.82621e+06
4.19479e+06
4.527e+06
4.83524e+06
5.19338e+06
5.68452e+06
6.14403e+06
6.61122e+06
7.09125e+06
7.53e+06
7.97277e+06
8.35704e+06
8.68524e+06
9.04321e+06
9.39962e+06
9.77127e+06
1.02206e+07
1.07856e+07
1.1207e+07
1.16018e+07
1.21229e+07
1.28822e+07
1.33089e+07
1.35538e+07
1.41587e+07
1.52012e+07
1.56094e+07