/*--------------------------------*- C++ -*----------------------------------*\
| =========                 |                                                 |
| \\      /  F ield         | OpenFOAM: The Open Source CFD Toolbox           |
|  \\    /   O peration     | Version:  v2012                                 |
|   \\  /    A nd           | Website:  www.openfoam.com                      |
|    \\/     M anipulation  |                                                 |
\*---------------------------------------------------------------------------*/
FoamFile
{
    version     2.0;
    format      ascii;
    class       volVectorField;
    location    "1e-06";
    object      U;
}
// * * * * * * * * * * * * * * * * * * * * * * * * * * * * * * * * * * * * * //

dimensions      [0 1 -1 0 0 0 0];


internalField   nonuniform List<vector> 
10098
(
(0.421028 0.0689044 -5.14605e-27)
(0.39068 0.0739661 7.49109e-29)
(0.347812 0.0875494 0)
(0.303323 0.0887117 -3.73084e-27)
(0.238725 0.0807573 -3.27726e-29)
(0.204837 0.0837743 6.44317e-27)
(0.160177 0.0646947 -6.18044e-27)
(0.141362 0.0413128 6.25666e-29)
(0.110944 0.0116255 -9.10182e-27)
(0.0995253 -0.020203 1.06591e-26)
(0.097836 -0.0256361 0)
(0.11213 -0.0617281 1.23261e-26)
(0.143745 -0.0987746 1.82981e-26)
(0.16438 -0.127239 0)
(0.219367 -0.152401 0)
(0.255097 -0.15783 -1.29485e-28)
(0.328899 -0.178458 9.90908e-26)
(0.377496 -0.193592 4.68402e-26)
(0.438125 -0.204313 3.31783e-28)
(0.472703 -0.207786 1.77282e-28)
(0.547092 -0.219312 2.74035e-28)
(0.612202 -0.232614 -7.20311e-26)
(0.650756 -0.242984 -6.72298e-26)
(0.713461 -0.255443 -1.00541e-27)
(0.746944 -0.25807 -3.25707e-28)
(0.826496 -0.285203 0)
(0.892413 -0.308107 1.5846e-28)
(0.969466 -0.322175 7.92677e-26)
(1.00912 -0.326829 -1.49771e-28)
(1.10443 -0.349387 -5.4565e-26)
(1.19434 -0.366047 -1.51177e-27)
(1.27008 -0.370112 -3.18835e-26)
(1.3602 -0.367224 -8.70762e-28)
(1.40479 -0.369065 -3.96501e-26)
(1.50447 -0.365315 7.07868e-28)
(1.58293 -0.35247 7.69827e-28)
(1.62804 -0.325095 0)
(1.66848 -0.298013 0)
(1.68137 -0.291566 0)
(1.72284 -0.26466 -3.19318e-26)
(1.74477 -0.239637 -1.30348e-27)
(1.75457 -0.215286 -2.85584e-26)
(1.75634 -0.193648 -5.44379e-28)
(1.75463 -0.189563 5.18005e-28)
(1.75683 -0.172302 4.75389e-28)
(1.75233 -0.156344 -1.6835e-26)
(1.7362 -0.14294 -5.19747e-26)
(1.70338 -0.131093 -5.25691e-26)
(1.69488 -0.130384 -7.53227e-26)
(1.6803 -0.119878 9.6621e-26)
(1.67018 -0.11551 1.1485e-25)
(1.64503 -0.120184 1.62325e-25)
(1.62779 -0.132309 -4.87894e-29)
(1.62036 -0.130568 2.08322e-25)
(1.6143 -0.138648 2.20798e-25)
(1.61922 -0.156762 0)
(1.62216 -0.178266 0)
(1.63081 -0.1811 -1.97194e-25)
(1.66595 -0.206509 -8.49978e-32)
(1.69406 -0.240704 -8.28707e-26)
(1.771 -0.288368 7.08963e-28)
(1.81435 -0.29478 1.92434e-26)
(1.93091 -0.343812 6.80785e-26)
(2.0255 -0.397052 0)
(2.20274 -0.454939 0)
(2.3025 -0.466956 7.17599e-28)
(2.51516 -0.532018 3.08773e-28)
(2.76038 -0.598293 5.94231e-29)
(2.90164 -0.616083 5.71985e-28)
(0.528743 0.0630438 -4.8172e-27)
(0.496029 0.0680159 7.52508e-29)
(0.442333 0.082789 7.30793e-29)
(0.393877 0.0844906 -3.08544e-29)
(0.343341 0.0749373 -3.25117e-29)
(0.312293 0.0772397 6.16086e-27)
(0.260567 0.0575233 -5.87729e-27)
(0.227047 0.0336875 0)
(0.205365 0.0012675 1.0109e-28)
(0.201433 -0.0343189 5.27895e-33)
(0.198572 -0.0403928 -5.44591e-33)
(0.202749 -0.0772556 2.24745e-28)
(0.225044 -0.114479 1.72601e-26)
(0.261053 -0.147864 2.65188e-26)
(0.320139 -0.17572 -2.17644e-28)
(0.351558 -0.180407 -2.5669e-28)
(0.412536 -0.198198 9.65528e-26)
(0.46581 -0.214472 3.02906e-28)
(0.537172 -0.228101 0)
(0.572612 -0.231954 -6.42436e-26)
(0.639973 -0.241621 -2.7257e-28)
(0.691914 -0.251035 -7.53574e-26)
(0.74305 -0.264363 -6.4388e-26)
(0.808973 -0.278643 5.01945e-28)
(0.839462 -0.280925 3.24655e-28)
(0.906506 -0.305798 0)
(0.967052 -0.327904 1.13333e-25)
(1.05408 -0.345856 1.56526e-25)
(1.09529 -0.351454 -6.6327e-26)
(1.18416 -0.37339 0)
(1.26069 -0.386141 0)
(1.34236 -0.391915 -5.70922e-26)
(1.43755 -0.390577 8.74095e-28)
(1.48163 -0.392271 -3.527e-26)
(1.57489 -0.386169 7.14425e-28)
(1.64405 -0.368701 0)
(1.70143 -0.342336 0)
(1.74497 -0.313858 0)
(1.75566 -0.306606 -6.57748e-28)
(1.78796 -0.276255 -6.60019e-28)
(1.80607 -0.248979 0)
(1.82495 -0.224925 -5.80945e-28)
(1.83116 -0.202577 -2.38218e-32)
(1.82964 -0.198245 1.5903e-32)
(1.8288 -0.179991 -4.79185e-28)
(1.8162 -0.162318 -1.46692e-26)
(1.80444 -0.148395 -3.8876e-27)
(1.78202 -0.137178 0)
(1.77565 -0.136663 2.96924e-28)
(1.75898 -0.125904 4.20231e-29)
(1.73843 -0.120422 1.95731e-25)
(1.72392 -0.126107 1.63504e-25)
(1.71414 -0.139821 0)
(1.70645 -0.138447 -3.1708e-29)
(1.69249 -0.146329 0)
(1.69792 -0.165253 0)
(1.71279 -0.18978 -5.00174e-28)
(1.72205 -0.193013 -6.6216e-28)
(1.7487 -0.218539 -1.4547e-25)
(1.7792 -0.254887 -6.84763e-28)
(1.86631 -0.307315 -7.09547e-28)
(1.90908 -0.314199 1.55676e-28)
(2.01029 -0.361519 -7.93413e-28)
(2.11911 -0.421218 1.06764e-25)
(2.30128 -0.48373 0)
(2.39667 -0.494794 0)
(2.5979 -0.558271 -1.54546e-25)
(2.8605 -0.63362 1.11891e-29)
(3.00202 -0.652135 1.76289e-25)
(0.538342 0.0632178 6.8597e-31)
(0.507862 0.0675207 7.46144e-29)
(0.466984 0.0814764 -4.56994e-27)
(0.423399 0.0834534 4.19125e-27)
(0.356074 0.0748588 0)
(0.321339 0.0771869 -8.19865e-29)
(0.275794 0.0560632 6.66124e-27)
(0.256934 0.031253 9.22034e-27)
(0.224208 9.46442e-05 1.00711e-28)
(0.210324 -0.0346967 -1.09307e-26)
(0.208178 -0.0412572 8.25278e-29)
(0.222548 -0.0803198 1.11236e-28)
(0.255259 -0.119469 -1.30547e-28)
(0.273831 -0.149433 -5.07537e-29)
(0.327066 -0.176714 -3.02203e-26)
(0.363138 -0.182724 4.13454e-26)
(0.438555 -0.203666 4.93116e-26)
(0.486819 -0.2183 0)
(0.546119 -0.229147 -5.44417e-26)
(0.580378 -0.23295 2.32711e-28)
(0.655557 -0.244713 -6.62282e-26)
(0.72154 -0.256886 0)
(0.756955 -0.265902 0)
(0.816024 -0.278736 -4.99758e-28)
(0.848245 -0.281751 -1.7206e-25)
(0.92612 -0.309669 -2.16708e-32)
(0.990071 -0.332396 6.0753e-26)
(1.06276 -0.346234 7.95713e-26)
(1.10063 -0.351179 6.90501e-26)
(1.19389 -0.375088 -6.77594e-28)
(1.28303 -0.391549 -1.52081e-27)
(1.35571 -0.394241 -5.86164e-26)
(1.44334 -0.390486 -8.73716e-28)
(1.48714 -0.392332 0)
(1.58685 -0.388665 7.17268e-28)
(1.66637 -0.37354 1.55597e-27)
(1.71007 -0.342715 7.67968e-28)
(1.74961 -0.31319 0)
(1.76238 -0.306594 0)
(1.8042 -0.27823 0)
(1.82624 -0.251182 0)
(1.83513 -0.225077 0)
(1.83692 -0.202118 0)
(1.83504 -0.197807 5.20669e-28)
(1.83806 -0.180279 -1.50145e-26)
(1.83553 -0.163557 -5.23488e-33)
(1.8205 -0.148874 4.08375e-28)
(1.78873 -0.136875 -2.61903e-26)
(1.78054 -0.136355 2.98787e-28)
(1.7678 -0.12615 -1.97193e-25)
(1.76023 -0.121628 1.05985e-25)
(1.73628 -0.12623 -1.68558e-25)
(1.71944 -0.139264 0)
(1.71273 -0.138155 -4.43045e-25)
(1.70917 -0.147141 2.26145e-25)
(1.71511 -0.166004 -2.44585e-25)
(1.71862 -0.189132 2.2793e-25)
(1.72785 -0.192353 -2.13773e-25)
(1.76517 -0.219573 -3.00107e-25)
(1.79448 -0.25562 0)
(1.8709 -0.306729 0)
(1.91529 -0.313584 -1.15055e-26)
(2.03406 -0.364924 6.32864e-26)
(2.12767 -0.420718 1.11003e-25)
(2.30482 -0.482189 4.3081e-28)
(2.40537 -0.494849 -1.73519e-25)
(2.61927 -0.562534 -1.59171e-25)
(2.86429 -0.632191 -1.46e-25)
(3.00644 -0.651358 6.73411e-28)
(0.654527 0.056488 4.42882e-27)
(0.6213 0.0608115 4.07547e-27)
(0.569195 0.0757837 -5.10862e-27)
(0.521867 0.0785503 0)
(0.469928 0.0683452 0)
(0.438118 0.0699294 0)
(0.38515 0.0476733 7.70139e-27)
(0.350332 0.0229119 9.18947e-27)
(0.327357 -0.0110634 9.99038e-29)
(0.321617 -0.0498621 -2.20772e-26)
(0.318224 -0.0572013 0)
(0.321907 -0.0972456 -1.09594e-28)
(0.344028 -0.136263 -1.29157e-28)
(0.379323 -0.171367 -2.9426e-26)
(0.437209 -0.201587 -3.22559e-26)
(0.468511 -0.206909 4.31005e-26)
(0.530021 -0.224747 5.10409e-26)
(0.583204 -0.240521 -3.0006e-28)
(0.65388 -0.254405 -5.68756e-26)
(0.68905 -0.258678 -6.74054e-26)
(0.75659 -0.268391 -1.39162e-25)
(0.807715 -0.276141 7.84818e-26)
(0.857603 -0.288342 6.98023e-26)
(0.920337 -0.30304 -4.98078e-28)
(0.949293 -0.305768 -8.91471e-26)
(1.01365 -0.331285 9.60837e-28)
(1.07158 -0.353166 6.63905e-28)
(1.1549 -0.370964 8.32449e-26)
(1.19436 -0.376969 7.3881e-26)
(1.28045 -0.400187 -5.4209e-26)
(1.35495 -0.412509 7.61198e-28)
(1.43389 -0.417009 -2.83979e-26)
(1.52671 -0.414975 -2.57439e-26)
(1.5699 -0.41673 3.53485e-26)
(1.66233 -0.410629 0)
(1.73129 -0.390533 0)
(1.788 -0.360815 0)
(1.83074 -0.329824 -4.78982e-26)
(1.84114 -0.322448 1.32072e-27)
(1.87325 -0.290416 1.32061e-27)
(1.89106 -0.261043 -2.08506e-26)
(1.90937 -0.235195 0)
(1.91567 -0.211741 1.73435e-26)
(1.91395 -0.207225 1.04196e-27)
(1.91363 -0.18865 1.42608e-28)
(1.90267 -0.170057 -1.79031e-26)
(1.89206 -0.154811 0)
(1.8711 -0.143422 -2.81095e-26)
(1.86521 -0.143162 -6.02088e-28)
(1.85027 -0.132737 -1.02565e-25)
(1.83187 -0.127089 -1.30156e-28)
(1.81903 -0.132873 -1.72078e-25)
(1.81014 -0.14739 1.98148e-25)
(1.80317 -0.146683 -4.57267e-25)
(1.79136 -0.15546 2.34787e-25)
(1.79788 -0.175128 7.1588e-29)
(1.81391 -0.20137 2.34967e-25)
(1.82378 -0.20506 -2.19513e-25)
(1.85236 -0.232372 -1.5333e-25)
(1.88423 -0.270339 0)
(1.97326 -0.32328 -5.19401e-26)
(2.01531 -0.334337 -5.52705e-27)
(2.11798 -0.383561 6.89228e-26)
(2.22645 -0.446028 0)
(2.40887 -0.512396 0)
(2.50474 -0.524078 -1.83083e-25)
(2.70699 -0.590096 0)
(2.97196 -0.669614 1.5448e-25)
(3.11467 -0.68965 -1.87003e-25)
(0.664287 0.0571959 2.1701e-30)
(0.634296 0.0605455 5.90209e-27)
(0.596705 0.0742452 0)
(0.554859 0.0779055 -4.89059e-27)
(0.483495 0.0691972 3.03208e-29)
(0.447279 0.0705895 1.62542e-28)
(0.401674 0.046802 -9.73283e-27)
(0.384754 0.020203 6.00802e-29)
(0.348111 -0.0121091 1.04954e-26)
(0.330815 -0.0502198 -1.06059e-26)
(0.328203 -0.0581703 -1.26165e-26)
(0.343535 -0.100665 -1.32477e-26)
(0.377923 -0.141896 -1.29407e-28)
(0.392401 -0.173257 1.33757e-26)
(0.443921 -0.202975 2.69353e-26)
(0.480918 -0.20994 -2.47909e-28)
(0.559132 -0.231133 4.86382e-26)
(0.606282 -0.245035 -2.99833e-28)
(0.663079 -0.255886 0)
(0.696958 -0.260242 -6.17439e-26)
(0.773447 -0.272274 7.20474e-29)
(0.842086 -0.283075 7.56777e-26)
(0.872634 -0.290256 6.65695e-26)
(0.927435 -0.303551 0)
(0.958491 -0.30713 0)
(1.03526 -0.335875 -4.82579e-28)
(1.09727 -0.358448 -2.05986e-32)
(1.16405 -0.371812 1.56172e-25)
(1.19961 -0.377229 -2.13357e-32)
(1.29078 -0.402666 -4.67262e-26)
(1.38015 -0.418767 7.64364e-28)
(1.44838 -0.419918 1.71106e-27)
(1.53256 -0.415415 1.98043e-27)
(1.5755 -0.417443 2.45376e-26)
(1.67518 -0.413897 1.22212e-26)
(1.75631 -0.396163 2.00058e-26)
(1.79717 -0.361534 -2.87333e-27)
(1.83544 -0.329385 -7.65006e-26)
(1.8481 -0.322731 0)
(1.89072 -0.292777 -5.19897e-28)
(1.91316 -0.263554 1.11063e-28)
(1.92023 -0.23546 0)
(1.92156 -0.211253 1.19361e-26)
(1.91943 -0.206854 -1.043e-27)
(1.92341 -0.18902 5.9845e-27)
(1.92362 -0.171489 -2.00109e-26)
(1.90924 -0.155327 0)
(1.878 -0.143071 0)
(1.8701 -0.14282 0)
(1.85955 -0.133035 1.06005e-25)
(1.85577 -0.128466 -2.67942e-28)
(1.83213 -0.133111 -8.4444e-29)
(1.81543 -0.146715 6.50981e-29)
(1.80957 -0.146417 -2.37649e-25)
(1.80916 -0.156448 0)
(1.81625 -0.176044 2.63651e-25)
(1.81975 -0.200838 -5.00546e-28)
(1.82961 -0.204612 2.32588e-25)
(1.86994 -0.2338 1.00526e-31)
(1.90071 -0.273465 -1.1622e-25)
(2.08009 -0.340709 1.41277e-28)
(2.02161 -0.332399 3.01823e-27)
(2.1438 -0.387723 6.07314e-26)
(2.23536 -0.446289 -4.77313e-28)
(2.41215 -0.511861 -4.33295e-28)
(2.51385 -0.52524 0)
(2.73016 -0.595554 -1.49009e-25)
(2.97563 -0.669456 1.21276e-25)
(3.11904 -0.690368 -5.66149e-28)
(3.4372 -0.753603 0)
(0.792078 0.0471769 5.47771e-27)
(0.75968 0.0500739 2.18727e-27)
(0.709847 0.0654167 7.52057e-29)
(0.662698 0.070803 -5.12397e-27)
(0.609521 0.059854 -1.00409e-26)
(0.576606 0.059601 -6.73192e-27)
(0.523031 0.0351072 -7.01255e-27)
(0.486623 0.0103129 0)
(0.462867 -0.0243205 1.18381e-26)
(0.45503 -0.0663656 9.90487e-29)
(0.450956 -0.0754611 -1.26306e-26)
(0.454413 -0.118511 1.22456e-28)
(0.475752 -0.15867 1.27977e-28)
(0.510241 -0.194137 1.77648e-26)
(0.566904 -0.226831 3.36241e-26)
(0.598538 -0.233706 -9.8052e-33)
(0.660339 -0.252033 5.311e-26)
(0.713337 -0.266067 5.51288e-26)
(0.782873 -0.279574 -3.2574e-28)
(0.817675 -0.284724 0)
(0.885464 -0.295441 -7.32367e-29)
(0.934865 -0.301457 0)
(0.984638 -0.311124 4.49458e-28)
(1.04394 -0.326161 -9.55049e-26)
(1.07126 -0.329827 0)
(1.13285 -0.356704 8.05474e-26)
(1.18778 -0.377604 -1.32333e-27)
(1.26693 -0.394031 8.90443e-26)
(1.30419 -0.400517 0)
(1.38718 -0.425901 -5.53953e-26)
(1.45906 -0.438405 -1.5316e-27)
(1.5352 -0.44025 3.05846e-26)
(1.62474 -0.437101 5.90786e-26)
(1.66677 -0.439272 2.92469e-27)
(1.75799 -0.43434 1.77037e-26)
(1.8258 -0.411931 4.24541e-26)
(1.88218 -0.377949 -6.10927e-27)
(1.92366 -0.344924 -4.31799e-26)
(1.93323 -0.337814 3.74428e-26)
(1.96487 -0.304971 5.3444e-28)
(1.98215 -0.2729 3.73809e-26)
(1.99986 -0.245031 1.16529e-27)
(2.00583 -0.220633 -1.27408e-26)
(2.00373 -0.216175 0)
(2.00387 -0.19781 8.29186e-28)
(1.99439 -0.178426 -8.9089e-28)
(1.98508 -0.161685 -2.10407e-26)
(1.96553 -0.150024 -7.11259e-28)
(1.96005 -0.15019 7.66452e-26)
(1.9471 -0.140448 2.26049e-25)
(1.93086 -0.13433 -1.29684e-25)
(1.92008 -0.138663 1.91649e-25)
(1.91205 -0.155024 -2.15738e-25)
(1.90582 -0.155334 6.11475e-28)
(1.89645 -0.164996 5.7111e-28)
(1.90415 -0.184883 0)
(1.92133 -0.212274 -1.00195e-27)
(1.93184 -0.216679 4.69255e-25)
(1.96261 -0.245876 1.65356e-25)
(1.99639 -0.288957 1.41535e-28)
(2.08559 -0.339969 1.0615e-25)
(2.12819 -0.348544 0)
(2.23281 -0.404445 1.4893e-25)
(2.34083 -0.467461 0)
(2.52367 -0.536787 0)
(2.62021 -0.549859 0)
(2.82484 -0.619401 -1.73873e-25)
(3.09413 -0.700135 1.62129e-25)
(3.23856 -0.722365 1.85696e-25)
(3.53907 -0.78284 2.28258e-28)
(0.929056 0.0354855 6.07726e-27)
(0.895108 0.0399491 -8.43971e-29)
(0.829559 0.0573826 0)
(0.78033 0.0610723 -4.69877e-27)
(0.743902 0.0476276 -7.58414e-27)
(0.716664 0.0481461 -5.28358e-27)
(0.654381 0.0253244 0)
(0.59665 -7.74487e-05 5.80775e-29)
(0.586308 -0.0393789 4.93292e-33)
(0.58936 -0.0844996 -1.19181e-26)
(0.584768 -0.0928401 -1.44771e-26)
(0.574272 -0.135579 3.15643e-26)
(0.585764 -0.177505 1.2533e-28)
(0.637149 -0.218155 -1.90584e-26)
(0.700446 -0.252289 -2.12208e-28)
(0.726272 -0.257204 0)
(0.768201 -0.27284 1.18345e-25)
(0.829029 -0.289952 -6.71313e-28)
(0.91186 -0.305613 -6.78411e-26)
(0.948543 -0.310137 7.73019e-26)
(1.00614 -0.317776 -8.13831e-26)
(1.03825 -0.321674 -7.12136e-28)
(1.10404 -0.334617 -8.91044e-28)
(1.16971 -0.350023 -1.03983e-25)
(1.1936 -0.352299 -8.69195e-28)
(1.23752 -0.376709 -1.09946e-27)
(1.28705 -0.398598 7.95035e-26)
(1.37768 -0.417982 9.95261e-26)
(1.41767 -0.424432 1.28276e-27)
(1.49152 -0.448181 -6.47309e-26)
(1.54318 -0.457655 0)
(1.62808 -0.46245 3.56985e-26)
(1.72362 -0.459884 3.44557e-26)
(1.76507 -0.461525 3.59961e-26)
(1.84606 -0.453949 -1.44967e-27)
(1.9011 -0.428918 4.76216e-26)
(1.97056 -0.396092 9.59853e-27)
(2.01654 -0.360994 0)
(2.02317 -0.35263 4.7126e-26)
(2.042 -0.316313 1.32635e-27)
(2.05627 -0.283294 3.69143e-26)
(2.08247 -0.255747 0)
(2.0935 -0.230668 9.7643e-29)
(2.09202 -0.22574 -1.04618e-27)
(2.08789 -0.206183 -1.1266e-27)
(2.06676 -0.185301 0)
(2.06404 -0.169351 -1.27429e-28)
(2.05595 -0.158175 3.15857e-26)
(2.05388 -0.158121 8.29829e-26)
(2.03831 -0.147511 1.15001e-25)
(2.00772 -0.140604 -1.37534e-25)
(2.01067 -0.14846 7.73362e-30)
(2.01226 -0.164283 0)
(2.00619 -0.164274 -3.00312e-28)
(1.98693 -0.17351 -2.5494e-31)
(1.99538 -0.194895 2.75532e-25)
(2.02684 -0.225071 0)
(2.03849 -0.228982 4.6905e-25)
(2.05889 -0.258186 3.28016e-25)
(2.0954 -0.303434 2.06108e-25)
(2.19613 -0.362165 5.42609e-26)
(2.23971 -0.366915 1.76008e-27)
(2.32495 -0.421621 8.86922e-26)
(2.45027 -0.490408 0)
(2.6413 -0.563293 4.39315e-28)
(2.73219 -0.575074 7.29932e-28)
(2.92657 -0.645356 3.15058e-28)
(3.22234 -0.73415 1.95455e-25)
(3.36766 -0.75592 2.24526e-25)
(3.64726 -0.813551 0)
(0.941202 0.0356676 5.06023e-27)
(0.910176 0.0402059 1.01959e-29)
(0.86191 0.056812 7.3749e-29)
(0.814743 0.0593133 -1.4525e-26)
(0.760684 0.046961 0)
(0.726695 0.0489913 -7.13837e-27)
(0.673761 0.0257557 0)
(0.635936 -0.00264287 0)
(0.611447 -0.0421549 1.11316e-26)
(0.601098 -0.0856432 1.40461e-29)
(0.596495 -0.0934193 -1.40637e-26)
(0.600384 -0.138477 1.52823e-26)
(0.620912 -0.183733 1.25496e-28)
(0.653831 -0.221934 -1.75968e-26)
(0.708525 -0.254005 0)
(0.74084 -0.259578 -2.34368e-28)
(0.803417 -0.279777 5.63695e-26)
(0.856197 -0.296115 -5.62918e-26)
(0.923564 -0.308295 -1.25216e-25)
(0.957674 -0.311678 7.15857e-26)
(1.02587 -0.320857 -7.78454e-26)
(1.07317 -0.328349 4.29513e-32)
(1.12267 -0.338555 -8.87608e-28)
(1.17836 -0.351076 9.78403e-28)
(1.20424 -0.353225 8.72097e-28)
(1.26359 -0.381226 -8.87216e-26)
(1.31549 -0.404514 7.41266e-26)
(1.38941 -0.420201 9.00913e-26)
(1.42375 -0.424853 -8.63158e-26)
(1.50342 -0.450061 5.73168e-26)
(1.57276 -0.464585 -1.53738e-27)
(1.64597 -0.46694 -1.71515e-27)
(1.73102 -0.461036 -2.73176e-26)
(1.77146 -0.462198 3.08786e-26)
(1.86079 -0.45686 -1.6771e-26)
(1.92617 -0.434485 2.26526e-26)
(1.9817 -0.398171 6.36177e-27)
(2.02206 -0.360792 2.47285e-32)
(2.03085 -0.352465 -1.33468e-27)
(2.06213 -0.31839 0)
(2.0787 -0.285896 1.54723e-26)
(2.09537 -0.256748 0)
(2.10057 -0.230445 2.11774e-26)
(2.09799 -0.225123 0)
(2.09865 -0.206009 4.00702e-27)
(2.09074 -0.186772 2.48461e-26)
(2.08264 -0.17048 6.34216e-26)
(2.06418 -0.158215 6.57766e-26)
(2.0591 -0.157568 6.20809e-28)
(2.04853 -0.14714 -9.05756e-32)
(2.03479 -0.141927 1.45508e-25)
(2.02587 -0.149959 -1.8434e-25)
(2.01862 -0.163739 2.35425e-25)
(2.01326 -0.163596 -5.89812e-28)
(2.00687 -0.174302 -2.65948e-31)
(2.01583 -0.196383 2.87994e-25)
(2.03364 -0.224891 -1.00235e-27)
(2.04487 -0.228108 4.94807e-25)
(2.07856 -0.259504 1.77128e-25)
(2.1141 -0.305303 1.17277e-25)
(2.20215 -0.361345 -5.35359e-26)
(2.24664 -0.366299 0)
(2.3537 -0.426211 0)
(2.46106 -0.491682 -9.72333e-28)
(2.64474 -0.562474 -8.79139e-28)
(2.74228 -0.575792 0)
(2.95295 -0.651608 1.78087e-25)
(3.22716 -0.734457 0)
(3.37266 -0.755773 1.90734e-25)
(3.68212 -0.82428 -1.51974e-25)
(1.08836 0.0253222 4.70242e-27)
(1.05485 0.0308505 -1.04801e-29)
(0.990472 0.0497029 5.67357e-27)
(0.942013 0.0514723 -6.84049e-27)
(0.903607 0.0372269 2.92166e-29)
(0.875565 0.0393392 -6.81838e-27)
(0.813785 0.0163461 8.71298e-27)
(0.759585 -0.013538 -2.25461e-28)
(0.744256 -0.0570742 -2.07079e-28)
(0.745583 -0.104916 2.40356e-26)
(0.740306 -0.112495 1.57538e-28)
(0.729826 -0.158013 2.06014e-28)
(0.743371 -0.205379 -1.84603e-26)
(0.790559 -0.24915 -4.00916e-28)
(0.852824 -0.284079 -4.22466e-28)
(0.878822 -0.287732 4.83234e-26)
(0.923507 -0.304833 5.96465e-26)
(0.98275 -0.323741 0)
(1.06365 -0.339016 9.43795e-29)
(1.09955 -0.342137 0)
(1.1561 -0.347706 -8.19157e-26)
(1.1907 -0.352405 -7.08013e-28)
(1.25047 -0.365184 -8.33269e-26)
(1.31285 -0.378999 0)
(1.33491 -0.379817 1.04068e-25)
(1.37653 -0.404901 9.26632e-26)
(1.42358 -0.428673 4.81447e-32)
(1.50809 -0.448457 9.26043e-26)
(1.54526 -0.4537 -1.10682e-27)
(1.61495 -0.477371 -2.01355e-28)
(1.66637 -0.48784 0)
(1.74549 -0.492797 -2.98647e-26)
(1.83667 -0.488667 -2.90977e-26)
(1.87613 -0.489401 0)
(1.95396 -0.480731 2.10769e-28)
(2.0091 -0.454522 0)
(2.07438 -0.419027 1.11898e-27)
(2.11906 -0.379338 -1.48649e-27)
(2.12459 -0.369621 -3.73283e-26)
(2.14327 -0.331479 0)
(2.15772 -0.297644 0)
(2.18125 -0.268491 0)
(2.19144 -0.241469 9.63934e-27)
(2.18936 -0.235717 0)
(2.18538 -0.21522 0)
(2.16764 -0.194349 2.81348e-26)
(2.16455 -0.178279 9.76624e-28)
(2.15726 -0.166633 6.91761e-26)
(2.15564 -0.165927 6.38894e-32)
(2.14226 -0.154766 5.10498e-28)
(2.11711 -0.148926 1.5406e-25)
(2.11929 -0.157816 0)
(2.12184 -0.173675 2.44635e-25)
(2.11646 -0.173464 2.88719e-28)
(2.10022 -0.183869 5.60327e-28)
(2.11005 -0.207527 -2.95733e-25)
(2.1421 -0.239632 0)
(2.15446 -0.242748 2.5426e-25)
(2.17776 -0.274163 -1.80512e-25)
(2.21616 -0.322951 -1.19092e-25)
(2.31761 -0.384553 -5.54829e-26)
(2.36132 -0.389208 2.10024e-26)
(2.45042 -0.447385 0)
(2.5739 -0.520817 -1.38489e-25)
(2.76778 -0.597547 -1.64727e-25)
(2.85972 -0.609215 -1.46479e-27)
(3.06213 -0.684966 6.56194e-29)
(3.36264 -0.779852 0)
(3.50901 -0.801135 4.00026e-25)
(3.79847 -0.863424 -1.56781e-25)
(1.10211 0.0250231 -1.12625e-29)
(1.07186 0.0310011 -4.52645e-27)
(1.0265 0.0485295 5.50148e-27)
(0.979218 0.0492592 0)
(0.922351 0.0361092 0)
(0.887223 0.0394418 -7.14825e-27)
(0.836063 0.0162169 9.09088e-27)
(0.798176 -0.0161285 -1.11096e-26)
(0.772499 -0.060025 -1.11539e-26)
(0.759137 -0.106146 2.48141e-26)
(0.754044 -0.113272 1.53881e-28)
(0.759347 -0.161311 2.04397e-28)
(0.779854 -0.211443 -1.88795e-26)
(0.809799 -0.252706 0)
(0.862377 -0.285656 -3.765e-26)
(0.896074 -0.290388 4.94627e-26)
(0.961102 -0.311762 1.23363e-25)
(1.01382 -0.330019 5.91202e-26)
(1.07746 -0.341559 6.61904e-26)
(1.1105 -0.34361 7.61548e-26)
(1.1792 -0.350992 -8.40636e-26)
(1.22501 -0.358443 7.06932e-28)
(1.27186 -0.36895 -8.3337e-26)
(1.32282 -0.379798 0)
(1.34719 -0.380624 2.13502e-25)
(1.40547 -0.409462 9.34631e-26)
(1.45448 -0.434379 -1.30745e-27)
(1.52158 -0.450318 9.69171e-26)
(1.55242 -0.453724 9.11024e-26)
(1.62886 -0.479079 2.07492e-28)
(1.69627 -0.494125 -4.87972e-26)
(1.76584 -0.497006 -3.33574e-26)
(1.84531 -0.48942 -3.16617e-32)
(1.88367 -0.489786 3.11129e-26)
(1.97078 -0.483562 1.80118e-26)
(2.03388 -0.459444 -3.16779e-27)
(2.08695 -0.420935 -7.06669e-28)
(2.12529 -0.37889 -3.7136e-26)
(2.13332 -0.369377 -3.51843e-26)
(2.16488 -0.333637 -1.32773e-27)
(2.18078 -0.30008 1.30874e-26)
(2.19548 -0.269388 1.16727e-27)
(2.19932 -0.241078 -7.42404e-27)
(2.19605 -0.234943 0)
(2.19734 -0.215159 -9.82166e-28)
(2.19144 -0.195788 3.05889e-26)
(2.18437 -0.179457 -8.11076e-26)
(2.16632 -0.16663 7.24576e-26)
(2.16147 -0.165353 -4.86285e-26)
(2.15362 -0.154541 -5.16939e-28)
(2.14321 -0.150219 -3.04165e-28)
(2.13573 -0.159439 2.00478e-25)
(2.12873 -0.173059 5.12609e-29)
(2.12433 -0.172778 2.60308e-31)
(2.12173 -0.184779 -2.95735e-25)
(2.132 -0.20898 -6.12735e-25)
(2.14964 -0.239201 2.93496e-25)
(2.1616 -0.241691 -1.36013e-27)
(2.19914 -0.2755 -1.35323e-27)
(2.23652 -0.324678 -1.18872e-25)
(2.324 -0.383748 5.59987e-26)
(2.36913 -0.388229 2.35889e-26)
(2.47969 -0.451604 1.66083e-27)
(2.58592 -0.521478 -1.42659e-25)
(2.7718 -0.595707 -1.70076e-25)
(2.8714 -0.609396 0)
(3.09097 -0.691033 -1.89531e-25)
(3.36817 -0.778888 -1.78515e-25)
(3.51482 -0.799878 2.02378e-25)
(3.83359 -0.873344 -4.4341e-28)
(1.26266 0.0135456 -9.77964e-27)
(1.22906 0.020454 0)
(1.1683 0.0399721 -5.6594e-27)
(1.12041 0.0403069 7.25157e-27)
(1.07774 0.0256278 5.69813e-29)
(1.04869 0.0287648 -7.66362e-27)
(0.987976 0.00565532 -9.33504e-27)
(0.938059 -0.0284243 -1.1552e-26)
(0.917515 -0.0759095 1.90557e-28)
(0.917249 -0.126821 1.25217e-26)
(0.911322 -0.133988 -1.57087e-26)
(0.901857 -0.182637 0)
(0.91802 -0.235293 2.4188e-28)
(0.960998 -0.281857 1.96551e-26)
(1.02325 -0.318265 -3.87863e-26)
(1.04995 -0.321185 -5.08312e-26)
(1.09924 -0.339789 2.42664e-28)
(1.15678 -0.35993 6.17374e-26)
(1.23461 -0.374454 6.35091e-28)
(1.26941 -0.376373 7.76348e-26)
(1.32422 -0.379757 8.0223e-29)
(1.36046 -0.384934 0)
(1.41235 -0.396874 -8.61288e-26)
(1.46966 -0.408884 9.63169e-28)
(1.48942 -0.408501 1.10174e-25)
(1.52958 -0.43445 9.72798e-28)
(1.57402 -0.459767 1.30262e-27)
(1.6515 -0.479516 -1.42275e-27)
(1.68544 -0.483713 9.34604e-26)
(1.7508 -0.507587 6.43067e-26)
(1.80247 -0.519306 -4.91675e-26)
(1.87558 -0.524023 3.13179e-32)
(1.96188 -0.518242 -1.75658e-27)
(1.99895 -0.518195 3.06877e-26)
(2.0729 -0.508503 1.48743e-27)
(2.12725 -0.481049 -1.58432e-27)
(2.1867 -0.442609 -1.54397e-27)
(2.22881 -0.398088 -3.58885e-26)
(2.2331 -0.387197 0)
(2.25189 -0.347338 1.39149e-26)
(2.26612 -0.312399 2.43408e-26)
(2.28632 -0.281443 0)
(2.29522 -0.252501 -1.45297e-26)
(2.29229 -0.24595 0)
(2.28835 -0.224921 1.61575e-26)
(2.27425 -0.204099 3.33738e-26)
(2.2705 -0.187695 -4.55767e-26)
(2.26364 -0.175548 3.81242e-26)
(2.26237 -0.174312 -5.11143e-26)
(2.25134 -0.16287 0)
(2.23214 -0.158083 3.11162e-28)
(2.23308 -0.167986 2.10121e-25)
(2.23652 -0.183609 2.62055e-25)
(2.23199 -0.183314 -2.88297e-25)
(2.21932 -0.195011 -3.05261e-25)
(2.23052 -0.220724 -6.33865e-25)
(2.26273 -0.25469 3.02889e-25)
(2.27581 -0.257226 2.68637e-25)
(2.30269 -0.29105 1.89633e-25)
(2.34298 -0.343195 -2.87606e-27)
(2.44441 -0.407999 5.33745e-26)
(2.48867 -0.412322 0)
(2.58252 -0.474253 0)
(2.70494 -0.552213 1.4922e-25)
(2.90315 -0.633132 0)
(2.99692 -0.645206 -2.22053e-25)
(3.20869 -0.726958 6.32296e-28)
(3.51138 -0.826956 -1.84002e-25)
(3.65866 -0.848066 -2.0644e-25)
(3.95867 -0.915733 -1.59317e-25)
(1.27787 0.0133381 -4.99879e-27)
(1.24819 0.0201214 0)
(1.20656 0.0383407 -5.63e-27)
(1.16013 0.0382659 7.33611e-27)
(1.09881 0.0248399 0)
(1.06166 0.0288273 1.59845e-28)
(1.01299 0.00502825 -9.23157e-27)
(0.976866 -0.031046 0)
(0.948988 -0.0788115 0)
(0.932306 -0.128058 0)
(0.926902 -0.134992 -1.58518e-26)
(0.934841 -0.18667 0)
(0.956822 -0.241454 0)
(0.982863 -0.28542 4.09295e-26)
(1.03405 -0.32008 -4.14777e-28)
(1.07014 -0.324644 -5.22552e-26)
(1.14007 -0.347251 -6.56903e-26)
(1.19246 -0.366684 6.24689e-26)
(1.2504 -0.377234 0)
(1.28206 -0.378295 -4.37449e-28)
(1.35099 -0.383877 1.79566e-25)
(1.39617 -0.390871 -4.66922e-32)
(1.43665 -0.400726 -1.78076e-25)
(1.4806 -0.409678 0)
(1.50316 -0.40976 1.13475e-25)
(1.56127 -0.43954 0)
(1.60773 -0.465619 -9.07447e-26)
(1.66656 -0.481424 0)
(1.69334 -0.483872 9.92745e-26)
(1.76667 -0.509874 6.81698e-26)
(1.8331 -0.525412 0)
(1.89864 -0.528457 3.34587e-26)
(1.97167 -0.519142 0)
(2.00758 -0.518868 1.50656e-27)
(2.09216 -0.511925 -1.84337e-26)
(2.15308 -0.485784 0)
(2.20081 -0.444627 1.54345e-27)
(2.23556 -0.397659 1.48423e-27)
(2.24277 -0.38718 -1.34117e-27)
(2.27476 -0.349847 1.35275e-26)
(2.29007 -0.314789 2.08328e-26)
(2.30185 -0.282324 -7.43786e-27)
(2.30373 -0.252055 -7.12157e-27)
(2.29959 -0.245216 0)
(2.30146 -0.225068 4.15282e-26)
(2.29789 -0.205538 3.71081e-26)
(2.29159 -0.188874 0)
(2.27338 -0.175448 -7.46554e-28)
(2.2686 -0.173708 -5.35736e-26)
(2.26373 -0.162833 -1.08194e-31)
(2.2575 -0.159409 -3.19944e-28)
(2.25078 -0.168891 1.3989e-28)
(2.2438 -0.182964 2.70681e-25)
(2.24048 -0.182692 -5.97783e-25)
(2.24217 -0.196135 -5.47876e-28)
(2.25389 -0.222251 -6.55411e-25)
(2.27077 -0.254184 0)
(2.28348 -0.256245 2.78175e-25)
(2.32558 -0.292662 1.54521e-27)
(2.36483 -0.345086 -1.24936e-25)
(2.45116 -0.407197 5.51289e-26)
(2.49714 -0.411557 0)
(2.61221 -0.478539 0)
(2.71813 -0.553 1.54973e-25)
(2.9075 -0.631259 1.84937e-25)
(3.01011 -0.645826 -2.27626e-25)
(3.23955 -0.733559 -1.98425e-25)
(3.51721 -0.825976 -1.90227e-25)
(3.66494 -0.847111 -2.12811e-25)
(3.99367 -0.9256 -1.62717e-25)
(1.45268 0.000764463 4.96028e-30)
(1.41888 0.00835383 1.39693e-28)
(1.36164 0.0284644 5.86713e-33)
(1.314 0.0285864 -1.19108e-28)
(1.26721 0.0137039 -1.08907e-28)
(1.23654 0.0170088 -7.92552e-33)
(1.17745 -0.00697133 9.82095e-27)
(1.13244 -0.0446933 0)
(1.10709 -0.0957362 -1.8832e-28)
(1.10492 -0.150233 -1.87422e-28)
(1.09852 -0.157539 1.63515e-26)
(1.09175 -0.209859 -1.95552e-28)
(1.11088 -0.267586 1.9708e-26)
(1.15137 -0.316947 2.02685e-26)
(1.21501 -0.355926 0)
(1.24343 -0.358849 -5.36672e-26)
(1.29935 -0.378749 6.825e-26)
(1.3546 -0.398967 6.39081e-26)
(1.42758 -0.412379 7.19013e-26)
(1.46085 -0.413523 -8.08519e-26)
(1.51384 -0.414754 9.43106e-26)
(1.55051 -0.41936 0)
(1.59295 -0.429778 -1.83606e-25)
(1.64266 -0.439866 9.50724e-28)
(1.65949 -0.439105 -1.02637e-27)
(1.69828 -0.465963 -1.05933e-25)
(1.73959 -0.49208 2.08489e-28)
(1.80929 -0.511547 1.08521e-25)
(1.83937 -0.515037 -1.3232e-27)
(1.90086 -0.539805 6.91559e-26)
(1.95347 -0.552606 0)
(2.02125 -0.556787 3.21369e-26)
(2.10205 -0.549331 -3.52114e-27)
(2.13634 -0.548673 -1.51829e-27)
(2.20612 -0.538123 -1.99603e-26)
(2.2587 -0.508724 0)
(2.31037 -0.466958 0)
(2.3473 -0.417453 0)
(2.34986 -0.40566 -3.12346e-26)
(2.36813 -0.364421 -1.32838e-27)
(2.38157 -0.327507 1.62193e-26)
(2.3982 -0.294634 -5.59564e-27)
(2.40511 -0.263816 -1.10996e-27)
(2.40108 -0.256639 -1.06478e-27)
(2.39712 -0.235399 2.31765e-26)
(2.38654 -0.214559 3.83233e-26)
(2.38205 -0.197524 -5.38516e-26)
(2.37519 -0.184861 -5.17612e-32)
(2.37405 -0.183297 -5.66903e-26)
(2.36563 -0.17194 0)
(2.35257 -0.168089 0)
(2.3523 -0.178461 0)
(2.35625 -0.194142 -1.2059e-29)
(2.35265 -0.19394 -3.09014e-25)
(2.34417 -0.207084 0)
(2.3567 -0.234566 -3.38432e-25)
(2.38849 -0.270401 3.2472e-25)
(2.40228 -0.272715 -1.37977e-27)
(2.43353 -0.309156 0)
(2.47566 -0.364444 -2.59133e-25)
(2.57648 -0.432515 5.5243e-26)
(2.62151 -0.436889 0)
(2.72122 -0.502745 1.69609e-27)
(2.84429 -0.585607 1.00857e-27)
(3.0472 -0.671151 1.0506e-28)
(3.14343 -0.68408 -2.36833e-25)
(3.36406 -0.771731 -2.03901e-25)
(3.66652 -0.876435 -2.81338e-28)
(3.81467 -0.897964 -2.18119e-25)
(4.12615 -0.971039 -1.64985e-25)
(1.4696 0.000693469 5.15391e-27)
(1.44073 0.00743154 0)
(1.40345 0.0262489 0)
(1.3583 0.0265293 7.2641e-27)
(1.29053 0.0133633 8.62345e-27)
(1.25113 0.0170473 8.75435e-27)
(1.20528 -0.00824371 1.90696e-26)
(1.1747 -0.0477579 0)
(1.1423 -0.0984558 0)
(1.1215 -0.151402 0)
(1.11629 -0.158953 3.3521e-26)
(1.12894 -0.215015 1.86385e-26)
(1.1554 -0.274357 4.12125e-26)
(1.17635 -0.320517 -7.89669e-28)
(1.22722 -0.358023 -2.07268e-32)
(1.26719 -0.363383 -5.42832e-26)
(1.34561 -0.38718 6.9916e-26)
(1.39603 -0.406098 -5.69051e-28)
(1.44557 -0.41531 1.47651e-25)
(1.47547 -0.416017 -1.65266e-25)
(1.54489 -0.419909 9.67273e-26)
(1.59177 -0.425864 -9.95108e-26)
(1.62048 -0.433465 -1.91449e-25)
(1.65492 -0.440591 -1.19655e-25)
(1.67534 -0.441012 -1.2014e-25)
(1.73348 -0.471747 -1.07791e-25)
(1.77781 -0.498254 9.75733e-26)
(1.82615 -0.513375 1.12382e-25)
(1.84817 -0.515334 0)
(1.91909 -0.54284 7.14684e-26)
(1.98767 -0.559141 -3.13444e-27)
(2.04789 -0.561417 -1.73094e-27)
(2.11314 -0.550344 -3.35403e-26)
(2.14628 -0.549682 -2.67941e-26)
(2.22846 -0.542272 0)
(2.28877 -0.513852 0)
(2.3265 -0.469004 3.60382e-27)
(2.35473 -0.417027 -1.37819e-26)
(2.36065 -0.405972 1.78157e-27)
(2.39256 -0.367087 1.32783e-27)
(2.40774 -0.330032 1.25096e-26)
(2.41514 -0.295438 0)
(2.4143 -0.263285 0)
(2.40905 -0.255876 1.06813e-27)
(2.41144 -0.23582 9.98941e-28)
(2.41107 -0.216138 -9.17686e-28)
(2.40483 -0.198701 -6.02226e-26)