/*--------------------------------*- C++ -*----------------------------------*\
| =========                 |                                                 |
| \\      /  F ield         | OpenFOAM: The Open Source CFD Toolbox           |
|  \\    /   O peration     | Version:  v2012                                 |
|   \\  /    A nd           | Website:  www.openfoam.com                      |
|    \\/     M anipulation  |                                                 |
\*---------------------------------------------------------------------------*/
FoamFile
{
    version     2.0;
    format      ascii;
    class       volVectorField;
    location    "1e-06";
    object      UMean;
}
// * * * * * * * * * * * * * * * * * * * * * * * * * * * * * * * * * * * * * //

dimensions      [0 1 -1 0 0 0 0];


internalField   nonuniform List<vector> 
10098
(
(0.415657 0.0626801 1.17342e-26)
(0.381686 0.0695122 -2.20323e-27)
(0.335957 0.0838433 0)
(0.290679 0.0863939 -5.23574e-26)
(0.224648 0.0814596 1.7127e-27)
(0.189384 0.0847276 1.00767e-25)
(0.144506 0.0645493 -5.66556e-26)
(0.12662 0.0399884 -8.57456e-28)
(0.0973729 0.0100445 -9.86402e-26)
(0.086618 -0.0223519 1.11904e-25)
(0.0859284 -0.028153 0)
(0.100956 -0.0646152 1.24461e-25)
(0.130777 -0.105081 1.16927e-25)
(0.151367 -0.131414 0)
(0.207596 -0.156546 0)
(0.24308 -0.162062 5.66925e-28)
(0.318595 -0.183444 6.21928e-25)
(0.370267 -0.198581 3.13908e-25)
(0.432197 -0.209434 -2.2594e-28)
(0.466314 -0.21291 -6.72916e-28)
(0.542331 -0.224607 -9.30416e-28)
(0.608739 -0.238683 -4.8371e-25)
(0.648059 -0.248064 -5.43579e-25)
(0.711748 -0.260584 -2.44829e-29)
(0.744456 -0.262789 3.95198e-28)
(0.825332 -0.289221 0)
(0.894713 -0.312398 9.91469e-29)
(0.972867 -0.327204 7.732e-25)
(1.01148 -0.331925 3.4233e-29)
(1.10831 -0.354168 -7.05107e-25)
(1.20053 -0.371338 -3.84801e-28)
(1.27872 -0.37584 -6.56596e-25)
(1.37054 -0.373404 -7.38544e-28)
(1.41433 -0.375072 -7.12548e-25)
(1.51564 -0.370498 2.00248e-29)
(1.59653 -0.357303 5.52671e-28)
(1.64238 -0.329251 0)
(1.68307 -0.301778 0)
(1.69512 -0.294852 0)
(1.73743 -0.26741 -1.30508e-24)
(1.76005 -0.241741 -3.0725e-27)
(1.7688 -0.216458 -7.18839e-25)
(1.76981 -0.193693 -1.37077e-27)
(1.76693 -0.188924 1.3748e-27)
(1.76753 -0.170902 1.40143e-27)
(1.76141 -0.154541 1.23086e-24)
(1.74361 -0.140873 2.40047e-24)
(1.70861 -0.128737 1.16652e-24)
(1.69828 -0.127845 1.12869e-24)
(1.68195 -0.117487 -1.13443e-24)
(1.66967 -0.113089 -1.03472e-24)
(1.64273 -0.117576 -8.50791e-25)
(1.62425 -0.129774 1.10992e-27)
(1.61536 -0.128429 -9.14434e-25)
(1.60808 -0.136843 -9.84721e-25)
(1.613 -0.155487 0)
(1.61493 -0.177441 0)
(1.62259 -0.180538 1.10748e-24)
(1.65826 -0.206978 6.6373e-31)
(1.68843 -0.241854 1.39213e-24)
(1.76589 -0.289783 -1.95641e-27)
(1.80758 -0.296404 1.50162e-24)
(1.92583 -0.345875 1.68133e-24)
(2.02562 -0.399432 0)
(2.20324 -0.457109 0)
(2.29804 -0.46852 -7.66584e-28)
(2.51651 -0.533494 -1.27095e-27)
(2.76413 -0.598906 -8.28006e-28)
(2.89609 -0.615847 1.3448e-27)
(0.525331 0.0566975 1.03619e-26)
(0.488956 0.0632474 -2.20321e-27)
(0.431955 0.0787442 -1.91615e-27)
(0.382609 0.0819231 1.70311e-27)
(0.331137 0.0758133 1.72519e-27)
(0.298473 0.0776724 1.01535e-25)
(0.246286 0.0570849 -5.56111e-26)
(0.21332 0.0321734 0)
(0.193133 -0.000710854 -6.80525e-28)
(0.190146 -0.0368816 4.02653e-32)
(0.188242 -0.0433674 -4.32789e-32)
(0.192682 -0.0807 -8.94364e-28)
(0.212932 -0.120885 1.23863e-25)
(0.24957 -0.152588 2.48476e-25)
(0.31001 -0.180393 -9.04237e-30)
(0.340999 -0.185242 1.13149e-27)
(0.403227 -0.20362 6.42327e-25)
(0.459765 -0.219975 -1.27885e-28)
(0.532824 -0.233808 0)
(0.567837 -0.237594 -4.18511e-25)
(0.636553 -0.247321 9.35271e-28)
(0.689389 -0.257201 -5.02523e-25)
(0.741797 -0.269753 -5.66671e-25)
(0.808852 -0.284195 -1.59817e-30)
(0.838519 -0.285897 -3.95337e-28)
(0.906468 -0.310051 0)
(0.970274 -0.332274 1.41172e-24)
(1.05882 -0.351175 1.60045e-24)
(1.09912 -0.356809 -8.15815e-25)
(1.18929 -0.378423 0)
(1.26768 -0.391568 0)
(1.35204 -0.397919 -1.36514e-24)
(1.44915 -0.397127 7.35289e-28)
(1.49248 -0.398622 -7.37059e-25)
(1.58716 -0.391613 2.59771e-29)
(1.65841 -0.373622 0)
(1.71695 -0.346678 0)
(1.76084 -0.317774 0)
(1.77063 -0.310051 -1.16526e-27)
(1.80343 -0.279012 -1.34994e-27)
(1.82211 -0.251095 0)
(1.84024 -0.226105 -1.428e-27)
(1.84582 -0.202636 -4.68486e-31)
(1.84311 -0.197605 4.58673e-31)
(1.84054 -0.178537 -1.40886e-27)
(1.82605 -0.160448 1.25927e-24)
(1.81271 -0.146249 1.23315e-24)
(1.78836 -0.134795 0)
(1.7802 -0.134084 1.43767e-27)
(1.76167 -0.123491 2.49777e-28)
(1.73865 -0.11792 -2.11983e-24)
(1.72263 -0.123457 -8.59612e-25)
(1.71178 -0.137279 0)
(1.7026 -0.136326 2.3928e-28)
(1.68716 -0.144535 0)
(1.69257 -0.164031 0)
(1.70673 -0.189069 1.69898e-27)
(1.71496 -0.192617 1.53199e-27)
(1.74186 -0.219136 1.33006e-24)
(1.77448 -0.256254 2.1169e-27)
(1.86233 -0.309054 1.95765e-27)
(1.90339 -0.316145 -2.52483e-28)
(2.00587 -0.363861 1.55418e-27)
(2.12021 -0.423987 1.76003e-24)
(2.30285 -0.486334 0)
(2.39316 -0.496786 0)
(2.59994 -0.56008 -2.03173e-24)
(2.86525 -0.634702 -2.11308e-28)
(2.99746 -0.652433 1.80105e-24)
(0.533289 0.0574031 -3.40402e-28)
(0.499323 0.0629705 -2.20574e-27)
(0.455562 0.077548 -3.28994e-26)
(0.411256 0.0808674 5.5404e-26)
(0.342332 0.0761719 0)
(0.305542 0.0773374 1.20739e-27)
(0.259804 0.0556462 6.27677e-26)
(0.242156 0.0297339 8.99325e-26)
(0.210587 -0.00179552 -6.84589e-28)
(0.197322 -0.0371325 -1.20287e-25)
(0.196159 -0.0441386 -6.60428e-28)
(0.210991 -0.0843166 -4.54479e-28)
(0.242102 -0.125427 1.04681e-28)
(0.260837 -0.153973 -6.20602e-29)
(0.315216 -0.181148 -2.7245e-25)
(0.351031 -0.187346 3.09663e-25)
(0.428188 -0.208937 3.31182e-25)
(0.47957 -0.223644 0)
(0.540183 -0.234626 -4.06794e-25)
(0.573999 -0.238347 -8.61816e-28)
(0.650774 -0.250195 -4.63327e-25)
(0.71817 -0.262766 0)
(0.754363 -0.271058 0)
(0.814375 -0.284008 1.74365e-29)
(0.845906 -0.286468 -1.51454e-24)
(0.925049 -0.313707 -1.52071e-31)
(0.992345 -0.336608 7.30102e-25)
(1.06614 -0.351272 8.24979e-25)
(1.10307 -0.35624 8.3786e-25)
(1.1978 -0.379841 3.24754e-28)
(1.28924 -0.396809 -3.67399e-28)
(1.36434 -0.400042 -1.41564e-24)
(1.45369 -0.396804 -7.27975e-28)
(1.49683 -0.398422 0)
(1.59822 -0.393909 2.81471e-29)
(1.68016 -0.378348 1.09536e-27)
(1.7246 -0.346825 1.00344e-27)
(1.7644 -0.316858 0)
(1.77635 -0.309813 0)
(1.81898 -0.280852 0)
(1.8417 -0.253184 0)
(1.84961 -0.226085 0)
(1.85064 -0.201941 0)
(1.84755 -0.196904 1.3835e-27)
(1.84894 -0.178578 -1.32107e-24)
(1.84476 -0.161484 -4.62548e-31)
(1.82805 -0.14652 1.53816e-27)
(1.79407 -0.134259 6.05747e-25)
(1.78403 -0.133552 1.43834e-27)
(1.76951 -0.123521 2.33013e-24)
(1.75982 -0.118959 -1.08091e-24)
(1.73406 -0.123391 8.69061e-25)
(1.71594 -0.13651 0)
(1.70775 -0.135819 1.92897e-24)
(1.70296 -0.14518 -1.04215e-24)
(1.7089 -0.164625 1.09735e-24)
(1.71139 -0.188227 -1.11599e-24)
(1.71958 -0.191787 1.17466e-24)
(1.75744 -0.220054 2.73688e-24)
(1.78885 -0.256842 0)
(1.86592 -0.308097 0)
(1.90851 -0.315353 -3.1898e-24)
(2.02897 -0.367164 1.80673e-24)
(2.12783 -0.423278 1.82852e-24)
(2.30538 -0.48452 -2.22992e-27)
(2.40098 -0.496584 -2.00115e-24)
(2.62072 -0.564134 -2.10905e-24)
(2.86813 -0.632898 -1.87042e-24)
(3.00101 -0.651252 1.56925e-27)
(0.65146 0.0509849 2.59861e-27)
(0.614689 0.0562475 -6.44258e-27)
(0.559266 0.0718357 -3.12122e-26)
(0.511093 0.0758287 0)
(0.457995 0.0699602 0)
(0.423904 0.0696988 0)
(0.370569 0.0469663 7.10288e-26)
(0.336519 0.0211935 9.30731e-26)
(0.315075 -0.0131838 -6.90497e-28)
(0.310249 -0.0526579 -2.49143e-25)
(0.307698 -0.0604877 0)
(0.311414 -0.102251 4.57817e-28)
(0.331774 -0.142203 1.1374e-28)
(0.367851 -0.176392 -2.78116e-25)
(0.42698 -0.206564 -2.77836e-25)
(0.457837 -0.212044 3.14064e-25)
(0.520616 -0.230383 3.42694e-25)
(0.577106 -0.246307 1.49821e-28)
(0.64949 -0.260449 -4.19764e-25)
(0.684247 -0.264638 -4.38898e-25)
(0.753115 -0.274337 -9.45911e-25)
(0.805203 -0.282171 5.40847e-25)
(0.856381 -0.29393 6.11364e-25)
(0.920224 -0.308831 3.17077e-29)
(0.948434 -0.310992 -7.75123e-25)
(1.01364 -0.335692 -7.6783e-28)
(1.07469 -0.357772 2.54247e-28)
(1.15955 -0.376525 8.50975e-25)
(1.19818 -0.382598 8.60381e-25)
(1.28554 -0.405439 -7.65781e-25)
(1.36186 -0.418119 1.78479e-28)
(1.44347 -0.423279 -7.3115e-25)
(1.53821 -0.421874 -7.8273e-25)
(1.5808 -0.423362 7.80744e-25)
(1.6747 -0.416307 0)
(1.74574 -0.395617 0)
(1.80361 -0.365235 0)
(1.8467 -0.333787 -1.43944e-24)
(1.85621 -0.325943 2.3219e-27)
(1.8888 -0.293206 2.68137e-27)
(1.90719 -0.263167 -7.46635e-25)
(1.92483 -0.236321 0)
(1.93048 -0.211652 7.34566e-25)
(1.92753 -0.206369 2.77217e-27)
(1.92546 -0.186934 4.44552e-28)
(1.91257 -0.167923 1.30323e-24)
(1.90038 -0.152404 0)
(1.87749 -0.140756 6.13065e-25)
(1.86977 -0.140321 -2.88109e-27)
(1.85297 -0.130071 1.17774e-24)
(1.83211 -0.124355 -1.07547e-27)
(1.81774 -0.130042 8.8093e-25)
(1.80775 -0.14466 -9.17992e-25)
(1.79927 -0.144372 1.97926e-24)
(1.78597 -0.153534 -1.07009e-24)
(1.79246 -0.173821 -3.42613e-28)
(1.80777 -0.20062 -1.1505e-24)
(1.81658 -0.204673 1.21161e-24)
(1.84541 -0.233026 1.40882e-24)
(1.87944 -0.27188 0)
(1.96865 -0.325 1.60867e-24)
(2.00954 -0.336343 -3.26804e-24)
(2.11351 -0.386051 1.86842e-24)
(2.22754 -0.448957 0)
(2.41046 -0.515148 0)
(2.50126 -0.526184 -2.06648e-24)
(2.70908 -0.591955 0)
(2.97677 -0.670708 1.94541e-24)
(3.11021 -0.689905 -1.92451e-24)
(0.659767 0.0520998 -2.80625e-27)
(0.626212 0.0560622 -4.3154e-27)
(0.585714 0.0703603 0)
(0.543366 0.0750212 -6.02858e-26)
(0.470166 0.0711476 -1.77521e-27)
(0.431235 0.0703014 -2.43973e-27)
(0.385542 0.0459252 -8.10007e-26)
(0.370003 0.0184051 -8.84053e-28)
(0.334548 -0.0141768 1.2465e-25)
(0.317878 -0.0529086 -1.30219e-25)
(0.316089 -0.0613679 -1.2987e-25)
(0.331771 -0.105296 -1.26239e-25)
(0.36487 -0.147406 1.21229e-28)
(0.379609 -0.17802 1.45036e-25)
(0.432177 -0.207604 2.75974e-25)
(0.468872 -0.214772 1.16126e-27)
(0.548802 -0.236587 3.50376e-25)
(0.599127 -0.250595 1.60035e-28)
(0.6573 -0.261583 0)
(0.690755 -0.265848 -4.41475e-25)
(0.768805 -0.277933 -2.26601e-28)
(0.838896 -0.288785 5.58876e-25)
(0.870228 -0.295518 6.29449e-25)
(0.92598 -0.308958 0)
(0.956415 -0.312006 0)
(1.03433 -0.340003 3.89258e-28)
(1.09954 -0.362846 -1.71712e-31)
(1.16748 -0.376969 1.73824e-24)
(1.2022 -0.382423 -1.84058e-31)
(1.2948 -0.407531 -7.77815e-25)
(1.38638 -0.424148 1.7544e-28)
(1.45703 -0.425859 1.47338e-27)
(1.54297 -0.421935 1.6562e-27)
(1.58538 -0.423657 7.92756e-25)
(1.68676 -0.419279 7.21497e-25)
(1.77028 -0.401082 7.07152e-25)
(1.81191 -0.365625 -7.10413e-25)
(1.85043 -0.333022 -2.95552e-24)
(1.86228 -0.325938 0)
(1.90565 -0.29543 -1.44993e-24)
(1.92878 -0.265539 2.72716e-28)
(1.93495 -0.236382 0)
(1.93555 -0.210908 7.4557e-25)
(1.93216 -0.205697 -2.77786e-27)
(1.93445 -0.18705 1.36632e-24)
(1.93297 -0.169154 1.32565e-24)
(1.91691 -0.152718 0)
(1.88349 -0.140171 0)
(1.8737 -0.139756 0)
(1.86136 -0.130162 -1.1939e-24)
(1.85544 -0.125559 -2.1714e-27)
(1.83001 -0.130004 -1.99928e-27)
(1.81202 -0.143744 -1.96777e-27)
(1.80466 -0.143884 1.00996e-24)
(1.80298 -0.154334 0)
(1.81005 -0.174541 -1.16702e-24)
(1.81259 -0.199819 1.68678e-27)
(1.82137 -0.20398 -1.23814e-24)
(1.86219 -0.234267 -7.33602e-31)
(1.89512 -0.274659 1.55709e-24)
(2.07595 -0.342768 -4.01772e-28)
(2.01488 -0.334153 -1.70989e-24)
(2.13874 -0.389994 1.92006e-24)
(2.23564 -0.448763 2.58508e-27)
(2.41289 -0.514002 2.22461e-27)
(2.50963 -0.526789 0)
(2.73177 -0.59695 -2.25164e-24)
(2.9797 -0.669709 1.97822e-24)
(3.11385 -0.689754 -1.33796e-27)
(3.43568 -0.752968 0)
(0.788289 0.0408797 -3.14894e-27)
(0.752165 0.0458797 -1.71033e-26)
(0.699301 0.0617254 -1.96237e-27)
(0.651878 0.0677885 -6.52723e-26)
(0.596821 0.059558 -8.31548e-26)
(0.560862 0.0575286 -7.96343e-26)
(0.50731 0.0341791 -6.90508e-26)
(0.472192 0.00848992 0)
(0.449791 -0.0265932 1.32318e-25)
(0.442674 -0.06934 -6.44602e-28)
(0.439372 -0.0788568 -1.34745e-25)
(0.443035 -0.123048 -5.26192e-28)
(0.46298 -0.164102 -1.36542e-28)
(0.498019 -0.199344 1.6936e-25)
(0.555734 -0.231906 3.19896e-25)
(0.586967 -0.238879 -6.46485e-32)
(0.650316 -0.257772 3.82497e-25)
(0.706563 -0.272048 4.2887e-25)
(0.777626 -0.285799 2.61081e-28)
(0.812025 -0.290776 0)
(0.88128 -0.301419 2.35686e-28)
(0.931939 -0.307234 0)
(0.982723 -0.316793 -6.956e-29)
(1.04303 -0.332015 -7.93448e-25)
(1.06975 -0.335053 0)
(1.13232 -0.361081 8.01677e-25)
(1.19029 -0.382333 -4.31325e-28)
(1.27079 -0.399694 9.45146e-25)
(1.30727 -0.40619 0)
(1.39162 -0.43115 -8.40062e-25)
(1.46551 -0.444074 -3.23505e-28)
(1.54414 -0.446648 8.21454e-25)
(1.63553 -0.444177 1.75467e-24)
(1.6771 -0.445971 2.84007e-28)
(1.76995 -0.440079 7.78637e-25)
(1.84002 -0.417089 1.5048e-24)
(1.89734 -0.382341 -7.6858e-25)
(1.93909 -0.34879 -1.57767e-24)
(1.94785 -0.341193 1.56436e-24)
(1.98014 -0.307737 -1.51277e-24)
(1.99804 -0.274995 1.58207e-24)
(2.01501 -0.246079 2.84885e-27)
(2.02031 -0.220346 -7.76546e-25)
(2.01692 -0.214999 0)
(2.01532 -0.195719 1.39695e-24)
(2.00404 -0.175971 -2.94678e-27)
(1.99307 -0.159004 1.33863e-24)
(1.97145 -0.147052 -3.01772e-27)
(1.96408 -0.147029 -1.22517e-24)
(1.9493 -0.137435 -2.41097e-24)
(1.93081 -0.131306 1.16082e-24)
(1.91835 -0.135419 -9.40174e-25)
(1.90907 -0.152029 1.00053e-24)
(1.90132 -0.152736 -4.92775e-27)
(1.89056 -0.162847 -2.82257e-27)
(1.89823 -0.183463 0)
(1.91454 -0.211416 3.36269e-27)
(1.92396 -0.216171 -2.63094e-24)
(1.95512 -0.246489 -1.52433e-24)
(1.99109 -0.290315 -4.36164e-28)
(2.08042 -0.341687 -3.59096e-24)
(2.12183 -0.350707 0)
(2.22795 -0.406987 4.11448e-24)
(2.34145 -0.470433 0)
(2.52475 -0.539477 0)
(2.6163 -0.551851 0)
(2.8267 -0.621169 -2.46954e-24)
(3.09855 -0.701029 2.29211e-24)
(3.23365 -0.722267 2.23172e-24)
(3.53774 -0.782684 1.30842e-27)
(0.926065 0.0279072 -4.46478e-26)
(0.888408 0.0361553 2.56676e-27)
(0.819474 0.0536746 0)
(0.770057 0.0580822 -6.4096e-26)
(0.731632 0.0442926 -4.29342e-26)
(0.701555 0.0442834 -5.71929e-26)
(0.639318 0.0240476 0)
(0.582588 -0.00201033 -9.09093e-28)
(0.573753 -0.0418744 4.30234e-32)
(0.577664 -0.087666 -1.37133e-25)
(0.573801 -0.0965513 -1.43882e-25)
(0.563349 -0.140224 3.06001e-25)
(0.57343 -0.182839 -1.5415e-28)
(0.625547 -0.223647 -1.82576e-25)
(0.689965 -0.257811 1.41427e-29)
(0.715277 -0.262894 0)
(0.758524 -0.278926 8.52058e-25)
(0.822715 -0.296255 4.21066e-28)
(0.907234 -0.312266 -5.29191e-25)
(0.94354 -0.316713 5.49181e-25)
(1.00252 -0.32423 -5.79729e-25)
(1.03575 -0.327545 1.13335e-27)
(1.10265 -0.340571 1.9011e-28)
(1.16944 -0.356295 -8.50364e-25)
(1.19274 -0.358017 1.01168e-27)
(1.23744 -0.381433 9.04227e-28)
(1.2899 -0.403639 8.87635e-25)
(1.38201 -0.424057 1.00854e-24)
(1.42134 -0.430626 -5.86833e-28)
(1.49647 -0.453946 -9.2166e-25)
(1.54989 -0.463635 0)
(1.63738 -0.469255 8.85515e-25)
(1.73487 -0.467498 9.48794e-25)
(1.77593 -0.468761 9.44305e-25)
(1.85849 -0.460149 -4.31666e-29)
(1.91569 -0.434335 1.5979e-24)
(1.98619 -0.400717 8.2081e-25)
(2.03249 -0.365084 0)
(2.0383 -0.356269 1.67129e-24)
(2.05764 -0.319255 2.65523e-27)
(2.07252 -0.285476 1.63244e-24)
(2.09808 -0.256835 0)
(2.10853 -0.230407 2.65447e-28)
(2.10574 -0.224574 -2.78814e-27)
(2.09979 -0.204061 -3.32014e-27)
(2.0767 -0.182759 0)
(2.07239 -0.166518 -5.0385e-28)
(2.06233 -0.155058 -6.48582e-25)
(2.05837 -0.154866 -1.24161e-24)
(2.04093 -0.144446 -1.23682e-24)
(2.00794 -0.137477 1.19447e-24)
(2.00931 -0.145306 2.19269e-28)
(2.00971 -0.161206 0)
(2.00211 -0.161677 2.44628e-27)
(1.98134 -0.171385 1.16362e-30)
(1.98976 -0.193477 -1.27969e-24)
(2.02047 -0.224296 0)
(2.031 -0.228667 -2.81355e-24)
(2.05168 -0.258992 -3.23832e-24)
(2.0904 -0.305108 -3.47148e-24)
(2.192 -0.364177 -1.84319e-24)
(2.23372 -0.369401 -2.45039e-27)
(2.32031 -0.424453 2.19813e-24)
(2.45124 -0.493786 0)
(2.6428 -0.566533 -2.19595e-27)
(2.72864 -0.577609 -7.10759e-28)
(2.92871 -0.647468 -1.26626e-27)
(3.22717 -0.7356 2.58426e-24)
(3.36316 -0.756446 2.54901e-24)
(3.64617 -0.813648 0)
(0.936738 0.0283731 -1.51273e-26)
(0.902037 0.0354418 -3.17374e-28)
(0.850804 0.0530726 -1.99929e-27)
(0.803384 0.0561951 -1.43702e-25)
(0.74676 0.0429132 0)
(0.710085 0.045197 -6.66788e-26)
(0.657348 0.0242835 0)
(0.620846 -0.00468379 0)
(0.59756 -0.0448334 1.23698e-25)
(0.587787 -0.088732 -8.38959e-29)
(0.583906 -0.097 -1.4855e-25)
(0.588205 -0.142753 1.61908e-25)
(0.607568 -0.188678 -1.61335e-28)
(0.640841 -0.227175 -1.80486e-25)
(0.696474 -0.259179 0)
(0.728419 -0.264958 1.21091e-27)
(0.792797 -0.285711 4.40184e-25)
(0.848784 -0.302209 -4.64995e-25)
(0.917523 -0.314627 -1.05365e-24)
(0.951228 -0.317904 5.53461e-25)
(1.02109 -0.327067 -5.99381e-25)
(1.06987 -0.333912 2.67391e-31)
(1.12008 -0.344221 2.27281e-28)
(1.17672 -0.357003 -2.02969e-28)
(1.20216 -0.358584 -1.01827e-27)
(1.26261 -0.385679 -8.82572e-25)
(1.31742 -0.409349 9.02015e-25)
(1.39251 -0.425902 1.01365e-24)
(1.42616 -0.430622 -1.03491e-24)
(1.50726 -0.455451 9.41659e-25)
(1.57875 -0.47035 -2.89085e-28)
(1.65429 -0.473472 -1.37709e-27)
(1.74112 -0.468283 -9.60099e-25)
(1.78126 -0.469054 9.58263e-25)
(1.87242 -0.462787 -8.69348e-25)
(1.94021 -0.439728 8.20812e-25)
(1.99648 -0.402509 8.37983e-25)
(2.03702 -0.36455 4.0507e-31)
(2.04507 -0.355815 -2.30386e-27)
(2.07716 -0.32118 0)
(2.09439 -0.287935 8.28674e-25)
(2.11028 -0.257643 0)
(2.11479 -0.229922 1.64234e-24)
(2.11086 -0.223636 0)
(2.10977 -0.203611 -1.48748e-24)
(2.10016 -0.184015 -1.41801e-24)
(2.09034 -0.167437 -2.73914e-24)
(2.06966 -0.154861 -1.31439e-24)
(2.06263 -0.154072 2.89236e-27)
(2.05026 -0.143852 1.17545e-30)
(2.03445 -0.138596 -1.23176e-24)
(2.02369 -0.146802 1.23605e-24)
(2.01506 -0.160417 -1.07631e-24)
(2.00818 -0.160757 4.85969e-27)
(2.00052 -0.171975 1.19548e-30)
(2.00943 -0.194767 -1.3061e-24)
(2.02625 -0.223855 3.33188e-27)
(2.03634 -0.22754 -2.88573e-24)
(2.07056 -0.260121 -1.66355e-24)
(2.10833 -0.306742 -1.77722e-24)
(2.19694 -0.363185 1.8873e-24)
(2.23972 -0.368448 0)
(2.3485 -0.428832 0)
(2.46126 -0.494621 5.08531e-27)
(2.64542 -0.565121 4.38398e-27)
(2.73802 -0.57777 0)
(2.95461 -0.653255 2.74449e-24)
(3.23125 -0.735076 0)
(3.36741 -0.755426 2.59194e-24)
(3.68065 -0.823819 -2.4891e-24)
(1.08579 0.0182831 -9.9332e-27)
(1.04861 0.0250215 3.28215e-28)
(0.980875 0.04582 3.319e-26)
(0.93195 0.0481832 -7.10825e-26)
(0.89141 0.0330131 -1.78433e-27)
(0.861013 0.0355869 -7.18777e-26)
(0.799039 0.0145271 8.6878e-26)
(0.745542 -0.0158431 3.72625e-27)
(0.731706 -0.0601188 1.55655e-27)
(0.733953 -0.108376 2.78905e-25)
(0.729351 -0.116456 -1.35534e-27)
(0.718887 -0.162397 -9.91073e-28)
(0.731053 -0.210614 -1.81566e-25)
(0.77905 -0.254815 -3.3968e-28)
(0.842479 -0.289778 3.02638e-29)
(0.867872 -0.293622 4.15574e-25)
(0.913862 -0.311161 4.54443e-25)
(0.976514 -0.330263 0)
(1.05917 -0.345888 -5.50445e-29)
(1.09472 -0.348923 0)
(1.15268 -0.354408 -6.21906e-25)
(1.18842 -0.358258 1.2035e-27)
(1.24917 -0.371229 -7.54152e-25)
(1.31275 -0.385428 0)
(1.33434 -0.385657 9.40776e-25)
(1.37661 -0.409674 9.09588e-25)
(1.42639 -0.433863 4.0325e-31)
(1.51245 -0.454637 1.02928e-24)
(1.54909 -0.459998 5.39382e-28)
(1.62 -0.483247 3.99094e-29)
(1.6731 -0.493926 0)
(1.75475 -0.499762 -9.17849e-25)
(1.84796 -0.496482 -9.80847e-25)
(1.8872 -0.496807 0)
(1.96663 -0.487111 5.54054e-29)
(2.02393 -0.460041 0)
(2.09024 -0.423659 8.49242e-25)
(2.1352 -0.383354 -2.33855e-27)
(2.13991 -0.37324 -1.77017e-24)
(2.15908 -0.334445 0)
(2.17414 -0.299813 0)
(2.19712 -0.269505 0)
(2.20678 -0.241015 8.39525e-25)
(2.20333 -0.234242 0)
(2.19744 -0.212781 0)
(2.1777 -0.191516 -1.44609e-24)
(2.17302 -0.17516 3.63531e-27)
(2.16376 -0.163212 -1.33329e-24)
(2.16023 -0.162384 -1.18882e-30)
(2.14494 -0.151427 2.63402e-27)
(2.1174 -0.145515 -1.26462e-24)
(2.11799 -0.154592 0)
(2.11937 -0.170344 -1.12089e-24)
(2.11241 -0.170641 -2.41507e-27)
(2.09462 -0.181563 -2.75933e-27)
(2.10439 -0.205964 1.33218e-24)
(2.13574 -0.238737 0)
(2.14694 -0.242363 -1.49273e-24)
(2.17048 -0.274952 1.71302e-24)
(2.21116 -0.32461 1.82772e-24)
(2.3134 -0.386683 1.93828e-24)
(2.35536 -0.391698 2.15988e-24)
(2.44579 -0.450259 0)
(2.57496 -0.52411 -2.44752e-24)
(2.76944 -0.600611 -2.50932e-24)
(2.85634 -0.611563 1.3926e-27)
(3.06445 -0.686858 -3.13082e-28)
(3.3677 -0.780847 0)
(3.50468 -0.801124 5.35792e-24)
(3.79752 -0.863083 -2.56978e-24)
(1.09777 0.0184881 1.17199e-26)
(1.0641 0.0259974 7.10444e-27)
(1.01565 0.0447313 4.11016e-26)
(0.967759 0.0460269 0)
(0.908493 0.0320809 0)
(0.871007 0.0360378 -7.77612e-26)
(0.819791 0.0143438 9.19007e-26)
(0.782909 -0.0184856 -1.13963e-25)
(0.758515 -0.0631275 -1.24542e-25)
(0.74573 -0.10952 2.82155e-25)
(0.741335 -0.117133 -1.37823e-27)
(0.747034 -0.16536 -1.00302e-27)
(0.766311 -0.216598 -1.8541e-25)
(0.79673 -0.258223 0)
(0.850257 -0.291148 -3.64691e-25)
(0.883523 -0.296101 4.26315e-25)
(0.950336 -0.318025 9.37728e-25)
(1.00634 -0.336436 4.77199e-25)
(1.07136 -0.348263 5.37501e-25)
(1.10403 -0.350217 5.74234e-25)
(1.17449 -0.357604 -6.44711e-25)
(1.2217 -0.364237 -1.23538e-27)
(1.26921 -0.374817 -7.63414e-25)
(1.32119 -0.386043 0)
(1.34526 -0.386275 1.92465e-24)
(1.40454 -0.414073 9.35509e-25)
(1.45626 -0.43947 -2.67456e-28)
(1.52456 -0.456323 1.04578e-24)
(1.55483 -0.459818 1.07926e-24)
(1.63271 -0.484783 -3.80067e-29)
(1.70213 -0.500106 -9.45008e-25)
(1.77401 -0.503849 -9.36198e-25)
(1.85531 -0.497104 -4.49889e-31)
(1.89354 -0.497043 1.00401e-24)
(1.98258 -0.489845 9.21783e-25)
(2.04804 -0.464846 -2.12463e-27)
(2.10186 -0.4254 8.63306e-25)
(2.14035 -0.382662 -1.8192e-24)
(2.14764 -0.372802 -1.82302e-24)
(2.18002 -0.336511 -2.65862e-27)
(2.1966 -0.30215 8.59257e-25)
(2.21063 -0.270261 2.8355e-27)
(2.21379 -0.240413 -8.5593e-25)
(2.20911 -0.233183 0)
(2.20858 -0.212452 -2.86321e-27)
(2.20091 -0.192731 -1.4781e-24)
(2.19215 -0.176102 2.82389e-24)
(2.17188 -0.162951 -1.35483e-24)
(2.16502 -0.161553 6.61045e-25)
(2.15537 -0.150964 -2.63284e-27)
(2.14285 -0.146594 -2.19453e-27)
(2.13357 -0.156019 -1.37789e-24)
(2.12518 -0.169488 -2.17298e-27)
(2.1192 -0.169722 -1.15588e-30)
(2.11529 -0.182288 1.30953e-24)
(2.12552 -0.20726 2.7389e-24)
(2.14217 -0.238118 -1.42771e-24)
(2.15295 -0.241141 2.86523e-27)
(2.19102 -0.276188 2.78976e-27)
(2.23068 -0.326236 1.87047e-24)
(2.31874 -0.385719 -1.98738e-24)
(2.36215 -0.390585 2.22047e-24)
(2.47443 -0.454422 -2.85221e-27)
(2.58613 -0.52462 -2.51437e-24)
(2.77253 -0.598559 -2.58384e-24)
(2.86722 -0.611544 0)
(3.09275 -0.692735 -2.91892e-24)
(3.3724 -0.77955 -2.7593e-24)
(3.50966 -0.799502 2.75873e-24)
(3.83221 -0.872739 -2.57549e-27)
(1.26031 0.00720176 -1.17357e-27)
(1.22327 0.016058 0)
(1.15873 0.0361027 -4.75498e-26)
(1.11002 0.0369756 5.98093e-26)
(1.06556 0.022037 -3.58861e-27)
(1.03449 0.0255164 -8.20582e-26)
(0.973283 0.00348329 -9.62008e-26)
(0.923934 -0.0310526 -1.16336e-25)
(0.904853 -0.0792434 -1.48432e-27)
(0.905498 -0.130559 1.42677e-25)
(0.900255 -0.138244 -1.64606e-25)
(0.890769 -0.186758 0)
(0.905511 -0.240857 -3.54423e-28)
(0.949396 -0.287786 1.82183e-25)
(1.01284 -0.324257 -3.66192e-25)
(1.03887 -0.327389 -4.3516e-25)
(1.08952 -0.346449 -1.18832e-27)
(1.15048 -0.366768 4.82884e-25)
(1.2301 -0.381682 -6.146e-28)
(1.26456 -0.383519 5.86647e-25)
(1.32086 -0.386855 -2.82026e-28)
(1.35827 -0.39117 0)
(1.41096 -0.403109 -7.74305e-25)
(1.46953 -0.415606 -3.08092e-28)
(1.48898 -0.414611 9.83629e-25)
(1.52971 -0.439328 -8.76831e-28)
(1.57667 -0.465198 2.30632e-28)
(1.6557 -0.485967 -3.63774e-28)
(1.68925 -0.490296 1.10061e-24)
(1.75584 -0.513727 1.01811e-24)
(1.80912 -0.525612 -9.68297e-25)
(1.88467 -0.53129 4.25472e-31)
(1.97307 -0.526463 -1.32146e-27)
(2.0101 -0.525984 1.02587e-24)
(2.08576 -0.515215 9.66172e-29)
(2.14225 -0.486728 -1.06796e-27)
(2.20268 -0.447369 -1.88278e-27)
(2.24504 -0.402079 -1.87234e-24)
(2.24851 -0.390871 0)
(2.2678 -0.350375 -1.75001e-24)
(2.28271 -0.314606 1.75324e-24)
(2.30246 -0.282428 0)
(2.31081 -0.251886 -1.75614e-24)
(2.30644 -0.244179 0)
(2.3005 -0.222155 -1.60138e-24)
(2.28439 -0.200963 -1.50942e-24)
(2.27902 -0.184253 1.43383e-24)
(2.27017 -0.171793 -6.88956e-25)
(2.26695 -0.170456 6.75221e-25)
(2.25401 -0.159231 0)
(2.23245 -0.154385 2.18726e-27)
(2.23178 -0.164483 -1.39187e-24)
(2.23404 -0.18003 -1.20145e-24)
(2.22785 -0.180259 1.24192e-24)
(2.21361 -0.192531 1.34365e-24)
(2.22475 -0.219044 2.80929e-24)
(2.25624 -0.253733 -1.46036e-24)
(2.26813 -0.256847 -1.58642e-24)
(2.29525 -0.291896 -1.81074e-24)
(2.33786 -0.344958 8.09192e-27)
(2.44011 -0.410258 -2.02821e-24)
(2.48262 -0.414988 0)
(2.57783 -0.477319 0)
(2.70599 -0.555674 2.56778e-24)
(2.90485 -0.636363 0)
(2.99359 -0.647687 -2.86712e-24)
(3.21111 -0.728866 -2.52707e-27)
(3.51653 -0.827923 -2.83464e-24)
(3.65438 -0.847945 -2.84007e-24)
(3.9578 -0.915212 -2.72012e-24)
(1.27384 0.00743581 -1.10994e-26)
(1.24087 0.0166779 0)
(1.19575 0.0346014 -5.73918e-26)
(1.14846 0.0350146 5.98665e-26)
(1.08501 0.0218556 0)
(1.04577 0.0260705 -2.57694e-27)
(0.99676 0.00284575 -1.07077e-25)
(0.961439 -0.0337329 0)
(0.934907 -0.082079 0)
(0.918775 -0.131715 0)
(0.914134 -0.139175 -1.71108e-25)
(0.92238 -0.190402 0)
(0.942999 -0.246996 0)
(0.9697 -0.29123 3.69234e-25)
(1.02184 -0.325879 5.69255e-29)
(1.05745 -0.330682 -4.40983e-25)
(1.12917 -0.353854 -4.96585e-25)
(1.18491 -0.373447 4.91861e-25)
(1.24426 -0.384311 0)
(1.27555 -0.385287 1.87982e-27)
(1.34634 -0.390931 1.35999e-24)
(1.39289 -0.397218 -2.94199e-31)
(1.43393 -0.406837 -1.57184e-24)
(1.47896 -0.416232 0)
(1.50141 -0.415727 1.00168e-24)
(1.56041 -0.444245 0)
(1.60933 -0.470975 -9.78036e-25)
(1.66941 -0.487729 0)
(1.69577 -0.490281 1.11967e-24)
(1.77053 -0.515881 1.03803e-24)
(1.83882 -0.531683 0)
(1.90664 -0.535644 9.69302e-25)
(1.98155 -0.527268 0)
(2.01753 -0.526549 1.84348e-28)
(2.10416 -0.518577 -9.66006e-25)
(2.16738 -0.491354 0)
(2.21587 -0.449257 1.86171e-27)
(2.25071 -0.401397 2.276e-27)
(2.25719 -0.390668 -2.31508e-27)
(2.28999 -0.352826 -1.80311e-24)
(2.30605 -0.316912 1.78599e-24)
(2.31729 -0.283178 -8.96393e-25)
(2.3185 -0.251229 -9.00976e-25)
(2.31288 -0.243133 0)
(2.31282 -0.222025 -3.2733e-24)
(2.30742 -0.202167 -1.53841e-24)
(2.29945 -0.185188 0)
(2.279 -0.171424 -3.06175e-27)
(2.27217 -0.169585 6.90277e-25)
(2.2655 -0.158944 1.28863e-30)
(2.25713 -0.155496 -2.18877e-27)
(2.24866 -0.165129 2.03677e-27)
(2.24027 -0.179145 -1.23204e-24)
(2.23528 -0.179396 2.56974e-24)
(2.23565 -0.193463 2.70418e-27)
(2.24731 -0.22041 2.88436e-24)
(2.2632 -0.253041 0)
(2.27471 -0.255708 -1.63677e-24)
(2.31732 -0.293412 -3.09748e-27)
(2.35891 -0.34676 1.97806e-24)
(2.44584 -0.409313 -2.08268e-24)
(2.4901 -0.414103 0)
(2.6069 -0.481559 0)
(2.71835 -0.556325 2.63402e-24)
(2.90829 -0.634293 2.72071e-24)
(3.00602 -0.648124 -2.94951e-24)
(3.24147 -0.735284 -3.09929e-24)
(3.52159 -0.826639 -2.90802e-24)
(3.65989 -0.846642 -2.92491e-24)
(3.99239 -0.924814 -2.80795e-24)
(1.45073 -0.00504438 -5.71659e-27)
(1.4135 0.00565426 -4.71863e-27)
(1.35212 0.0246557 9.20981e-33)
(1.30362 0.025256 8.31831e-27)
(1.25517 0.0113086 7.25163e-27)
(1.22257 0.0144951 -5.47203e-32)
(1.16272 -0.00942789 1.08599e-25)
(1.11819 -0.0476608 0)
(1.09429 -0.0992267 1.51244e-27)
(1.09301 -0.154249 1.4142e-27)
(1.08741 -0.162147 1.75683e-25)
(1.08049 -0.213605 1.0505e-27)
(1.09806 -0.273535 1.9668e-25)
(1.13969 -0.323159 1.86624e-25)
(1.20454 -0.362224 0)
(1.23221 -0.365383 -4.47526e-25)
(1.28953 -0.385764 5.09203e-25)
(1.34823 -0.406138 5.01031e-25)
(1.42301 -0.419972 5.52615e-25)
(1.45597 -0.421053 -6.03417e-25)
(1.51051 -0.422304 6.90292e-25)
(1.54837 -0.426285 0)
(1.59149 -0.436257 -1.59963e-24)
(1.6425 -0.446865 -3.83179e-28)
(1.65922 -0.445546 1.13978e-27)
(1.69845 -0.47089 -9.97298e-25)
(1.74203 -0.497764 7.9585e-29)
(1.81333 -0.518289 1.09835e-24)
(1.84316 -0.521916 5.45427e-28)
(1.90589 -0.546233 1.05714e-24)
(1.96 -0.559287 0)
(2.03014 -0.564394 9.85768e-25)
(2.11312 -0.557987 -2.54879e-27)
(2.14759 -0.556891 -1.95892e-28)
(2.2192 -0.545212 -9.86004e-25)
(2.2739 -0.514582 0)
(2.32651 -0.471886 0)
(2.36363 -0.421379 0)
(2.36534 -0.409386 -1.98484e-24)
(2.38414 -0.367599 -2.67117e-27)
(2.39834 -0.329779 1.81774e-24)
(2.41463 -0.295595 -9.12424e-25)
(2.421 -0.263032 -2.78923e-27)
(2.41544 -0.254504 -2.83839e-27)
(2.40936 -0.232281 -1.6768e-24)
(2.39676 -0.211103 -1.57557e-24)
(2.39064 -0.193739 1.4917e-24)
(2.38177 -0.180749 1.27144e-30)
(2.37862 -0.179108 7.02835e-25)
(2.36828 -0.167978 0)
(2.35289 -0.164106 0)
(2.35102 -0.174652 0)
(2.35374 -0.19031 2.19602e-27)
(2.34841 -0.190632 1.32363e-24)
(2.33833 -0.204411 0)
(2.35079 -0.232757 1.47769e-24)
(2.38186 -0.26938 -1.54003e-24)
(2.39443 -0.272345 2.7703e-27)
(2.42592 -0.310059 0)
(2.47042 -0.366322 4.07596e-24)
(2.57207 -0.434917 -2.13281e-24)
(2.61535 -0.439742 0)
(2.71647 -0.506021 -2.74618e-27)
(2.84531 -0.589252 -4.9729e-27)
(3.04894 -0.674567 -5.56497e-28)
(3.14017 -0.686716 -3.031e-24)
(3.36659 -0.773647 -3.18976e-24)
(3.67178 -0.877388 4.66637e-27)
(3.81045 -0.897722 -3.00439e-24)
(4.12536 -0.970333 -2.88526e-24)
(1.46605 -0.00479015 2.76622e-26)
(1.43369 0.00405682 0)
(1.39253 0.0225489 0)
(1.34682 0.0232584 6.99177e-26)
(1.27698 0.011719 7.30633e-26)
(1.23538 0.0151017 1.06507e-25)
(1.18899 -0.0106734 2.28573e-25)
(1.15915 -0.0507734 0)
(1.12809 -0.101897 0)
(1.10781 -0.155347 0)
(1.1035 -0.163542 3.57082e-25)
(1.11618 -0.220108 2.02585e-25)
(1.1412 -0.280273 4.01831e-25)
(1.16311 -0.326633 -6.59028e-28)
(1.21492 -0.364137 -1.51643e-31)
(1.25435 -0.369754 -4.5197e-25)
(1.3346 -0.394139 5.19366e-25)
(1.38841 -0.413228 5.34766e-28)
(1.43935 -0.422771 1.1198e-24)
(1.46891 -0.423419 -1.21345e-24)
(1.54027 -0.427443 6.98452e-25)
(1.58857 -0.433003 -7.49607e-25)
(1.61771 -0.439866 -1.63388e-24)
(1.65325 -0.447436 -9.59906e-25)
(1.67378 -0.447368 -1.03271e-24)
(1.7327 -0.476462 -1.01419e-24)
(1.77922 -0.503891 1.01743e-24)
(1.82885 -0.520003 1.11921e-24)
(1.85059 -0.522063 0)
(1.92294 -0.549154 1.07158e-24)
(1.99322 -0.565895 -5.39817e-28)
(2.05566 -0.56898 -1.24615e-27)
(2.1229 -0.55894 -1.08152e-24)
(2.15634 -0.557834 -1.08518e-24)
(2.24069 -0.549327 0)
(2.30327 -0.519634 0)
(2.34172 -0.473843 -9.33806e-25)
(2.37 -0.420687 -1.01578e-24)
(2.37515 -0.409522 3.19239e-27)
(2.40791 -0.370195 2.68446e-27)
(2.42394 -0.332245 1.85276e-24)
(2.43092 -0.296282 0)
(2.42942 -0.262288 0)
(2.42259 -0.253435 2.84609e-27)