/*--------------------------------*- C++ -*----------------------------------*\
| =========                 |                                                 |
| \\      /  F ield         | OpenFOAM: The Open Source CFD Toolbox           |
|  \\    /   O peration     | Version:  v2012                                 |
|   \\  /    A nd           | Website:  www.openfoam.com                      |
|    \\/     M anipulation  |                                                 |
\*---------------------------------------------------------------------------*/
FoamFile
{
    version     2.0;
    format      ascii;
    class       volSymmTensorField;
    location    "1e-06";
    object      UPrime2Mean;
}
// * * * * * * * * * * * * * * * * * * * * * * * * * * * * * * * * * * * * * //

dimensions      [0 2 -2 0 0 0 0];


internalField   nonuniform List<symmTensor> 
10098
(
(0.000246489 -6.94059e-05 -1.46743e-28 0.000239515 -1.07649e-26 1.01886e-48)
(0.000490492 -9.1924e-05 2.90915e-29 0.000216569 5.19005e-29 1.82293e-53)
(0.000717775 -3.03563e-05 0 0.00011508 0 0)
(0.00068536 1.64254e-05 -1.29765e-27 3.07958e-05 -1.14386e-27 1.20491e-49)
(0.000610792 -1.36896e-05 -1.10155e-29 1.19236e-05 7.09245e-30 8.20067e-54)
(0.000689405 -7.45709e-05 -8.58953e-27 4.40532e-05 2.54096e-27 2.03155e-49)
(0.000793953 -3.31041e-05 1.8829e-27 1.08467e-05 -2.23653e-28 9.74997e-51)
(0.00070043 1.33904e-05 -7.7861e-29 1.13973e-05 9.03105e-31 3.04973e-53)
(0.00061544 2.89049e-05 1.82254e-27 1.6101e-05 -2.18057e-28 3.309e-50)
(0.000546002 3.85401e-05 -1.92121e-27 2.06348e-05 1.28708e-28 3.23409e-50)
(0.000476655 3.61509e-05 0 2.87506e-05 0 0)
(0.000420556 4.56588e-05 -2.58954e-27 3.45759e-05 2.59972e-28 4.59022e-50)
(0.000483496 0.000184205 -3.21282e-27 0.000181866 6.61694e-27 5.84835e-49)
(0.000510662 0.000149115 0 7.82353e-05 0 0)
(0.000417934 0.000125725 0 6.19836e-05 0 0)
(0.000368874 0.000117009 2.27878e-29 6.50827e-05 1.26955e-29 8.65524e-54)
(0.000291325 0.00011759 -9.40989e-27 8.75997e-05 5.8555e-27 2.75559e-48)
(0.0002014 9.40477e-05 -4.22742e-27 8.09556e-05 1.97538e-27 5.59532e-49)
(0.000150186 7.61588e-05 -1.10758e-29 7.30406e-05 -7.84973e-30 4.33586e-54)
(0.000130391 6.69839e-05 1.73825e-31 7.05406e-05 5.14653e-30 2.32639e-54)
(9.17373e-05 5.33795e-05 1.66562e-30 7.1581e-05 1.15827e-29 4.80948e-54)
(8.46679e-05 7.13477e-05 4.65638e-27 9.10845e-05 1.9882e-27 4.46175e-49)
(0.000100293 6.53677e-05 6.26115e-27 4.95655e-05 4.15716e-27 4.5096e-49)
(9.05695e-05 5.35409e-05 1.77864e-29 3.77012e-05 9.80882e-30 1.34146e-53)
(9.73143e-05 4.6968e-05 -1.18832e-30 2.6894e-05 -1.40368e-30 9.48356e-55)
(8.6298e-05 3.43013e-05 0 1.79266e-05 0 0)
(6.14014e-05 2.63577e-05 -2.8965e-30 2.14482e-05 -1.29778e-30 2.52219e-55)
(4.8507e-05 2.50509e-05 -7.8104e-27 3.10352e-05 -6.98288e-27 1.78861e-48)
(4.37955e-05 2.61842e-05 -6.53736e-32 3.33807e-05 -5.63719e-31 5.74141e-56)
(3.30405e-05 1.74714e-05 5.11721e-27 3.18383e-05 6.27452e-27 1.4067e-48)
(3.06375e-05 7.63806e-06 5.27334e-30 3.62821e-05 -3.01331e-30 3.75865e-54)
(3.56645e-05 -4.6987e-06 6.06699e-28 4.45296e-05 6.46629e-27 1.02319e-48)
(4.38082e-05 -1.93844e-05 3.63587e-30 5.17642e-05 9.92016e-31 9.5862e-55)
(3.86712e-05 -2.29834e-05 -2.12538e-27 5.13589e-05 7.79279e-27 1.29188e-48)
(5.70658e-05 -3.34146e-05 -7.15812e-30 4.1739e-05 1.19169e-29 3.75434e-54)
(9.37064e-05 -4.52749e-05 -6.53788e-30 3.42757e-05 6.00933e-30 1.21392e-54)
(0.000114649 -4.68103e-05 0 2.94881e-05 0 0)
(0.000128952 -4.619e-05 0 2.53803e-05 0 0)
(0.0001278 -4.31708e-05 0 2.51134e-05 0 0)
(0.000157854 -4.70077e-05 -2.09838e-26 2.39632e-05 1.26704e-26 8.09993e-48)
(0.000192789 -4.74158e-05 -1.32102e-29 2.18648e-05 6.13846e-30 7.30537e-54)
(0.000194769 -3.78179e-05 -1.68558e-26 1.57974e-05 6.37778e-27 2.99956e-48)
(0.000197746 -2.25008e-05 -7.63661e-30 9.0559e-06 3.21957e-31 1.07487e-54)
(0.000182818 -1.0815e-05 9.74199e-30 5.40155e-06 3.92733e-33 1.35578e-54)
(0.00015588 6.51623e-07 1.25551e-29 4.90596e-06 2.19927e-31 1.99931e-54)
(0.000128784 5.65619e-06 3.25544e-26 5.41811e-06 -2.81084e-27 1.30839e-47)
(0.00010312 8.09126e-06 6.0642e-26 5.88424e-06 -2.911e-27 5.13096e-47)
(7.29496e-05 8.6341e-06 2.6348e-26 6.53691e-06 -2.64174e-29 1.23412e-47)
(5.10901e-05 7.16282e-06 2.25349e-26 7.13599e-06 9.4183e-28 1.18231e-47)
(3.52668e-05 3.13034e-06 -1.90081e-26 6.48407e-06 -9.38154e-28 1.15634e-47)
(2.47344e-05 -7.15834e-07 -1.39054e-26 6.15992e-06 -1.24135e-27 9.74292e-48)
(2.17669e-05 -3.95095e-06 -9.15516e-27 6.09765e-06 -1.4503e-27 6.98869e-48)
(2.24531e-05 -5.7208e-06 5.22721e-30 5.02471e-06 3.32756e-30 8.80206e-54)
(2.62168e-05 -6.8725e-06 -4.46206e-27 3.12558e-06 -1.06584e-27 7.20831e-48)
(3.14779e-05 -6.92935e-06 -2.27011e-27 1.88293e-06 -2.64989e-28 7.61378e-48)
(3.07968e-05 -5.08106e-06 0 1.06868e-06 0 0)
(3.56747e-05 -3.48256e-06 0 1.06397e-06 0 0)
(4.09012e-05 -2.42266e-06 -1.74213e-28 1.52558e-06 -3.03991e-27 7.39557e-48)
(3.62071e-05 1.61333e-07 7.56255e-34 3.13991e-06 -2.70914e-33 2.51015e-60)
(2.64067e-05 -1.30393e-06 6.02149e-27 5.02828e-06 -6.64063e-27 1.01181e-47)
(2.48929e-05 -2.37643e-06 -1.05168e-29 5.70531e-06 1.19928e-29 2.77493e-53)
(2.93354e-05 1.76761e-07 5.71558e-27 6.11753e-06 -7.5987e-27 1.13789e-47)
(2.46801e-05 -2.67571e-06 1.02929e-26 7.34064e-06 -9.23902e-27 1.45228e-47)
(3.31243e-05 -1.28278e-05 0 7.67141e-06 0 0)
(3.40526e-05 -1.23334e-05 0 6.31245e-06 0 0)
(2.30956e-05 -2.89043e-06 -3.55616e-30 3.24984e-06 3.67523e-30 4.4948e-54)
(3.24399e-05 -7.05974e-06 -1.24587e-29 2.0208e-06 3.24294e-30 5.84535e-54)
(3.91285e-05 -1.33335e-06 -6.43695e-30 1.08938e-07 2.20422e-31 1.48809e-54)
(1.84487e-05 -4.53372e-07 3.44696e-30 6.97626e-07 2.28867e-30 1.05731e-53)
(0.000212681 -8.37065e-05 7.76285e-28 0.000254956 -1.18827e-26 1.11378e-48)
(0.000451971 -9.9283e-05 2.54059e-29 0.000228407 5.40393e-29 1.86371e-53)
(0.000690006 -3.34535e-05 -4.84862e-30 0.000123021 5.01578e-29 2.0808e-53)
(0.000660815 1.50276e-05 -8.24209e-31 3.38787e-05 -2.09693e-29 1.35923e-53)
(0.000562683 -1.20986e-05 -9.33212e-30 2.02746e-05 9.76657e-30 8.45084e-54)
(0.000656305 -5.43142e-05 -7.59414e-27 3.51402e-05 1.95493e-27 1.57482e-49)
(0.000770879 -2.85364e-05 1.97839e-27 1.19029e-05 -2.33729e-28 9.58804e-51)
(0.000676361 2.09404e-05 0 1.29292e-05 0 0)
(0.000585452 2.99141e-05 -7.25672e-29 1.64811e-05 -2.7107e-30 2.80136e-53)
(0.000513823 4.23072e-05 -1.38647e-33 2.37792e-05 5.02911e-37 4.8959e-63)
(0.000447637 3.8226e-05 1.56145e-33 3.34763e-05 -5.48716e-35 7.22644e-63)
(0.000401567 5.30031e-05 -1.06375e-28 4.54752e-05 -1.51285e-29 8.13814e-53)
(0.000466963 0.000181331 -3.20803e-27 0.000175863 5.95081e-27 5.30342e-49)
(0.000473553 0.000154413 -2.65313e-27 8.76011e-05 4.88156e-27 9.74458e-49)
(0.000383533 0.000127955 4.57123e-29 6.87642e-05 2.6337e-29 1.77232e-53)
(0.000340026 0.000123212 4.58412e-29 7.67012e-05 2.74471e-29 3.47771e-53)
(0.000273866 0.000120875 -9.3769e-27 9.6589e-05 6.02756e-27 2.90957e-48)
(0.000184285 9.57601e-05 -1.79389e-29 9.23367e-05 -1.55084e-29 6.75918e-54)
(0.000131089 7.46855e-05 0 8.32346e-05 0 0)
(0.000111634 6.40856e-05 4.85635e-27 7.76923e-05 1.217e-27 3.17424e-49)
(7.92483e-05 4.98418e-05 -6.23181e-31 7.50524e-05 -1.1884e-29 4.83815e-54)
(7.50249e-05 6.46211e-05 4.6074e-27 8.55455e-05 2.86883e-27 4.02724e-49)
(8.4753e-05 5.85834e-05 6.11025e-27 4.96868e-05 4.73889e-27 5.11493e-49)
(7.62734e-05 4.78157e-05 -8.33852e-30 3.97911e-05 -4.33596e-30 3.12142e-54)
(8.22496e-05 3.92303e-05 7.99054e-31 2.5458e-05 1.81803e-30 8.96027e-55)
(7.71929e-05 3.01757e-05 0 1.77423e-05 0 0)
(5.77262e-05 2.10586e-05 -1.69042e-26 1.92172e-05 -1.04585e-26 6.59439e-48)
(4.57228e-05 1.89545e-05 -1.48591e-26 3.04077e-05 -1.46818e-26 8.19789e-48)
(3.96255e-05 1.91544e-05 7.31485e-27 3.19157e-05 7.61065e-27 2.11763e-48)
(3.19935e-05 1.18019e-05 0 3.07206e-05 0 0)
(3.20029e-05 3.5538e-06 0 3.54812e-05 0 0)
(4.07772e-05 -1.0326e-05 2.99419e-28 4.48126e-05 1.39184e-26 4.75389e-48)
(5.32017e-05 -2.71273e-05 -3.80433e-30 5.44399e-05 -6.73346e-31 9.30359e-55)
(4.87478e-05 -3.05622e-05 -3.04871e-27 5.27246e-05 8.34894e-27 1.48177e-48)
(6.8348e-05 -3.97892e-05 -8.31744e-30 4.36189e-05 1.21609e-29 3.8176e-54)
(0.000104041 -4.88852e-05 0 3.3777e-05 0 0)
(0.000132297 -5.29312e-05 0 3.12045e-05 0 0)
(0.000149466 -5.17881e-05 0 2.58664e-05 0 0)
(0.000146829 -4.86022e-05 9.92542e-31 2.66442e-05 5.11541e-31 1.1767e-54)
(0.000173377 -4.96787e-05 -2.06454e-30 2.34763e-05 1.68289e-30 1.52649e-54)
(0.000207801 -4.9885e-05 0 2.2685e-05 0 0)
(0.000216374 -3.98652e-05 -7.24612e-30 1.58143e-05 1.42485e-30 1.19898e-54)
(0.000221907 -2.4046e-05 -1.25974e-32 9.70677e-06 3.11662e-33 1.35335e-60)
(0.000205368 -1.1014e-05 1.26519e-32 5.73035e-06 -2.09418e-33 1.45417e-60)
(0.000174111 2.50931e-06 -1.33657e-29 5.33542e-06 -3.49515e-31 1.9985e-54)
(0.000140906 7.15522e-06 3.4782e-26 5.87271e-06 -2.85249e-27 1.38027e-47)
(0.000114898 1.03394e-05 3.27956e-26 6.61693e-06 -1.36298e-27 1.36937e-47)
(8.48066e-05 1.03311e-05 0 7.13985e-06 0 0)
(6.02437e-05 9.3805e-06 1.7939e-29 7.97501e-06 2.69023e-30 6.39368e-54)
(4.10075e-05 4.55985e-06 2.90103e-30 7.0769e-06 4.62082e-31 2.42099e-55)
(2.66752e-05 4.19212e-07 -3.07766e-26 7.04827e-06 -2.70693e-27 4.12657e-47)
(2.20872e-05 -2.68429e-06 -1.04921e-26 6.61755e-06 -1.43175e-27 7.21204e-48)
(2.0881e-05 -4.27661e-06 0 5.4825e-06 0 0)
(2.25189e-05 -5.87881e-06 1.00172e-30 3.26057e-06 4.56834e-31 4.73855e-55)
(2.72167e-05 -6.48984e-06 0 2.06824e-06 0 0)
(2.66418e-05 -4.85509e-06 0 1.18034e-06 0 0)
(2.93362e-05 -3.49615e-06 1.69732e-30 1.27635e-06 -4.51023e-30 2.66162e-53)
(3.3955e-05 -2.50162e-06 -1.16841e-31 1.91692e-06 -6.13875e-30 2.37196e-53)
(3.15949e-05 -4.77739e-07 2.72432e-27 3.87087e-06 -5.90485e-27 9.56796e-48)
(2.38693e-05 -2.63325e-06 1.15037e-29 6.29015e-06 -1.40074e-29 3.40335e-53)
(2.2856e-05 -4.2829e-06 1.33193e-29 7.40185e-06 -1.36465e-29 2.77373e-53)
(2.56969e-05 -1.42846e-06 -1.11461e-30 7.99031e-06 1.99274e-30 5.39153e-55)
(2.36323e-05 -4.22979e-06 1.03378e-29 9.13201e-06 -1.2135e-29 1.77093e-53)
(3.73697e-05 -1.65522e-05 2.36187e-26 1.00223e-05 -1.13323e-26 1.61288e-47)
(3.91446e-05 -1.62225e-05 0 8.59624e-06 0 0)
(2.25072e-05 -4.6487e-06 0 4.92559e-06 0 0)
(3.61725e-05 -9.62478e-06 -2.98936e-26 3.14623e-06 8.12636e-27 2.56388e-47)
(4.63825e-05 -4.27684e-06 -2.04432e-30 5.14786e-07 1.9044e-31 1.07603e-55)
(1.48008e-05 5.13598e-07 4.98635e-27 1.59405e-07 1.55308e-27 2.34761e-47)
(0.000217892 -8.10982e-05 6.40157e-30 0.000241501 5.50599e-30 5.02409e-55)
(0.000477101 -9.76766e-05 2.78544e-29 0.00021689 5.32208e-29 1.92767e-53)
(0.000722764 -3.74016e-05 -1.73627e-27 0.000119609 -5.38718e-27 5.10522e-49)
(0.000694195 1.46327e-05 8.21985e-28 3.44544e-05 1.23444e-27 1.22896e-49)
(0.000603663 -1.5181e-05 0 3.20755e-05 0 0)
(0.000723779 -3.59459e-05 4.13135e-29 2.6611e-05 -4.66947e-30 1.95339e-53)
(0.000830201 -2.34432e-05 -1.93123e-27 9.69463e-06 2.10724e-28 1.12172e-50)
(0.000704384 2.53141e-05 -1.84134e-27 1.36015e-05 1.6475e-28 2.28449e-50)
(0.000617612 3.41324e-05 -7.25324e-29 1.61859e-05 -3.23042e-30 2.80178e-53)
(0.000551282 4.76791e-05 2.11692e-27 2.46797e-05 -1.15431e-28 3.63654e-50)
(0.000480578 4.48443e-05 -6.28495e-29 3.53603e-05 -3.12025e-30 2.46297e-53)
(0.000432487 7.19504e-05 -5.27625e-29 7.22264e-05 -9.613e-30 2.00864e-53)
(0.00049636 0.00018118 5.49031e-29 0.000155026 3.77655e-29 2.04931e-53)
(0.000510182 0.000161571 1.62673e-29 8.75868e-05 9.41639e-30 1.49405e-54)
(0.000422319 0.000136039 2.91369e-27 6.99083e-05 -2.81409e-27 6.30584e-49)
(0.000373925 0.000130815 -4.5427e-27 7.74651e-05 2.387e-27 5.97738e-49)
(0.000294204 0.000126399 -4.93336e-27 9.61914e-05 2.86929e-27 7.15824e-49)
(0.000201519 0.000101598 0 9.27e-05 0 0)
(0.000149899 8.21563e-05 5.2009e-27 8.39248e-05 3.94711e-28 3.93464e-49)
(0.000129864 7.11735e-05 -5.75108e-33 7.77171e-05 7.03167e-30 4.02086e-54)
(9.17907e-05 5.57301e-05 4.94628e-27 7.3708e-05 2.29818e-27 3.06357e-49)
(8.13967e-05 6.5146e-05 0 7.67741e-05 0 0)
(9.42104e-05 6.22515e-05 0 4.7772e-05 0 0)
(8.61064e-05 5.21948e-05 7.66577e-30 3.7838e-05 4.02371e-30 2.94045e-54)
(9.22749e-05 4.27145e-05 2.37624e-26 2.41971e-05 1.19561e-26 6.66354e-48)
(8.40982e-05 3.17216e-05 2.48949e-33 1.63727e-05 1.05236e-33 7.99305e-62)
(6.14896e-05 2.3899e-05 -9.44995e-27 1.87729e-05 -5.40033e-27 1.77882e-48)
(4.84046e-05 2.37706e-05 -8.71e-27 2.92899e-05 -7.48826e-27 2.18921e-48)
(4.29903e-05 2.40388e-05 -8.55049e-27 3.08349e-05 -7.73139e-27 2.23533e-48)
(3.27804e-05 1.59385e-05 -2.31683e-30 2.94139e-05 -5.88991e-30 1.62095e-54)
(3.07023e-05 6.72331e-06 5.14719e-30 3.43208e-05 -3.481e-30 3.75259e-54)
(3.56392e-05 -5.16971e-06 1.69199e-27 4.40713e-05 1.44198e-26 5.15685e-48)
(4.35912e-05 -2.03566e-05 3.62066e-30 5.36628e-05 6.77952e-31 9.21152e-55)
(3.951e-05 -2.43605e-05 0 5.21006e-05 0 0)
(5.88414e-05 -3.53746e-05 -7.51116e-30 4.27467e-05 1.21205e-29 3.85372e-54)
(9.61041e-05 -4.64546e-05 -1.37373e-29 3.36571e-05 1.23504e-29 5.25956e-54)
(0.00011746 -4.8295e-05 -2.89018e-30 3.00376e-05 1.54695e-30 4.71116e-55)
(0.00013229 -4.69745e-05 0 2.47605e-05 0 0)
(0.00013131 -4.42845e-05 0 2.58933e-05 0 0)
(0.000161366 -4.73789e-05 0 2.39071e-05 0 0)
(0.000197452 -4.8357e-05 0 2.32287e-05 0 0)
(0.000201921 -3.79286e-05 0 1.62413e-05 0 0)
(0.00020549 -2.15225e-05 0 9.75431e-06 0 0)
(0.000189286 -8.54038e-06 9.78306e-30 5.85574e-06 2.50835e-31 1.34523e-54)
(0.000160779 4.17739e-06 -3.68439e-26 5.81496e-06 3.93993e-27 1.48553e-47)
(0.000132837 8.25288e-06 -1.19359e-32 6.50283e-06 8.66713e-34 1.69496e-60)
(0.00010648 1.10121e-05 1.87262e-29 7.36225e-06 1.38212e-30 4.60318e-54)
(7.53143e-05 1.04525e-05 1.4007e-26 8.07261e-06 1.17645e-28 3.37837e-48)
(5.24618e-05 8.80145e-06 1.65359e-29 8.95115e-06 3.07152e-30 6.40119e-54)
(3.61259e-05 3.87857e-06 3.99144e-26 7.98034e-06 2.42952e-27 4.95713e-47)
(2.53355e-05 -2.84174e-07 -1.49492e-26 7.77224e-06 -1.65695e-27 1.08294e-47)
(2.20822e-05 -4.03388e-06 9.68687e-27 7.39366e-06 1.73957e-27 7.47127e-48)
(2.26466e-05 -6.0683e-06 0 6.21391e-06 0 0)
(2.62963e-05 -7.46084e-06 9.57714e-27 3.81212e-06 2.64236e-27 3.25043e-47)
(3.15056e-05 -7.57173e-06 -2.44292e-27 2.33977e-06 -4.67515e-28 8.65199e-48)
(3.08673e-05 -5.47045e-06 1.95554e-27 1.26913e-06 -1.2194e-27 8.54971e-48)
(3.57783e-05 -3.9051e-06 -6.46967e-28 1.26683e-06 2.41684e-27 8.02591e-48)
(4.13574e-05 -2.56793e-06 -2.95979e-28 1.841e-06 -3.55223e-27 8.27904e-48)
(3.65046e-05 1.20743e-07 3.06997e-27 3.7398e-06 -1.19633e-26 4.06369e-47)
(2.63686e-05 -1.5777e-06 0 5.99702e-06 0 0)
(2.46143e-05 -3.09387e-06 0 6.30381e-06 0 0)
(2.93603e-05 4.80731e-08 -1.19874e-26 7.48547e-06 1.79228e-26 5.07929e-47)
(2.47186e-05 -3.12047e-06 1.10317e-26 8.84048e-06 -1.09782e-26 1.66448e-47)
(3.34868e-05 -1.4363e-05 2.29556e-26 9.27128e-06 -1.14572e-26 1.75099e-47)
(3.47568e-05 -1.39241e-05 -2.70406e-29 7.66689e-06 1.2974e-29 2.38162e-53)
(2.33712e-05 -3.6642e-06 -1.51958e-26 4.24057e-06 9.22165e-27 2.29229e-47)
(3.37597e-05 -8.42958e-06 -3.00447e-26 2.6458e-06 7.8916e-27 2.77963e-47)
(4.06973e-05 -2.37996e-06 -3.06522e-26 2.07368e-07 1.75787e-27 2.47451e-47)
(1.82071e-05 -3.09803e-07 4.75059e-30 4.03199e-07 1.93135e-30 1.47558e-53)
(0.000188838 -9.32386e-05 -2.34677e-27 0.000231952 1.15427e-26 1.05578e-48)
(0.000444512 -0.000103728 -2.05469e-28 0.000207866 1.03836e-26 9.73742e-49)
(0.000697495 -4.68509e-05 -1.34641e-27 0.000116695 -5.21877e-27 4.89553e-49)
(0.000678244 1.04328e-05 0 3.64012e-05 0 0)
(0.000562009 -1.21422e-05 0 4.77448e-05 0 0)
(0.000695903 -2.21054e-05 0 2.30276e-05 0 0)
(0.000803316 -1.34393e-05 -2.02409e-27 8.45385e-06 1.93773e-28 1.41289e-50)
(0.000681925 2.99079e-05 -1.8176e-27 1.49861e-05 1.643e-28 2.50192e-50)
(0.000588116 3.72575e-05 -7.25279e-29 1.70447e-05 -3.75811e-30 2.80377e-53)
(0.000517778 5.07146e-05 4.16676e-27 2.79311e-05 -1.91165e-28 1.57033e-49)
(0.000453265 4.8726e-05 0 3.97893e-05 0 0)
(0.000415065 8.68887e-05 5.22081e-29 0.000108981 1.20299e-29 1.98918e-53)
(0.000475308 0.000171875 5.41437e-29 0.000141785 3.59489e-29 2.04154e-53)
(0.000472531 0.000162652 3.11707e-27 9.35223e-05 -4.49751e-27 9.40365e-49)
(0.000388813 0.000138804 2.74683e-27 7.77419e-05 -2.91897e-27 6.64092e-49)
(0.000345579 0.000133203 -4.20261e-27 8.46677e-05 2.50318e-27 6.30737e-49)
(0.0002773 0.000127149 -4.88621e-27 0.000101041 2.6661e-27 7.08381e-49)
(0.000184906 0.000100622 1.75515e-29 9.9035e-05 1.54985e-29 6.60079e-54)
(0.000131318 7.94185e-05 4.96261e-27 9.23217e-05 6.12365e-28 4.06583e-49)
(0.000111748 6.80944e-05 5.0042e-27 8.54556e-05 1.40906e-27 3.37948e-49)
(7.9588e-05 5.23641e-05 9.15211e-27 7.87887e-05 5.13031e-27 1.23518e-48)
(7.29406e-05 5.96754e-05 -4.97843e-27 7.27915e-05 -4.11546e-27 3.90176e-49)
(8.08176e-05 5.80185e-05 -6.66903e-27 5.11259e-05 -5.523e-27 6.28758e-49)
(7.3323e-05 4.80313e-05 7.33263e-30 4.2041e-05 3.65334e-30 2.77278e-54)
(7.91905e-05 4.01148e-05 1.10921e-26 2.78373e-05 6.48838e-27 1.744e-48)
(7.66185e-05 2.98556e-05 -2.05326e-30 1.80884e-05 2.92389e-30 7.10247e-54)
(5.93239e-05 2.29822e-05 -1.04588e-29 2.14058e-05 -3.709e-30 3.88401e-54)
(4.66909e-05 2.077e-05 -8.12636e-27 3.36249e-05 -8.24396e-27 2.33502e-48)
(3.99962e-05 2.06478e-05 -7.77046e-27 3.57096e-05 -8.48856e-27 2.3497e-48)
(3.23033e-05 1.25147e-05 4.98336e-27 3.33352e-05 7.22481e-27 1.78988e-48)
(3.22464e-05 3.99951e-06 -2.88112e-30 3.7002e-05 1.93004e-30 9.46014e-55)
(4.04293e-05 -9.85106e-06 3.50514e-28 4.90689e-05 7.86177e-27 1.38454e-48)
(5.22403e-05 -2.77554e-05 -2.19422e-27 6.06368e-05 9.34634e-27 1.58754e-48)
(4.89254e-05 -3.20469e-05 3.23374e-27 5.89702e-05 -9.3224e-27 1.64503e-48)
(6.91984e-05 -4.20884e-05 0 4.72739e-05 0 0)
(0.000105006 -5.12784e-05 0 3.64771e-05 0 0)
(0.000133839 -5.48634e-05 0 3.26975e-05 0 0)
(0.000151038 -5.34661e-05 -1.98238e-26 2.70344e-05 1.31557e-26 9.75995e-48)
(0.000148316 -5.01279e-05 -2.49987e-30 2.8244e-05 -6.19393e-31 4.72307e-54)
(0.000174901 -5.17111e-05 3.41546e-30 2.60908e-05 -3.17676e-30 6.01027e-54)
(0.000210517 -5.20569e-05 -1.62478e-26 2.50492e-05 7.94391e-27 2.88139e-48)
(0.0002218 -4.17819e-05 0 1.77305e-05 0 0)
(0.000228122 -2.38345e-05 2.11949e-26 1.03806e-05 -5.29684e-27 3.74286e-48)
(0.000210037 -9.13947e-06 2.08161e-29 6.08263e-06 5.39947e-31 5.38122e-54)
(0.000177035 4.93971e-06 4.74801e-30 6.07684e-06 9.55292e-32 2.31857e-55)
(0.000143175 9.47555e-06 3.65737e-26 6.92489e-06 -2.69791e-27 1.5027e-47)
(0.000116701 1.24923e-05 0 7.78335e-06 0 0)
(8.61207e-05 1.25856e-05 1.51269e-26 8.53208e-06 1.73141e-28 3.51496e-48)
(6.07789e-05 1.0972e-05 -3.60697e-29 9.37423e-06 -6.37518e-30 2.57026e-53)
(4.12568e-05 5.66674e-06 2.17529e-26 8.3918e-06 1.34286e-27 1.28152e-47)
(2.69509e-05 8.67023e-07 -9.84988e-30 8.22397e-06 -3.34285e-30 5.49438e-54)
(2.23403e-05 -2.50887e-06 1.09501e-26 7.58255e-06 1.82078e-27 7.74355e-48)
(2.11311e-05 -4.37791e-06 -9.02969e-27 6.27587e-06 -2.07175e-27 8.20283e-48)
(2.28093e-05 -6.17641e-06 1.2429e-26 3.84306e-06 2.8148e-27 3.45086e-47)
(2.76315e-05 -6.81395e-06 -3.4762e-27 2.29638e-06 -4.65554e-28 9.16117e-48)
(2.70789e-05 -5.0103e-06 -5.60047e-31 1.21998e-06 3.54357e-31 1.02178e-54)
(2.97985e-05 -3.49523e-06 -1.98671e-27 1.31058e-06 2.7344e-27 8.54189e-48)
(3.47236e-05 -2.32099e-06 1.02492e-27 2.01881e-06 -3.95427e-27 8.81458e-48)
(3.21983e-05 -1.0312e-07 2.67696e-27 4.18334e-06 -6.48445e-27 1.07713e-47)
(2.39563e-05 -2.33959e-06 0 7.08413e-06 0 0)
(2.38399e-05 -3.33548e-06 9.49883e-27 7.59191e-06 -9.24359e-27 1.33224e-47)
(2.58943e-05 -1.20178e-06 -1.55468e-26 8.31205e-06 1.92294e-26 5.38195e-47)
(2.36989e-05 -4.07633e-06 1.25457e-26 9.85273e-06 -1.1861e-26 1.78475e-47)
(3.74299e-05 -1.70051e-05 0 1.07542e-05 0 0)
(3.95587e-05 -1.67275e-05 0 9.16037e-06 0 0)
(2.28011e-05 -4.69986e-06 -1.7652e-26 5.16048e-06 1.02502e-26 2.44686e-47)
(3.72748e-05 -9.61058e-06 0 3.09557e-06 0 0)
(4.78588e-05 -3.72969e-06 3.40441e-26 4.40423e-07 -2.3667e-27 2.67675e-47)
(1.48293e-05 6.92244e-07 -6.2627e-27 3.29257e-07 -2.60738e-27 2.71586e-47)
(0.000191905 -9.16952e-05 5.2312e-29 0.00022323 3.02559e-29 3.21146e-53)
(0.000476203 -9.91966e-05 -1.94376e-28 0.000198949 9.92455e-27 9.29884e-49)
(0.000737713 -5.00817e-05 0 0.00011331 0 0)
(0.000714957 1.29631e-05 -2.0184e-28 3.94284e-05 -1.37273e-27 1.30343e-49)
(0.000601392 -7.03531e-06 1.05349e-29 6.91078e-05 -2.17095e-29 9.62134e-54)
(0.00076296 -1.94931e-05 -9.35158e-29 2.55425e-05 7.96473e-30 8.60086e-53)
(0.000856995 -1.65079e-06 1.8315e-27 7.73929e-06 -1.78828e-28 1.86562e-50)
(0.000707634 3.60483e-05 -7.84088e-29 1.60925e-05 -2.39372e-30 3.08412e-53)
(0.000618749 4.20641e-05 -1.98111e-27 1.69145e-05 -1.21614e-28 2.88894e-50)
(0.000552569 5.66908e-05 2.1457e-27 2.90438e-05 -1.16485e-28 4.40989e-50)
(0.000485376 5.64272e-05 2.71979e-27 4.12339e-05 -3.61621e-28 5.5971e-50)
(0.000442137 9.14687e-05 4.44943e-27 9.65667e-05 -2.31449e-27 1.99454e-49)
(0.000493604 0.000167098 5.43638e-29 0.000125077 3.39242e-29 2.03391e-53)
(0.000502217 0.000167184 -1.86607e-27 9.23908e-05 2.09291e-27 2.25341e-49)
(0.000422323 0.000144836 -2.84991e-27 7.78959e-05 3.16751e-27 7.054e-49)
(0.000375716 0.000139229 4.61713e-29 8.4501e-05 2.98561e-29 3.50141e-53)
(0.000295164 0.000131967 -5.12114e-27 0.000100634 2.568e-27 7.04938e-49)
(0.000199994 0.000105552 1.75147e-29 9.88134e-05 1.54414e-29 6.52784e-54)
(0.000147543 8.54377e-05 0 9.16619e-05 0 0)
(0.000127334 7.37197e-05 5.43542e-27 8.43229e-05 1.34406e-27 3.49158e-49)
(8.99209e-05 5.67835e-05 2.25866e-31 7.67578e-05 3.0773e-30 3.37222e-55)
(7.75944e-05 5.91424e-05 -5.40673e-27 6.43612e-05 -4.53163e-27 4.19723e-49)
(8.90556e-05 6.07999e-05 -7.54407e-27 4.81956e-05 -5.71132e-27 7.00932e-49)
(8.1472e-05 5.14391e-05 0 3.91501e-05 0 0)
(8.72465e-05 4.26555e-05 0 2.57796e-05 0 0)
(8.24738e-05 3.07514e-05 4.02926e-31 1.62708e-05 -1.46229e-30 1.767e-54)
(6.29888e-05 2.55981e-05 2.35446e-33 2.06451e-05 1.36829e-33 1.05443e-61)
(4.92669e-05 2.52055e-05 -1.87487e-26 3.1651e-05 -1.66144e-26 9.94531e-48)
(4.289e-05 2.4957e-05 1.89331e-33 3.35619e-05 1.7765e-33 1.09498e-61)
(3.29098e-05 1.62099e-05 5.85299e-27 3.12241e-05 7.21476e-27 1.88669e-48)
(3.12278e-05 6.89531e-06 -2.5846e-30 3.52942e-05 1.86606e-30 9.54783e-55)
(3.60734e-05 -4.60621e-06 -1.01192e-29 4.71664e-05 -7.55044e-30 7.97586e-54)
(4.38261e-05 -2.08069e-05 -8.20991e-30 5.83617e-05 -1.82968e-30 4.73791e-54)
(4.06998e-05 -2.55503e-05 2.62022e-27 5.668e-05 -9.44769e-27 1.73542e-48)
(6.07889e-05 -3.75291e-05 4.9602e-27 4.56668e-05 -7.96913e-27 1.60504e-48)
(9.852e-05 -4.88431e-05 7.41521e-27 3.58966e-05 -7.01512e-27 1.85176e-48)
(0.000120549 -4.97662e-05 -8.78429e-27 3.08868e-05 6.93722e-27 2.14608e-48)
(0.000135364 -4.81743e-05 -3.78848e-26 2.53084e-05 2.61813e-26 4.21796e-47)
(0.000134504 -4.55727e-05 0 2.71372e-05 0 0)
(0.000164313 -4.95636e-05 -2.37626e-26 2.66361e-05 1.49393e-26 1.03498e-47)
(0.000201245 -5.04949e-05 1.3445e-30 2.5704e-05 -6.49337e-31 6.07504e-56)
(0.000208826 -3.97331e-05 0 1.82028e-05 0 0)
(0.000213732 -2.13926e-05 2.1128e-26 1.05463e-05 -5.33136e-27 3.94623e-48)
(0.000195856 -6.257e-06 -1.96936e-29 6.26443e-06 -1.03626e-30 5.37989e-54)
(0.000165116 6.58164e-06 3.8906e-26 6.69016e-06 -3.83072e-27 1.61762e-47)
(0.000135959 1.0495e-05 3.65336e-26 7.6677e-06 -2.51627e-27 1.5669e-47)
(0.000109171 1.30532e-05 0 8.63911e-06 0 0)
(7.75788e-05 1.26723e-05 0 9.60723e-06 0 0)
(5.37352e-05 1.03712e-05 0 1.04808e-05 0 0)
(3.68393e-05 4.93374e-06 -2.08906e-26 9.38871e-06 -1.73622e-27 1.32949e-47)
(2.57501e-05 1.44711e-07 -1.85281e-29 9.07076e-06 -7.2626e-30 2.24064e-53)
(2.23365e-05 -3.81234e-06 -1.31256e-29 8.78545e-06 -8.05537e-30 2.41419e-53)
(2.27247e-05 -6.16571e-06 -9.61161e-30 7.19095e-06 -7.72509e-30 2.76491e-53)
(2.62334e-05 -7.78739e-06 5.15002e-27 4.49082e-06 1.80186e-27 9.10155e-48)
(3.15369e-05 -7.97701e-06 0 2.65186e-06 0 0)
(3.09229e-05 -5.75353e-06 -2.02058e-27 1.36282e-06 1.11985e-27 9.80993e-48)
(3.55469e-05 -4.17056e-06 -1.11582e-30 1.30953e-06 -3.97683e-30 2.65473e-53)
(4.13623e-05 -2.69435e-06 3.56561e-28 1.88676e-06 3.78256e-27 9.32806e-48)
(3.66521e-05 2.20794e-07 -7.35262e-34 3.90035e-06 3.35816e-33 3.07678e-60)
(2.62083e-05 -1.63465e-06 6.78293e-27 6.10363e-06 -8.29793e-27 1.28075e-47)
(2.30534e-05 -3.90473e-06 -2.6423e-30 9.00039e-06 3.03126e-30 1.15272e-54)
(2.91388e-05 -4.81275e-08 -6.6633e-27 7.546e-06 9.76486e-27 1.50133e-47)
(2.46427e-05 -3.18705e-06 1.19579e-26 9.05799e-06 -1.18863e-26 1.91642e-47)
(3.41275e-05 -1.44473e-05 3.20165e-29 8.93158e-06 -1.65965e-29 3.45154e-53)
(3.58871e-05 -1.37675e-05 2.74531e-29 6.92511e-06 -1.23484e-29 2.35445e-53)
(2.34948e-05 -3.96117e-06 0 3.65771e-06 0 0)
(3.54271e-05 -7.80793e-06 -3.33331e-26 2.08863e-06 7.70617e-27 3.25635e-47)
(4.32266e-05 -5.80097e-08 3.4063e-26 7.5011e-08 -2.42724e-28 2.89267e-47)
(1.75982e-05 -1.02685e-06 -4.70843e-30 1.24638e-06 -2.81241e-30 1.10099e-53)
(4.91099e-06 8.30057e-07 0 2.79756e-06 0 0)
(0.000183735 -4.43033e-05 5.63208e-28 0.00019627 8.34141e-27 7.89831e-49)
(0.000480534 -0.000105226 2.97226e-28 0.000189944 9.29878e-27 8.83746e-49)
(0.000749547 -5.72353e-05 -1.22233e-29 0.000108978 5.22929e-29 2.54488e-53)
(0.000723259 1.7435e-06 -2.9707e-28 4.47992e-05 -1.41035e-27 1.34548e-49)
(0.000589156 2.18728e-05 1.59859e-27 5.12023e-06 -4.54517e-28 6.92462e-50)
(0.000787465 8.48047e-05 -1.58818e-27 1.00138e-05 -2.13403e-28 5.16289e-50)
(0.000863273 6.85762e-06 1.49978e-27 6.2784e-06 -2.19126e-28 2.29719e-50)
(0.000702774 3.86757e-05 0 1.54743e-05 0 0)
(0.000609328 4.66724e-05 -1.83777e-27 1.77894e-05 -1.83086e-28 3.24591e-50)
(0.000541494 6.18275e-05 -6.61076e-29 3.23289e-05 -6.82449e-30 2.56014e-53)
(0.000476377 6.05698e-05 2.66714e-27 4.43041e-05 -3.64883e-28 6.03164e-50)
(0.000436832 9.0828e-05 -5.90142e-29 8.7096e-05 -1.40932e-29 2.53173e-53)
(0.000487671 0.000161071 -5.38692e-29 0.000112138 -3.19481e-29 2.02132e-53)
(0.000488012 0.000172384 -2.47341e-27 9.81129e-05 1.60836e-27 2.02158e-49)
(0.000410443 0.000151091 -3.88819e-27 8.55686e-05 2.54273e-27 6.63367e-49)
(0.000367203 0.000144268 1.23349e-33 9.06317e-05 -3.09541e-34 2.35659e-62)
(0.000290349 0.000135533 -5.79112e-27 0.000105395 1.8202e-27 6.58687e-49)
(0.000194541 0.000108615 -5.9897e-27 0.000105755 2.16568e-28 5.48014e-49)
(0.000141002 8.7743e-05 1.06206e-29 0.000100568 8.24187e-30 4.21521e-54)
(0.000120694 7.49335e-05 0 9.16913e-05 0 0)
(8.5192e-05 5.64219e-05 -1.1988e-31 8.09829e-05 -3.30898e-30 3.66438e-55)
(7.42286e-05 5.61747e-05 0 5.98728e-05 0 0)
(8.35889e-05 6.03495e-05 -6.75036e-30 5.15908e-05 -5.04152e-30 2.59368e-54)
(7.59775e-05 5.10155e-05 1.01315e-26 4.31345e-05 7.94031e-27 1.54922e-48)
(8.12577e-05 4.23522e-05 0 2.85413e-05 0 0)
(7.95487e-05 3.01316e-05 -1.27845e-26 1.73068e-05 -5.62454e-27 2.26383e-48)
(6.30447e-05 2.63779e-05 2.04294e-29 2.312e-05 7.19489e-30 1.51431e-53)
(4.89615e-05 2.53418e-05 -1.00259e-26 3.63796e-05 -9.73798e-27 2.98682e-48)
(4.18103e-05 2.46977e-05 0 3.82565e-05 0 0)
(3.26861e-05 1.54097e-05 6.13518e-27 3.46498e-05 8.30243e-27 2.25882e-48)
(3.1868e-05 6.07625e-06 5.25065e-30 3.75841e-05 -4.29662e-30 3.8417e-54)
(3.76515e-05 -6.29163e-06 -1.11645e-27 5.2584e-05 -9.41711e-27 1.8553e-48)
(4.65102e-05 -2.43349e-05 3.54052e-27 6.58793e-05 -2.23585e-26 8.37493e-48)
(4.4007e-05 -2.94782e-05 -1.83626e-29 6.36361e-05 4.62738e-29 3.59529e-53)
(6.46259e-05 -4.13823e-05 5.60553e-27 5.00536e-05 -9.03393e-27 1.90869e-48)
(0.000101819 -5.1963e-05 1.62099e-26 3.85955e-05 -1.55045e-26 8.57078e-48)
(0.000126684 -5.4022e-05 -9.76803e-27 3.37848e-05 7.83282e-27 2.5601e-48)
(0.000142345 -5.18332e-05 -2.07311e-26 2.72414e-05 1.43769e-26 1.21909e-47)
(0.000141271 -4.86894e-05 2.04145e-26 2.90338e-05 -1.59237e-26 1.1734e-47)
(0.000170042 -5.23084e-05 -2.51968e-26 2.87487e-05 1.61896e-26 1.1254e-47)
(0.00020701 -5.34079e-05 3.40326e-26 2.78062e-05 -1.76699e-26 1.28931e-47)
(0.000218398 -4.30404e-05 1.3039e-29 1.99879e-05 -2.22593e-30 4.53598e-54)
(0.000225101 -2.32458e-05 -2.25066e-26 1.12666e-05 5.75395e-27 4.25701e-48)
(0.000205774 -6.31566e-06 0 6.54243e-06 0 0)
(0.00017248 7.9905e-06 4.07158e-26 7.16148e-06 -3.81238e-27 1.70503e-47)
(0.000141011 1.18385e-05 -3.27938e-29 8.29165e-06 -2.26066e-30 1.25338e-53)
(0.000113876 1.41143e-05 3.59807e-26 9.17424e-06 -8.23456e-28 1.6527e-47)
(8.2276e-05 1.40641e-05 -3.8196e-29 1.02067e-05 -5.65856e-30 2.27587e-53)
(5.71139e-05 1.17744e-05 -2.63654e-26 1.11929e-05 -2.16744e-27 1.45799e-47)
(3.88676e-05 6.14258e-06 -4.37595e-26 1.02365e-05 -4.09584e-27 5.50831e-47)
(2.64992e-05 8.00643e-07 1.68619e-26 9.77364e-06 2.39802e-27 1.27534e-47)
(2.24784e-05 -3.09953e-06 -1.13721e-26 9.54898e-06 -2.62942e-27 9.05891e-48)
(2.21562e-05 -5.52536e-06 9.13991e-27 7.42512e-06 2.70168e-27 9.76399e-48)
(2.48986e-05 -7.40254e-06 -1.52086e-29 4.76796e-06 -1.5038e-29 2.04769e-52)
(3.01242e-05 -7.80889e-06 -2.08229e-30 2.73769e-06 -4.3111e-30 7.43141e-53)
(2.95675e-05 -5.40873e-06 0 1.30024e-06 0 0)
(3.33852e-05 -3.64824e-06 -6.75891e-31 1.36392e-06 -9.00825e-30 1.0601e-52)
(3.90797e-05 -2.32446e-06 -1.87143e-28 2.04905e-06 8.57269e-27 4.19612e-47)
(3.5184e-05 4.65418e-07 -2.0315e-27 4.34252e-06 7.17322e-27 1.27569e-47)
(2.52947e-05 -1.78548e-06 -2.0306e-30 6.73848e-06 2.97243e-30 1.43714e-54)
(2.50123e-05 -2.4875e-06 -1.95315e-26 7.88749e-06 2.11624e-26 6.76532e-47)
(2.77693e-05 3.53049e-08 0 9.22178e-06 0 0)
(2.42618e-05 -3.39422e-06 2.65165e-26 1.02657e-05 -2.67973e-26 8.81346e-47)
(3.55279e-05 -1.63717e-05 0 1.11488e-05 0 0)
(3.75231e-05 -1.58652e-05 0 9.03972e-06 0 0)
(2.33306e-05 -4.25147e-06 0 4.82542e-06 0 0)
(3.69988e-05 -9.01771e-06 -3.71742e-26 2.79578e-06 9.39241e-27 3.87668e-47)
(4.61338e-05 -2.33334e-06 3.98021e-26 2.5085e-07 -1.83779e-27 3.73376e-47)
(1.66939e-05 1.97756e-07 6.75246e-27 7.7386e-07 4.85558e-27 3.70613e-47)
(4.79571e-06 1.20363e-06 4.1191e-30 1.73992e-06 4.50136e-30 1.25352e-53)
(0.000176031 4.07571e-06 8.87233e-27 0.000198916 1.39983e-26 2.89055e-48)
(0.000461458 -0.000121815 -2.72153e-29 0.000188218 -5.67403e-29 2.78468e-53)
(0.000757904 -5.71027e-05 0 0.00010535 0 0)
(0.000718313 -1.48886e-05 -7.64309e-28 5.02448e-05 -1.4701e-27 1.44041e-49)
(0.000580483 5.51376e-05 -3.54223e-27 5.85672e-05 -2.71144e-27 2.76282e-49)