/*--------------------------------*- C++ -*----------------------------------*\
| =========                 |                                                 |
| \\      /  F ield         | OpenFOAM: The Open Source CFD Toolbox           |
|  \\    /   O peration     | Version:  v2012                                 |
|   \\  /    A nd           | Website:  www.openfoam.com                      |
|    \\/     M anipulation  |                                                 |
\*---------------------------------------------------------------------------*/
FoamFile
{
    version     2.0;
    format      ascii;
    class       volScalarField;
    location    "1e-06";
    object      yPlus;
}
// * * * * * * * * * * * * * * * * * * * * * * * * * * * * * * * * * * * * * //

dimensions      [0 0 0 0 0 0 0];


internalField   uniform 0;

boundaryField
{
    inlet
    {
        type            calculated;
        value           nonuniform List<scalar> 0();
    }
    outlet
    {
        type            calculated;
        value           uniform 0;
    }
    front
    {
        type            empty;
    }
    back
    {
        type            empty;
    }
    hub
    {
        type            calculated;
        value           nonuniform List<scalar> 0();
    }
    tip
    {
        type            calculated;
        value           nonuniform List<scalar> 
133
(
85.761
86.1233
86.3179
86.2235
85.6194
85.4561
84.2859
82.2623
80.605
77.8594
76.6592
73.8944
71.6106
69.9166
67.4346
65.851
63.1979
61.5968
59.9551
59.7017
58.2771
56.4023
56.1066
55.3516
55.4063
54.7105
54.0412
53.5145
53.6078
53.0103
52.1745
51.7501
51.2924
50.8798
50.3671
50.4353
51.6489
53.3112
54.1872
56.0612
57.659
59.2807
60.7945
61.4818
62.8782
64.0503
65.1718
65.8257
66.3374
66.6548
66.2351
65.4469
62.7357
61.9767
57.9481
52.7369
47.853
45.726
42.9431
41.8067
39.9891
38.3853
37.8397
38.9787
39.5381
39.3588
38.8443
33.8381
31.2816
20.423
1.72126
11.2518
27.4668
38.0677
44.3247
46.6405
50.5772
43.8369
40.382
30.521
12.817
3.25655
21.0495
39.0222
46.1114
63.0357
70.2274
73.6421
77.0419
73.2413
73.1404
65.1506
63.0971
58.0138
53.9503
51.7035
47.5833
39.0079
36.7196
24.883
23.4403
22.1996
23.337
33.2643
36.591
47.2094
58.7991
62.881
74.0441
79.1063
80.2085
81.1578
79.8809
71.8614
69.9715
62.1026
60.7111
58.5654
57.2122
54.495
50.9685
49.9923
46.4858
46.5556
47.4479
50.1857
54.6395
62.8108
64.9029
71.1283
76.4382
77.0733
77.614
)
;
    }
    procBoundary8to7
    {
        type            processor;
        value           uniform 0;
    }
    procBoundary8to9
    {
        type            processor;
        value           uniform 0;
    }
}


// ************************************************************************* //
