/*--------------------------------*- C++ -*----------------------------------*\
| =========                 |                                                 |
| \\      /  F ield         | OpenFOAM: The Open Source CFD Toolbox           |
|  \\    /   O peration     | Version:  v2012                                 |
|   \\  /    A nd           | Website:  www.openfoam.com                      |
|    \\/     M anipulation  |                                                 |
\*---------------------------------------------------------------------------*/
FoamFile
{
    version     2.0;
    format      ascii;
    class       volScalarField;
    location    "1e-06";
    object      k;
}
// * * * * * * * * * * * * * * * * * * * * * * * * * * * * * * * * * * * * * //

dimensions      [0 2 -2 0 0 0 0];


internalField   nonuniform List<scalar> 
10262
(
3.40234
2.47084
2.08966
1.27661
1.06764
1.03003
1.02757
0.970041
0.925045
0.91834
0.925259
0.88813
0.862177
0.85392
0.856336
0.837857
0.813049
0.810737
0.814768
0.801485
0.778039
0.776421
0.781214
0.771977
0.750148
0.746885
0.751868
0.745608
0.72458
0.719154
0.722936
0.718643
0.697692
0.689672
0.69149
0.688603
0.667875
0.655542
0.655437
0.652866
0.629234
0.615433
0.607978
0.604914
0.580451
0.555886
0.545725
0.540256
0.505404
0.482207
0.448858
0.440689
0.409672
0.343586
0.308935
0.290636
0.222383
0.240959
0.28721
0.302188
0.354286
0.437014
0.488705
0.497296
0.518877
0.530691
0.56019
0.566307
0.60341
0.658768
0.718669
0.721991
2.51127
1.74246
1.64336
1.10831
0.983
0.929075
0.920127
0.892095
0.866394
0.840817
0.834133
0.819935
0.811432
0.788176
0.773176
0.774272
0.768615
0.7525
0.73974
0.740398
0.735662
0.723829
0.712724
0.712942
0.708686
0.699034
0.688796
0.688501
0.684162
0.675503
0.664843
0.663941
0.658943
0.650247
0.638516
0.637055
0.631476
0.620625
0.608171
0.606005
0.596673
0.58543
0.567459
0.564553
0.553497
0.533208
0.514851
0.510547
0.487476
0.467818
0.429778
0.424485
0.403174
0.344563
0.310883
0.300858
0.233446
0.241329
0.272574
0.280205
0.336797
0.41101
0.445736
0.450932
0.483135
0.49772
0.513182
0.516902
0.559412
0.604445
0.639774
0.64615
1.39452
1.18163
1.14732
0.928145
0.853153
0.817222
0.810041
0.791237
0.772503
0.753528
0.74867
0.737187
0.731415
0.711911
0.701231
0.700636
0.696045
0.682694
0.673656
0.673137
0.66816
0.658967
0.65108
0.650522
0.645849
0.63829
0.630977
0.630244
0.625592
0.618603
0.61104
0.610026
0.604969
0.597756
0.589483
0.588131
0.582395
0.573825
0.564533
0.562739
0.554791
0.544872
0.53248
0.529838
0.519736
0.504769
0.489741
0.486385
0.468724
0.450351
0.423995
0.419604
0.39781
0.357043
0.32349
0.315437
0.268256
0.241716
0.260895
0.266092
0.31817
0.371943
0.401468
0.406342
0.432757
0.45287
0.468805
0.514893
0.497054
0.528737
0.554516
0.559805
1.34867
1.15884
1.12823
0.920416
0.847313
0.81194
0.807188
0.787271
0.767526
0.750163
0.746596
0.734139
0.72015
0.709851
0.698986
0.698574
0.688647
0.68081
0.671736
0.671347
0.665105
0.657218
0.649376
0.648919
0.643623
0.636673
0.629426
0.6288
0.623745
0.617103
0.609633
0.608767
0.603362
0.596422
0.588208
0.587066
0.581058
0.572629
0.563429
0.562029
0.553519
0.544231
0.531347
0.52936
0.519095
0.503823
0.489147
0.486009
0.468202
0.450133
0.423892
0.419525
0.397796
0.357558
0.32392
0.316365
0.269647
0.258652
0.261127
0.265909
0.317846
0.371195
0.399723
0.404878
0.431317
0.450629
0.468226
0.474463
0.493979
0.525266
0.552632
0.556733
0.86094
0.867455
0.864637
0.800187
0.766922
0.748844
0.745918
0.733744
0.720884
0.709405
0.706896
0.697136
0.687942
0.677998
0.669972
0.668774
0.661297
0.65375
0.646913
0.645927
0.64016
0.63351
0.627534
0.626667
0.621509
0.615658
0.6101
0.60924
0.604259
0.598588
0.59285
0.5919
0.586712
0.580669
0.574415
0.573309
0.567458
0.560418
0.553084
0.551709
0.544363
0.53576
0.526253
0.524429
0.514712
0.502786
0.490083
0.487586
0.473598
0.45638
0.437496
0.433685
0.411894
0.382988
0.349107
0.343031
0.310638
0.287561
0.272282
0.275328
0.32123
0.360361
0.385144
0.389457
0.412282
0.434017
0.451655
0.454416
0.466583
0.487931
0.508715
0.512354
0.575997
0.66344
0.674936
0.692956
0.694458
0.692401
0.69099
0.688576
0.683221
0.676133
0.673758
0.667965
0.664138
0.653075
0.647387
0.645837
0.641993
0.633593
0.628383
0.627175
0.622652
0.616596
0.611818
0.61082
0.606445
0.601251
0.596733
0.595797
0.591462
0.58647
0.581783
0.580809
0.576353
0.571022
0.566014
0.564879
0.559805
0.5539
0.547766
0.546411
0.540638
0.532758
0.525643
0.523685
0.515377
0.50597
0.494778
0.492768
0.481837
0.465677
0.45202
0.448685
0.427792
0.406302
0.373729
0.368426
0.346233
0.289397
0.296893
0.298496
0.333906
0.360257
0.380493
0.384081
0.402599
0.423694
0.441177
0.44371
0.450566
0.463887
0.477944
0.481078
0.563141
0.654123
0.666704
0.687316
0.689934
0.688732
0.688821
0.685965
0.679995
0.673562
0.672792
0.665814
0.658348
0.652225
0.646022
0.644918
0.638174
0.632877
0.627384
0.626471
0.621188
0.615939
0.611039
0.61026
0.605493
0.600707
0.596086
0.595356
0.590766
0.586029
0.581244
0.580517
0.575804
0.570759
0.56554
0.564743
0.559485
0.553747
0.547402
0.546627
0.540206
0.532913
0.525251
0.523946
0.51531
0.506096
0.494875
0.492884
0.482199
0.466333
0.452571
0.449251
0.428627
0.407441
0.374765
0.369854
0.348057
0.325396
0.298631
0.299949
0.335106
0.360868
0.38012
0.383885
0.402332
0.422838
0.440684
0.442931
0.449136
0.462437
0.476828
0.479082
0.400927
0.509162
0.526876
0.589893
0.620607
0.635571
0.636896
0.644206
0.646397
0.644938
0.643758
0.64138
0.639165
0.632538
0.628609
0.627207
0.623961
0.618051
0.61409
0.612955
0.609145
0.604343
0.600494
0.599551
0.595771
0.591468
0.587741
0.586863
0.583072
0.578845
0.574959
0.574066
0.570207
0.565644
0.561544
0.560509
0.556094
0.551172
0.546018
0.544802
0.540041
0.533205
0.527462
0.525884
0.518558
0.511219
0.501413
0.499797
0.491418
0.476889
0.466886
0.464008
0.444862
0.429185
0.39852
0.394187
0.380076
0.361718
0.330163
0.330389
0.35505
0.37008
0.384683
0.387434
0.401241
0.419114
0.436476
0.438374
0.442194
0.449757
0.458749
0.460629
0.393914
0.502938
0.521052
0.584897
0.616173
0.632257
0.634741
0.641807
0.64306
0.642653
0.642814
0.639323
0.633122
0.631577
0.627271
0.626282
0.620421
0.617407
0.613149
0.61233
0.607774
0.603769
0.599787
0.599089
0.594917
0.591023
0.587167
0.586524
0.582476
0.578506
0.574484
0.573871
0.56975
0.565486
0.561112
0.56046
0.555855
0.551121
0.545664
0.545049
0.539689
0.533357
0.527233
0.526141
0.518614
0.511445
0.501603
0.500001
0.491843
0.477614
0.467452
0.464586
0.44577
0.430303
0.399557
0.395592
0.381785
0.364876
0.332203
0.332207
0.356849
0.37127
0.384815
0.387727
0.401502
0.41861
0.434097
0.43773
0.441485
0.448847
0.457919
0.45944
0.29807
0.391526
0.409264
0.488869
0.540546
0.571834
0.576258
0.593996
0.604933
0.61002
0.610624
0.611958
0.612427
0.610208
0.608362
0.607714
0.605225
0.602023
0.59926
0.598552
0.595471
0.592088
0.589158
0.588499
0.585292
0.581996
0.57899
0.57836
0.575062
0.571669
0.568478
0.567846
0.564454
0.560735
0.557315
0.556628
0.552699
0.54867
0.544344
0.543556
0.539294
0.533758
0.529088
0.528034
0.521591
0.515972
0.50769
0.506423
0.500143
0.487577
0.480486
0.478071
0.461195
0.450199
0.422464
0.419348
0.411501
0.401189
0.368321
0.367248
0.382102
0.387154
0.395763
0.397623
0.406333
0.419436
0.434441
0.437099
0.439498
0.44269
0.447471
0.448394
0.244646
0.31053
0.324358
0.399746
0.461113
0.502537
0.509007
0.537129
0.559659
0.569286
0.570594
0.577526
0.58824
0.582822
0.584041
0.583319
0.587251
0.581638
0.580678
0.579932
0.579775
0.576059
0.574279
0.573608
0.572129
0.569051
0.566911
0.566254
0.564237
0.561276
0.558846
0.558177
0.555935
0.552764
0.550147
0.54936
0.546606
0.543386
0.539903
0.53899
0.536072
0.531496
0.527935
0.526899
0.521843
0.517604
0.510838
0.509875
0.505207
0.494557
0.48993
0.487975
0.473461
0.465928
0.442059
0.439313
0.436336
0.404475
0.403918
0.402232
0.408117
0.405537
0.409568
0.410567
0.413913
0.422743
0.436257
0.438356
0.439857
0.440269
0.441895
0.44236
0.242073
0.307105
0.321064
0.395664
0.456311
0.499089
0.505964
0.534133
0.554634
0.566543
0.568807
0.575452
0.580422
0.581657
0.582088
0.582317
0.582073
0.580708
0.579254
0.579059
0.577291
0.575199
0.573184
0.572897
0.570604
0.568317
0.566004
0.565686
0.563152
0.560652
0.558077
0.557784
0.555078
0.552326
0.549446
0.549146
0.546035
0.542978
0.539302
0.538951
0.535627
0.531209
0.527594
0.526866
0.521678
0.517556
0.510847
0.509899
0.505399
0.495026
0.490294
0.488359
0.474239
0.466848
0.44301
0.440667
0.437772
0.441401
0.406643
0.404543
0.411063
0.407571
0.410541
0.411638
0.415172
0.423158
0.43651
0.438432
0.440178
0.440197
0.44162
0.441998
0.216811
0.256212
0.265496
0.324579
0.3834
0.428813
0.436746
0.472015
0.503953
0.519964
0.522843
0.535495
0.552575
0.550329
0.55455
0.554524
0.561997
0.55788
0.558804
0.558346
0.56016
0.557555
0.556995
0.556521
0.556385
0.554139
0.552892
0.552392
0.551391
0.54919
0.547533
0.547008
0.545638
0.543243
0.541352
0.540713
0.538842
0.536464
0.533804
0.533067
0.530998
0.527597
0.524919
0.524186
0.520305
0.517377
0.512099
0.51142
0.508277
0.499858
0.497118
0.495626
0.483948
0.479784
0.459866
0.457796
0.458773
0.472898
0.440182
0.437833
0.436551
0.427316
0.426744
0.426978
0.425565
0.429871
0.441029
0.442823
0.443347
0.441773
0.441144
0.441215
0.215366
0.253895
0.263168
0.321053
0.378629
0.42534
0.433364
0.468713
0.497652
0.516941
0.520468
0.533061
0.543232
0.548608
0.552344
0.553077
0.555733
0.556621
0.557056
0.557174
0.557041
0.55641
0.555633
0.555567
0.5544
0.553148
0.551759
0.551614
0.549958
0.548325
0.546566
0.546428
0.544497
0.542566
0.540472
0.540334
0.538029
0.535785
0.533052
0.532843
0.530429
0.527059
0.524513
0.523983
0.520011
0.517154
0.512029
0.511364
0.508343
0.50018
0.497403
0.495932
0.48464
0.480623
0.460782
0.459111
0.460106
0.475729
0.442799
0.440116
0.439751
0.429639
0.428045
0.428348
0.427334
0.430699
0.441513
0.443205
0.444139
0.442023
0.441176
0.44122
0.203874
0.224094
0.22945
0.268733
0.316582
0.358263
0.365967
0.403179
0.441259
0.461846
0.466115
0.484537
0.509682
0.509923
0.517798
0.518675
0.531323
0.528315
0.53156
0.531527
0.536097
0.534595
0.535531
0.535307
0.536941
0.53558
0.535388
0.535074
0.535366
0.533957
0.533133
0.532773
0.532459
0.530872
0.529696
0.529227
0.528313
0.526839
0.524936
0.524422
0.523286
0.521022
0.519202
0.518739
0.51611
0.51443
0.510584
0.510177
0.508458
0.502318
0.501198
0.500166
0.491441
0.490281
0.474711
0.473235
0.476847
0.498847
0.472059
0.469872
0.463171
0.449237
0.445117
0.444708
0.439134
0.439589
0.44813
0.449572
0.448896
0.445915
0.443722
0.443531
0.203016
0.222654
0.227913
0.266091
0.312461
0.355234
0.362902
0.399978
0.434062
0.458816
0.463455
0.481923
0.498475
0.507787
0.515447
0.516836
0.523686
0.526757
0.52959
0.530112
0.53223
0.533179
0.533926
0.534142
0.534441
0.534331
0.534046
0.534109
0.533545
0.532833
0.53198
0.532023
0.53101
0.529922
0.528647
0.528685
0.527263
0.525875
0.524067
0.524004
0.522504
0.520225
0.518677
0.518344
0.515606
0.513931
0.510367
0.509972
0.5083
0.502363
0.501305
0.500292
0.491892
0.490856
0.475421
0.474354
0.477893
0.500283
0.474221
0.471634
0.466122
0.451511
0.446457
0.4461
0.441174
0.440689
0.448778
0.449657
0.450035
0.446409
0.443992
0.443812
0.197956
0.207005
0.209666
0.232115
0.265786
0.298535
0.30485
0.338468
0.377259
0.3987
0.403604
0.426052
0.459765
0.460863
0.472572
0.47456
0.494239
0.491496
0.497396
0.498035
0.506536
0.505937
0.508686
0.508804
0.512849
0.512435
0.513485
0.513419
0.515389
0.514869
0.514955
0.514798
0.515753
0.51511
0.514638
0.514365
0.51456
0.514062
0.512879
0.512599
0.512521
0.511453
0.510354
0.510147
0.508871
0.508441
0.505878
0.505734
0.505427
0.501576
0.501829
0.501252
0.495526
0.496994
0.486016
0.485099
0.490185
0.501984
0.496221
0.494629
0.485339
0.469183
0.462788
0.461873
0.453079
0.450652
0.456381
0.450055
0.455579
0.451678
0.448439
0.448042
0.197618
0.20645
0.209052
0.23089
0.263287
0.296993
0.303292
0.336537
0.370651
0.39691
0.402001
0.424228
0.446436
0.459355
0.471134
0.473187
0.485049
0.490265
0.496147
0.496951
0.502174
0.504806
0.507624
0.507932
0.510211
0.511354
0.512586
0.512687
0.5135
0.51378
0.514153
0.514164
0.514257
0.51398
0.513848
0.513795
0.513323
0.512835
0.512142
0.512057
0.511484
0.510318
0.509719
0.50955
0.508037
0.507503
0.505372
0.505236
0.50483
0.50106
0.501489
0.500917
0.495355
0.497058
0.485985
0.485456
0.490815
0.515828
0.497064
0.495244
0.487044
0.470496
0.463217
0.462384
0.454586
0.451317
0.45679
0.457815
0.456577
0.451904
0.448439
0.448108
0.197404
0.206116
0.208688
0.230084
0.261187
0.29599
0.302323
0.335224
0.364275
0.395678
0.400881
0.423032
0.434057
0.458368
0.470106
0.47195
0.475934
0.489296
0.495257
0.495964
0.497993
0.503906
0.506807
0.507154
0.507928
0.510515
0.511877
0.512058
0.51198
0.512999
0.513553
0.513693
0.51317
0.51324
0.513381
0.513485
0.512621
0.51214
0.511822
0.511896
0.510985
0.509699
0.509624
0.50949
0.507738
0.507066
0.505433
0.50531
0.50477
0.501044
0.501716
0.501159
0.49576
0.497506
0.486569
0.486036
0.491666
0.516995
0.497885
0.495843
0.488871
0.472327
0.464021
0.463205
0.456393
0.452511
0.457386
0.458432
0.45789
0.45257
0.448812
0.44853
0.195118
0.198503
0.199616
0.210465
0.230268
0.253582
0.258142
0.284169
0.314183
0.337403
0.342012
0.364937
0.390169
0.404664
0.41927
0.422318
0.439707
0.446335
0.455037
0.45638
0.46596
0.46983
0.474812
0.475356
0.480621
0.482892
0.485758
0.485963
0.488932
0.490241
0.491828
0.491882
0.493658
0.494374
0.495202
0.49517
0.496157
0.496699
0.496849
0.496819
0.49753
0.497573
0.497763
0.4978
0.497656
0.498333
0.497483
0.497608
0.498531
0.496911
0.498644
0.498517
0.495795
0.499729
0.493275
0.492957
0.49988
0.523026
0.511298
0.510189
0.502005
0.486007
0.477918
0.476721
0.46705
0.462244
0.46543
0.466133
0.463533
0.458216
0.453976
0.453465
0.194851
0.198014
0.199069
0.209389
0.227953
0.251808
0.2564
0.281894
0.307224
0.335031
0.339704
0.362446
0.378746
0.402301
0.416982
0.419951
0.429463
0.443974
0.452931
0.454316
0.459613
0.467696
0.472882
0.473638
0.4766
0.480936
0.484037
0.484518
0.486041
0.488401
0.490309
0.490689
0.491402
0.492605
0.493882
0.494201
0.494402
0.494973
0.495753
0.496012
0.496095
0.495968
0.496966
0.497058
0.49652
0.496983
0.49693
0.497071
0.497729
0.496095
0.498357
0.49825
0.495588
0.4995
0.493502
0.493536
0.500278
0.523395
0.512135
0.51053
0.503351
0.487561
0.478701
0.477553
0.46882
0.463485
0.466031
0.466711
0.464806
0.458911
0.454361
0.453885
0.193763
0.194447
0.194777
0.199158
0.209532
0.223475
0.226268
0.244266
0.268035
0.285346
0.288963
0.309173
0.335652
0.347484
0.362499
0.366455
0.388948
0.394698
0.405387
0.407676
0.422379
0.426417
0.433354
0.434576
0.443675
0.446771
0.451157
0.451844
0.457629
0.460006
0.462683
0.4631
0.467014
0.468929
0.470516
0.470796
0.473549
0.475343
0.476147
0.47637
0.47863
0.480122
0.480852
0.481126
0.482685
0.484795
0.484925
0.485315
0.48784
0.488511
0.491244
0.491551
0.491794
0.497752
0.495677
0.495995
0.504384
0.52391
0.516712
0.51582
0.509508
0.495966
0.488194
0.486772
0.476638
0.471534
0.472857
0.473111
0.469424
0.463813
0.459024
0.458222
0.19361
0.194166
0.19446
0.198523
0.208051
0.222186
0.225028
0.242498
0.262393
0.283409
0.287032
0.30696
0.325035
0.345117
0.360397
0.364091
0.378393
0.39222
0.403266
0.405493
0.414953
0.42399
0.431297
0.432644
0.438654
0.44437
0.449246
0.450148
0.453948
0.457646
0.460949
0.461666
0.464133
0.466599
0.468992
0.4696
0.471285
0.473079
0.474847
0.47533
0.476736
0.47796
0.479861
0.480202
0.481119
0.482888
0.484178
0.484593
0.486619
0.487139
0.490748
0.491081
0.491157
0.497001
0.495648
0.496283
0.504337
0.523631
0.516985
0.515604
0.509858
0.496714
0.48856
0.487188
0.477774
0.472458
0.473259
0.473508
0.470308
0.464324
0.459277
0.45853
0.193077
0.192514
0.192467
0.193574
0.198127
0.205192
0.206652
0.217551
0.23454
0.245625
0.248147
0.263855
0.290118
0.295938
0.309131
0.313222
0.339472
0.341469
0.352291
0.355267
0.374711
0.377398
0.385354
0.387277
0.400802
0.403889
0.40931
0.410569
0.419998
0.423128
0.426544
0.42738
0.434267
0.437385
0.439381
0.43998
0.445253
0.448492
0.449536
0.450046
0.45448
0.457686
0.458516
0.459048
0.462833
0.466665
0.467294
0.467952
0.472535
0.475667
0.47893
0.479656
0.483143
0.491114
0.492707
0.493684
0.504127
0.51962
0.513868
0.512884
0.509049
0.498796
0.491851
0.490282
0.481505
0.477309
0.477198
0.476937
0.472818
0.467148
0.461873
0.460688
0.193018
0.192413
0.192353
0.193321
0.19743
0.204635
0.206119
0.21667
0.230723
0.244638
0.247214
0.262578
0.278733
0.2945
0.308024
0.311766
0.327542
0.33979
0.351082
0.35384
0.367005
0.375492
0.384115
0.385933
0.395458
0.401758
0.4081
0.409337
0.416027
0.420791
0.425389
0.426293
0.431125
0.434864
0.438292
0.439017
0.442683
0.445867
0.448507
0.449144
0.452272
0.455075
0.457579
0.458181
0.46092
0.464235
0.466466
0.467168
0.470893
0.47369
0.478221
0.478979
0.48193
0.489783
0.492262
0.493547
0.503618
0.518625
0.513656
0.512419
0.508257
0.498502
0.491628
0.490094
0.481619
0.477511
0.477133
0.476867
0.472961
0.467159
0.461738
0.460591
0.19298
0.192358
0.192291
0.193158
0.196858
0.2043
0.205798
0.216028
0.227224
0.243913
0.246599
0.261619
0.271983
0.293481
0.307255
0.3106
0.318859
0.338366
0.350192
0.352589
0.359385
0.373769
0.383129
0.384726
0.390071
0.399794
0.407096
0.408227
0.412116
0.418599
0.424421
0.425321
0.428098
0.432495
0.43742
0.438208
0.440276
0.443413
0.447762
0.448489
0.450266
0.452603
0.457018
0.457673
0.459236
0.461942
0.466045
0.466803
0.469517
0.471883
0.477963
0.478779
0.481065
0.488611
0.492304
0.493571
0.503271
0.517885
0.513534
0.512097
0.507631
0.498378
0.491687
0.490159
0.481775
0.477951
0.477309
0.477019
0.473068
0.467371
0.461805
0.460672
0.192719
0.19161
0.191387
0.19087
0.192054
0.195026
0.19568
0.201176
0.210017
0.217952
0.21948
0.230152
0.244088
0.253834
0.26437
0.26774
0.28386
0.292057
0.301878
0.304791
0.320252
0.326537
0.334771
0.337045
0.349763
0.355308
0.3618
0.363471
0.373478
0.378583
0.383443
0.384702
0.392617
0.397371
0.400935
0.401934
0.408406
0.413052
0.41572
0.416582
0.422263
0.426871
0.429302
0.430168
0.435426
0.440607
0.443137
0.444141
0.450214
0.455478
0.46046
0.46166
0.467909
0.477832
0.483435
0.485122
0.497913
0.50918
0.503424
0.501962
0.499539
0.493016
0.487326
0.485589
0.479691
0.477642
0.476287
0.475375
0.471591
0.466147
0.460343
0.45861
0.192678
0.19154
0.191307
0.190689
0.19158
0.194556
0.195198
0.20038
0.20737
0.216873
0.218472
0.228761
0.23839
0.252215
0.26301
0.265953
0.276327
0.289873
0.30026
0.302802
0.312541
0.323888
0.332931
0.335021
0.343302
0.352222
0.359853
0.361496
0.368162
0.375094
0.381493
0.382858
0.388143
0.393622
0.399082
0.400255
0.404602
0.409173
0.414011
0.41505
0.418928
0.422987
0.427873
0.428832
0.43249
0.436967
0.44191
0.442991
0.447668
0.452419
0.459454
0.460727
0.465951
0.475558
0.482833
0.484739
0.496575
0.507367
0.502816
0.500882
0.497558
0.491645
0.486769
0.484996
0.478595
0.477201
0.475998
0.474983
0.470573
0.465628
0.459978
0.458146
0.192552
0.191232
0.190932
0.189685
0.189304
0.189886
0.190058
0.192304
0.197238
0.200765
0.201486
0.207987
0.220157
0.223507
0.230638
0.233396
0.249975
0.252159
0.259599
0.262261
0.278709
0.281455
0.288142
0.290427
0.305192
0.308811
0.314167
0.316054
0.328864
0.333345
0.337215
0.338722
0.349771
0.354971
0.357519
0.358756
0.36846
0.37436
0.375952
0.377055
0.385905
0.392396
0.39368
0.394772
0.403327
0.41067
0.412442
0.413688
0.422997
0.431016
0.435524
0.437111
0.447422
0.459775
0.467339
0.469695
0.485844
0.493962
0.485967
0.483786
0.483303
0.479481
0.474047
0.472153
0.47037
0.470657
0.467957
0.466307
0.463818
0.45876
0.452251
0.449984
0.192538
0.191209
0.190906
0.18962
0.189098
0.189703
0.189874
0.191961
0.195694
0.200263
0.201046
0.207263
0.213894
0.222597
0.229974
0.232389
0.241638
0.250799
0.258749
0.261087
0.271854
0.279574
0.287106
0.289162
0.299376
0.306317
0.312979
0.31474
0.323828
0.330192
0.335922
0.337415
0.345317
0.351242
0.356172
0.357474
0.364467
0.370202
0.374578
0.375789
0.382258
0.388025
0.392358
0.393572
0.39997
0.406381
0.411168
0.41254
0.419923
0.427177
0.434335
0.436029
0.444764
0.456732
0.466429
0.469047
0.48392
0.491333
0.485185
0.482748
0.480453
0.47712
0.473217
0.471164
0.468225
0.469305
0.467355
0.46543
0.461841
0.457529
0.451644
0.449018
0.19253
0.191201
0.190897
0.189583
0.188939
0.189597
0.189772
0.19172
0.194439
0.199914
0.200771
0.206712
0.211458
0.221883
0.229514
0.231586
0.237264
0.249614
0.25813
0.260107
0.265971
0.277819
0.286307
0.288063
0.293728
0.30389
0.312024
0.313577
0.31875
0.327047
0.334843
0.336257
0.340782
0.347459
0.355035
0.356355
0.360379
0.365953
0.373439
0.37472
0.378533
0.38354
0.391318
0.392632
0.396564
0.401995
0.410196
0.411708
0.416842
0.423291
0.433507
0.435343
0.442205
0.453636
0.465848
0.468473
0.481885
0.4888
0.484398
0.481786
0.477494
0.474745
0.472515
0.470451
0.465715
0.467869
0.466879
0.46478
0.459121
0.456164
0.451118
0.448243
0.19248
0.19111
0.190782
0.189213
0.187989
0.187396
0.187318
0.187678
0.189261
0.190866
0.191145
0.194352
0.199425
0.203004
0.207346
0.209109
0.217556
0.221757
0.22704
0.229057
0.239642
0.243673
0.248993
0.250916
0.261756
0.26615
0.270959
0.272691
0.283127
0.288087
0.292036
0.293538
0.303412
0.309
0.312139
0.313492
0.322919
0.329192
0.331783
0.333061
0.342279
0.349342
0.351926
0.353251
0.362786
0.370961
0.374433
0.37598
0.386698
0.396352
0.402651
0.404693
0.417563
0.431837
0.442758
0.445831
0.464599
0.469739
0.460643
0.457534
0.457027
0.455689
0.451405
0.449022
0.450221
0.453501
0.449973
0.44721
0.445351
0.44189
0.435244
0.432131
0.192474
0.191104
0.190775
0.18919
0.187897
0.187304
0.187225
0.187487
0.188464
0.190559
0.19088
0.193879
0.196662
0.202359
0.206877
0.208371
0.213105
0.22065
0.226399
0.228094
0.234612
0.241976
0.248155
0.249786
0.256711
0.263735
0.269934
0.271445
0.278259
0.284841
0.290832
0.292227
0.298727
0.30494
0.310788
0.312138
0.318388
0.324421
0.330297
0.331662
0.33787
0.344118
0.350389
0.351863
0.358502
0.365647
0.372849
0.374582
0.382582
0.391372
0.401086
0.403298
0.413774
0.427615
0.441452
0.444789
0.461519
0.465839
0.459444
0.456107
0.453053
0.451977
0.45014
0.447549
0.446665
0.450721
0.448929
0.44569
0.441902
0.439368
0.434251
0.430454
0.192472
0.191105
0.190776
0.189181
0.187834
0.187256
0.187178
0.187357
0.187827
0.190351
0.190722
0.193529
0.195179
0.201856
0.206543
0.20778
0.210032
0.219702
0.225924
0.227292
0.23005
0.240429
0.247508
0.248825
0.25186
0.261451
0.269115
0.270368
0.273496
0.281721
0.289841
0.291069
0.294105
0.300964
0.309659
0.310948
0.313887
0.319664
0.329043
0.330465
0.33346
0.338792
0.349101
0.350707
0.3542
0.360113
0.371531
0.373458
0.378438
0.386102
0.399854
0.402267
0.410003
0.423025
0.440327
0.443777
0.458128
0.461974
0.458164
0.454796
0.448614
0.448267
0.448882
0.446387
0.442202
0.447767
0.447903
0.444455
0.436754
0.436651
0.433248
0.429056
0.192462
0.19112
0.190789
0.189116
0.187523
0.186338
0.18613
0.185492
0.185365
0.185657
0.185676
0.186805
0.188358
0.190652
0.192856
0.193792
0.197353
0.201062
0.204341
0.205636
0.211479
0.215404
0.219195
0.220608
0.227632
0.231872
0.235745
0.237135
0.244595
0.249219
0.252853
0.254171
0.261796
0.266968
0.270351
0.271595
0.279396
0.285165
0.288495
0.289715
0.297927
0.304583
0.30831
0.309683
0.318827
0.326883
0.331968
0.333683
0.344655
0.355042
0.363189
0.365589
0.379913
0.395485
0.409579
0.413285
0.433894
0.436821
0.427676
0.423633
0.42283
0.423115
0.420245
0.417222
0.420127
0.425557
0.422056
0.418143
0.416554
0.415056
0.409119
0.40512
0.192462
0.191126
0.190795
0.189118
0.187497
0.186289
0.186077
0.185373
0.184979
0.185422
0.185463
0.186444
0.187315
0.190103
0.192376
0.193135
0.195298
0.200058
0.203651
0.204692
0.208152
0.21378
0.218271
0.219417
0.223617
0.229479
0.23458
0.235737
0.24027
0.245978
0.251453
0.252611
0.257309
0.262894
0.268747
0.269926
0.274762
0.280284
0.286691
0.28798
0.293136
0.29907
0.306372
0.307903
0.313872
0.32101
0.32987
0.331815
0.339612
0.349187
0.361044
0.36369
0.374997
0.390103
0.407562
0.411464
0.429218
0.431629
0.425664
0.421259
0.417643
0.418187
0.418187
0.414956
0.415107
0.421173
0.420175
0.415624
0.41164
0.41098
0.407342
0.40239
0.19247
0.191191
0.190868
0.189192
0.187471
0.186023
0.185752
0.184629
0.183847
0.183172
0.183024
0.183028
0.183997
0.183954
0.184639
0.18516
0.18827
0.18866
0.190112
0.190966
0.196002
0.196931
0.198769
0.199835
0.206261
0.207976
0.209791
0.21093
0.218264
0.220936
0.222378
0.223479
0.231457
0.235273
0.236237
0.237261
0.245788
0.25081
0.251438
0.252405
0.261751
0.268245
0.268949
0.26998
0.280744
0.289134
0.290992
0.292378
0.305661
0.317074
0.322
0.324221
0.342018
0.358859
0.370763
0.374683
0.399309
0.402308
0.389602
0.385243
0.387658
0.389363
0.383682
0.380824
0.387689
0.393682
0.387419
0.383807
0.385739
0.384487
0.376811
0.37362
0.192472
0.191195
0.190873
0.189201
0.187479
0.186012
0.185739
0.184592
0.18364
0.18308
0.182945
0.182873
0.182825
0.1837
0.184433
0.184841
0.185949
0.188126
0.189775
0.190467
0.193193
0.195956
0.198277
0.199154
0.203111
0.206379
0.209115
0.210079
0.214854
0.218562
0.221495
0.22248
0.227837
0.232045
0.235134
0.236125
0.241942
0.246671
0.250101
0.25115
0.257631
0.263209
0.267372
0.268577
0.276239
0.283274
0.28913
0.290771
0.300697
0.310668
0.319871
0.322372
0.336634
0.352431
0.3686
0.3728
0.393807
0.395522
0.387701
0.382881
0.382036
0.383235
0.381811
0.378326
0.381901
0.388253
0.385681
0.380962
0.37979
0.379784
0.375251
0.370568
0.192474
0.1912
0.190879
0.189215
0.187496
0.186013
0.18574
0.184573
0.183526
0.183024
0.182906
0.182759
0.182537
0.183504
0.184304
0.184589
0.185199
0.187657
0.189534
0.19005
0.191486
0.195038
0.19789
0.198566
0.200659
0.204822
0.208558
0.209323
0.211883
0.216239
0.220737
0.221572
0.224492
0.228913
0.234152
0.23509
0.238287
0.242783
0.24888
0.249995
0.253671
0.258673
0.265885
0.267271
0.271913
0.278187
0.287373
0.289283
0.29595
0.305162
0.317902
0.320705
0.331567
0.346726
0.366423
0.370773
0.388294
0.389831
0.385452
0.380549
0.376336
0.377983
0.379703
0.375993
0.376287
0.383275
0.383666
0.378273
0.374298
0.375203
0.373425
0.367621
0.19249
0.191283
0.190973
0.189345
0.18761
0.186067
0.185772
0.184413
0.183148
0.182112
0.181894
0.181223
0.180857
0.180432
0.18028
0.180438
0.181229
0.18137
0.181805
0.182202
0.184254
0.184925
0.185788
0.186364
0.189583
0.190861
0.19193
0.192631
0.196846
0.198842
0.199925
0.20068
0.205746
0.208591
0.209613
0.210367
0.216233
0.220002
0.2211
0.221862
0.228689
0.233616
0.235115
0.23597
0.244191
0.250739
0.253555
0.254727
0.265478
0.275137
0.281018
0.283066
0.298882
0.314183
0.32737
0.331241
0.354504
0.357022
0.346645
0.342167
0.344071
0.346632
0.34263
0.339562
0.345743
0.352416
0.347526
0.343648
0.345199
0.345927
0.339689
0.336197
0.192493
0.191288
0.190978
0.189359
0.187637
0.186072
0.185775
0.184409
0.183091
0.182076
0.181862
0.181151
0.180352
0.180296
0.180169
0.180258
0.18012
0.181042
0.181598
0.181887
0.182722
0.184273
0.185454
0.185901
0.18761
0.189721
0.191447
0.19201
0.194464
0.197053
0.199255
0.199898
0.202988
0.206032
0.208719
0.209436
0.213113
0.216634
0.219954
0.220781
0.225191
0.229449
0.233686
0.234703
0.240242
0.245797
0.251796
0.253213
0.260889
0.269387
0.278856
0.281188
0.293465
0.307796
0.324897
0.329045
0.348275
0.349545
0.344318
0.339497
0.338308
0.33997
0.340387
0.336781
0.339865
0.346224
0.345389
0.340453
0.339398
0.340386
0.337782
0.332788
0.192494
0.191292
0.190983
0.189375
0.187666
0.186081
0.185783
0.184416
0.183082
0.182058
0.181851
0.181103
0.18029
0.180195
0.180104
0.18012
0.179821
0.180766
0.181459
0.181634
0.181831
0.18369
0.185205
0.185513
0.186159
0.188671
0.19105
0.191473
0.192517
0.195395
0.19867
0.199208
0.200599
0.203691
0.207913
0.208595
0.210325
0.213623
0.218894
0.219776
0.222009
0.225818
0.232347
0.23352
0.236633
0.241607
0.250152
0.251806
0.25673
0.264559
0.27687
0.279483
0.288603
0.302222
0.322445
0.32675
0.342297
0.343617
0.341651
0.336992
0.332212
0.334571
0.337894
0.334212
0.333764
0.340908
0.342932
0.337479
0.333233
0.335473
0.335552
0.329531
0.192511
0.191369
0.191073
0.189512
0.187825
0.186268
0.185968
0.184527
0.183077
0.181841
0.181591
0.180573
0.179606
0.178856
0.178249
0.178191
0.177844
0.177622
0.177463
0.177563
0.17796
0.178211
0.178453
0.178686
0.179841
0.180575
0.181144
0.181481
0.183368
0.184632
0.18546
0.18587
0.188467
0.19033
0.191416
0.191887
0.195228
0.197775
0.199249
0.199799
0.204034
0.207489
0.209648
0.210349
0.215856
0.220648
0.224168
0.225169
0.232755
0.240205
0.246611
0.248394
0.260581
0.273228
0.286812
0.290355
0.309585
0.311473
0.304949
0.300936
0.301731
0.304318
0.302813
0.299967
0.30435
0.310576
0.308064
0.304284
0.304765
0.306681
0.302829
0.299319
0.192513
0.191374
0.191078
0.189527
0.187858
0.186279
0.185977
0.184542
0.183096
0.181835
0.181585
0.180553
0.17947
0.178797
0.1782
0.178106
0.177458
0.177448
0.177355
0.177391
0.177275
0.177829
0.17826
0.178409
0.178805
0.179862
0.180835
0.181084
0.181968
0.18346
0.184998
0.18534
0.186693
0.188592
0.190765
0.191214
0.193069
0.195418
0.198361
0.198959
0.201459
0.204499
0.208486
0.209316
0.212817
0.21706
0.222691
0.223896
0.229134
0.235908
0.244704
0.246734
0.256034
0.268038
0.284398
0.288152
0.303801
0.304797
0.302432
0.298342
0.29648
0.298309
0.300421
0.29726
0.299136
0.304741
0.305416
0.301115
0.299768
0.30122
0.300707
0.295943
0.192513
0.191377
0.191081
0.18954
0.187891
0.186291
0.185987
0.184559
0.183138
0.181839
0.181588
0.180544
0.179462
0.178759
0.178172
0.178045
0.177265
0.17731
0.177283
0.177257
0.176753
0.177507
0.178118
0.178184
0.177942
0.179249
0.180591
0.180751
0.180759
0.182433
0.184612
0.184886
0.185132
0.187043
0.190197
0.19062
0.191132
0.193268
0.197575
0.198209
0.199114
0.201698
0.20745
0.208389
0.21001
0.213594
0.221379
0.222756
0.225757
0.231658
0.243032
0.245281
0.25173
0.262678
0.28212
0.286027
0.297808
0.298905
0.299743
0.296137
0.290138
0.293004
0.297901
0.294949
0.292368
0.299411
0.27526
0.298148
0.292381
0.296411
0.298352
0.292965
0.192528
0.191438
0.191152
0.189659
0.188044
0.186507
0.18621
0.184769
0.183285
0.181941
0.181676
0.180506
0.179303
0.178327
0.177473
0.177308
0.176455
0.175921
0.175415
0.175353
0.174945
0.174803
0.174649
0.174681
0.174733
0.174972
0.175168
0.175282
0.175793
0.176419
0.176973
0.177162
0.178143
0.179183
0.180153
0.180421
0.18193
0.18346
0.184977
0.185351
0.187546
0.189776