/*--------------------------------*- C++ -*----------------------------------*\
| =========                 |                                                 |
| \\      /  F ield         | OpenFOAM: The Open Source CFD Toolbox           |
|  \\    /   O peration     | Version:  v2012                                 |
|   \\  /    A nd           | Website:  www.openfoam.com                      |
|    \\/     M anipulation  |                                                 |
\*---------------------------------------------------------------------------*/
FoamFile
{
    version     2.0;
    format      ascii;
    class       volScalarField;
    location    "1e-06";
    object      kMean;
}
// * * * * * * * * * * * * * * * * * * * * * * * * * * * * * * * * * * * * * //

dimensions      [0 2 -2 0 0 0 0];


internalField   nonuniform List<scalar> 
10262
(
3.32907
2.4641
2.10208
1.27614
1.07005
1.03158
1.02837
0.971734
0.927172
0.919709
0.925864
0.889544
0.864345
0.855261
0.856935
0.839101
0.815058
0.812073
0.815438
0.802604
0.779793
0.777768
0.781933
0.772988
0.751757
0.748236
0.752621
0.746523
0.726073
0.720493
0.723716
0.719477
0.699081
0.690989
0.692286
0.689371
0.669158
0.65682
0.656205
0.653543
0.630419
0.616631
0.608738
0.605548
0.581511
0.556971
0.546374
0.540746
0.506312
0.483121
0.449187
0.441207
0.410034
0.343483
0.308348
0.290421
0.221164
0.239781
0.287652
0.30269
0.355312
0.43812
0.48926
0.498089
0.520141
0.532217
0.561429
0.567567
0.605188
0.660639
0.719472
0.72313
2.53018
1.74593
1.6486
1.1098
0.984777
0.930227
0.921045
0.893409
0.867941
0.841847
0.834829
0.821025
0.812941
0.789156
0.773745
0.775231
0.770001
0.753461
0.740319
0.741252
0.736879
0.724774
0.713311
0.713714
0.709792
0.699963
0.689388
0.689206
0.685178
0.676414
0.665429
0.664584
0.659877
0.651127
0.639084
0.637638
0.632333
0.621456
0.608711
0.606533
0.597439
0.586201
0.567941
0.565013
0.554169
0.533858
0.515265
0.510933
0.488001
0.468351
0.430053
0.424757
0.40357
0.344805
0.310998
0.300994
0.233474
0.241757
0.272807
0.280399
0.337256
0.411703
0.446198
0.4514
0.483919
0.498537
0.513749
0.517811
0.560422
0.605576
0.640541
0.646991
1.38612
1.17745
1.14403
0.927177
0.852678
0.8169
0.810367
0.791004
0.772331
0.753713
0.749137
0.737414
0.73159
0.712406
0.701649
0.701138
0.696382
0.683193
0.674114
0.673643
0.668614
0.659465
0.651556
0.651027
0.646315
0.638786
0.631452
0.630745
0.626059
0.619091
0.611509
0.610525
0.605421
0.598235
0.589929
0.588622
0.58283
0.574269
0.564955
0.563211
0.555135
0.545306
0.53274
0.530274
0.520056
0.50491
0.489967
0.486683
0.468904
0.450632
0.424217
0.419842
0.398017
0.357306
0.32373
0.315885
0.268563
0.242023
0.261135
0.266175
0.318423
0.37228
0.401421
0.406268
0.433066
0.452878
0.469222
0.516623
0.497288
0.528561
0.554832
0.559946
1.35864
1.16418
1.13292
0.9226
0.849027
0.813822
0.808698
0.788662
0.768868
0.751745
0.747928
0.73562
0.721201
0.711195
0.70034
0.699923
0.689769
0.68208
0.672993
0.672591
0.66633
0.658419
0.650559
0.650085
0.644792
0.637806
0.630543
0.629897
0.624846
0.618165
0.610683
0.609784
0.604389
0.597392
0.589179
0.587996
0.581978
0.573492
0.564304
0.562792
0.554341
0.544844
0.532071
0.529992
0.519641
0.50431
0.489615
0.486465
0.468601
0.450501
0.424159
0.419799
0.398046
0.357788
0.323988
0.316429
0.269592
0.258379
0.261256
0.266129
0.318167
0.371769
0.400425
0.405411
0.431939
0.451465
0.468899
0.47388
0.494805
0.526407
0.553771
0.558106
0.859781
0.866426
0.863743
0.799678
0.766468
0.748405
0.745494
0.733303
0.72046
0.70898
0.706484
0.696718
0.687624
0.677595
0.669574
0.668383
0.660968
0.653362
0.646528
0.645549
0.639796
0.633134
0.62716
0.626299
0.621147
0.615292
0.609736
0.608881
0.603904
0.598232
0.592496
0.591551
0.586365
0.580323
0.57407
0.57297
0.56712
0.560083
0.552748
0.551379
0.544034
0.535435
0.525927
0.524114
0.514394
0.502476
0.489773
0.487286
0.473301
0.456094
0.437212
0.433415
0.411627
0.382713
0.348823
0.34277
0.310346
0.287824
0.271926
0.274969
0.320944
0.360104
0.384849
0.389134
0.411989
0.433737
0.451353
0.454061
0.466279
0.487625
0.50838
0.511959
0.573478
0.66162
0.673371
0.6921
0.693927
0.692018
0.690995
0.688295
0.683017
0.675963
0.673998
0.667839
0.664068
0.65338
0.647563
0.646158
0.642017
0.633926
0.62864
0.627514
0.622894
0.616925
0.612112
0.611166
0.606724
0.601583
0.597035
0.596146
0.591753
0.586796
0.582082
0.581159
0.576631
0.571341
0.566282
0.565224
0.560064
0.554167
0.548003
0.546738
0.540768
0.533021
0.525741
0.523968
0.515482
0.506092
0.494913
0.492915
0.481998
0.465875
0.452228
0.448906
0.427998
0.40653
0.373977
0.368865
0.346577
0.2892
0.297281
0.298765
0.334114
0.360492
0.380505
0.384071
0.402716
0.423686
0.441183
0.443673
0.450499
0.463756
0.477947
0.480813
0.56566
0.656195
0.668592
0.688735
0.691023
0.689881
0.689733
0.686755
0.680666
0.674465
0.673437
0.666575
0.658746
0.652879
0.64677
0.645616
0.638662
0.633505
0.628059
0.627102
0.621786
0.616531
0.611659
0.61084
0.606066
0.601252
0.596658
0.595889
0.591293
0.58652
0.581768
0.580989
0.576281
0.571167
0.566006
0.565147
0.559864
0.554061
0.547792
0.546866
0.540517
0.533111
0.525514
0.524126
0.515463
0.506219
0.494978
0.49299
0.482266
0.466377
0.452566
0.449249
0.428592
0.40746
0.374605
0.369715
0.34791
0.325126
0.298279
0.299687
0.334997
0.360915
0.380313
0.383975
0.40251
0.42315
0.440921
0.443213
0.449413
0.462837
0.477319
0.479625
0.399725
0.50791
0.525661
0.588977
0.61996
0.635081
0.636669
0.643833
0.646122
0.644707
0.643833
0.641195
0.63906
0.632604
0.628639
0.627411
0.623976
0.618252
0.614227
0.613193
0.609297
0.604557
0.600684
0.599806
0.595961
0.591702
0.587948
0.587129
0.583279
0.579081
0.575168
0.574336
0.570405
0.565878
0.561723
0.560779
0.556274
0.551356
0.546164
0.545056
0.540106
0.533388
0.527551
0.526096
0.518654
0.51133
0.501541
0.499938
0.49157
0.477068
0.467089
0.464221
0.445067
0.429405
0.398772
0.394625
0.380416
0.362073
0.330619
0.33079
0.355349
0.370348
0.384776
0.387507
0.401357
0.419137
0.436314
0.438363
0.442168
0.449671
0.458676
0.460429
0.39538
0.504265
0.522263
0.585947
0.617
0.633135
0.635405
0.64239
0.643544
0.64336
0.643275
0.639974
0.633376
0.632032
0.627855
0.626858
0.620667
0.617859
0.613674
0.612819
0.608187
0.604202
0.600266
0.599529
0.595333
0.591418
0.587607
0.586924
0.582861
0.578855
0.574885
0.574217
0.570097
0.565757
0.561465
0.560747
0.556113
0.551301
0.545953
0.545195
0.539897
0.533472
0.527412
0.526247
0.518699
0.51151
0.501652
0.500055
0.49187
0.47762
0.467428
0.464565
0.445714
0.430336
0.3994
0.395461
0.381704
0.364422
0.331805
0.331923
0.356659
0.371194
0.384872
0.387693
0.401548
0.418824
0.434272
0.437973
0.441629
0.449074
0.458203
0.459707
0.297948
0.391345
0.408978
0.488651
0.540334
0.571622
0.576071
0.59378
0.604731
0.609808
0.610425
0.611744
0.612294
0.610005
0.608156
0.607515
0.605076
0.601821
0.599057
0.598354
0.595286
0.591889
0.588958
0.588303
0.585103
0.5818
0.578793
0.578168
0.574873
0.571476
0.568284
0.567656
0.564266
0.560546
0.557123
0.556441
0.552512
0.548483
0.544154
0.543371
0.539108
0.533576
0.5289
0.527851
0.521408
0.515796
0.507505
0.506247
0.499968
0.487408
0.480313
0.477905
0.461031
0.450022
0.422257
0.419172
0.411311
0.40164
0.368084
0.367049
0.381943
0.38699
0.395579
0.397428
0.406172
0.419286
0.434506
0.436932
0.439369
0.442549
0.447316
0.44821
0.244224
0.309808
0.323637
0.399035
0.460484
0.501966
0.508524
0.536628
0.559267
0.568893
0.570421
0.577179
0.588062
0.582785
0.583801
0.583312
0.587101
0.581678
0.58059
0.579981
0.579645
0.576114
0.574271
0.573688
0.572095
0.569121
0.566933
0.566352
0.564241
0.561348
0.55888
0.558287
0.555938
0.552834
0.550156
0.549473
0.546592
0.543395
0.539879
0.539092
0.536018
0.531494
0.527901
0.526951
0.521823
0.517598
0.510845
0.509893
0.505235
0.4946
0.490002
0.488055
0.473548
0.466015
0.442197
0.439657
0.43653
0.404201
0.404465
0.402665
0.408443
0.405784
0.409726
0.410723
0.414016
0.422786
0.436314
0.438364
0.439872
0.44026
0.441847
0.442277
0.242613
0.307803
0.321716
0.396515
0.457103
0.499937
0.506746
0.534808
0.555178
0.567273
0.569376
0.575934
0.580689
0.582083
0.58266
0.582705
0.582355
0.581111
0.579757
0.579457
0.57766
0.575578
0.573629
0.573263
0.570965
0.568651
0.5664
0.566014
0.563474
0.560933
0.558426
0.558052
0.555354
0.55252
0.549742
0.549345
0.546205
0.543098
0.539524
0.539069
0.535732
0.531286
0.527698
0.526937
0.521725
0.517588
0.510857
0.509912
0.50539
0.49499
0.49023
0.488293
0.474127
0.466836
0.442786
0.440473
0.437679
0.441245
0.406065
0.404098
0.410677
0.40727
0.410329
0.411387
0.415032
0.423097
0.436495
0.438414
0.440169
0.440223
0.441693
0.442064
0.21664
0.255707
0.264962
0.323898
0.382733
0.428135
0.436057
0.471381
0.503452
0.519443
0.522453
0.53503
0.552339
0.550103
0.554205
0.554366
0.561806
0.55779
0.558583
0.558274
0.559953
0.557499
0.556877
0.556497
0.556248
0.554112
0.552818
0.552398
0.551304
0.549176
0.547482
0.547035
0.545558
0.543233
0.541285
0.54075
0.538749
0.536402
0.533716
0.5331
0.530919
0.527533
0.524863
0.524177
0.520265
0.517353
0.51209
0.51142
0.508289
0.499889
0.497179
0.495693
0.484026
0.479873
0.460011
0.458139
0.458977
0.473193
0.440747
0.438332
0.436928
0.427595
0.42698
0.427218
0.425716
0.42997
0.44112
0.442888
0.443392
0.441802
0.441149
0.441206
0.21573
0.254342
0.263597
0.3217
0.3793
0.426077
0.434072
0.469346
0.498167
0.517643
0.521058
0.533549
0.543497
0.54906
0.552911
0.553485
0.555993
0.557011
0.557553
0.557562
0.557376
0.556775
0.556073
0.55592
0.554734
0.553467
0.552146
0.551928
0.55026
0.54859
0.546906
0.546683
0.544755
0.542744
0.540759
0.540518
0.538181
0.535906
0.533265
0.532963
0.530522
0.527137
0.524614
0.524059
0.520062
0.517192
0.512048
0.511385
0.508344
0.500156
0.497355
0.49588
0.484543
0.480623
0.460581
0.458935
0.46006
0.475454
0.442286
0.439751
0.439392
0.429326
0.427778
0.428064
0.427149
0.430575
0.441438
0.443123
0.444085
0.44198
0.441168
0.441214
0.203818
0.223775
0.229092
0.268212
0.31602
0.357649
0.365299
0.402572
0.440765
0.461289
0.465614
0.484027
0.509423
0.509584
0.517399
0.518408
0.53111
0.528132
0.53125
0.531363
0.535864
0.534461
0.535328
0.535204
0.536732
0.535482
0.53524
0.535009
0.535202
0.533877
0.533014
0.532732
0.532307
0.5308
0.529568
0.5292
0.528174
0.52672
0.524811
0.524395
0.523177
0.520926
0.51911
0.518671
0.516038
0.514373
0.510537
0.510137
0.508433
0.502313
0.501215
0.500188
0.491476
0.490326
0.474812
0.47353
0.476993
0.499135
0.472555
0.470287
0.463488
0.449488
0.445353
0.444958
0.439287
0.439712
0.448247
0.449682
0.448958
0.445971
0.443772
0.443579
0.203278
0.222923
0.228188
0.266549
0.312988
0.355846
0.363496
0.400568
0.434543
0.459468
0.464048
0.482414
0.498742
0.508276
0.516019
0.517278
0.523939
0.527153
0.530086
0.530496
0.532556
0.533551
0.534378
0.534493
0.534762
0.534651
0.534442
0.53442
0.533834
0.533098
0.532325
0.532275
0.531254
0.5301
0.528939
0.528867
0.527411
0.526001
0.524283
0.524138
0.522608
0.520314
0.518787
0.518435
0.515671
0.513982
0.510403
0.510009
0.508319
0.502357
0.501283
0.500265
0.491823
0.490871
0.475262
0.474211
0.477881
0.50045
0.473839
0.471394
0.465832
0.451227
0.446176
0.445824
0.440978
0.440528
0.448665
0.449756
0.449958
0.446324
0.44393
0.443762
0.197969
0.206803
0.209432
0.231741
0.265345
0.298014
0.304273
0.337913
0.37681
0.398143
0.403051
0.425541
0.459523
0.460454
0.47212
0.474197
0.494013
0.491223
0.497027
0.497772
0.506276
0.505724
0.508394
0.508616
0.512605
0.512267
0.51326
0.513279
0.515173
0.514726
0.51477
0.51469
0.515562
0.514978
0.514456
0.514277
0.514395
0.513909
0.512722
0.512515
0.512386
0.511333
0.510231
0.510032
0.508771
0.508359
0.505799
0.505662
0.505372
0.501542
0.501809
0.501234
0.495522
0.497002
0.486077
0.48535
0.490383
0.501983
0.496637
0.49493
0.485577
0.46939
0.463004
0.462111
0.453227
0.450793
0.456613
0.450007
0.455672
0.451752
0.448507
0.448115
0.197751
0.206472
0.209069
0.230936
0.263356
0.297077
0.303349
0.336636
0.370767
0.397027
0.402096
0.424352
0.44653
0.459482
0.471267
0.47331
0.485158
0.490396
0.49628
0.49708
0.502301
0.504936
0.507756
0.508062
0.510338
0.511482
0.512715
0.512816
0.513626
0.513905
0.514279
0.514291
0.51438
0.514102
0.513971
0.513919
0.513443
0.512954
0.512263
0.512178
0.511602
0.510434
0.509838
0.509669
0.508152
0.507618
0.505487
0.505354
0.504946
0.501168
0.501606
0.501033
0.495452
0.497172
0.48609
0.485583
0.490955
0.515971
0.49715
0.495352
0.487127
0.470546
0.463285
0.462464
0.454646
0.451388
0.456889
0.457925
0.456646
0.451968
0.448506
0.448183
0.197606
0.206271
0.208853
0.230372
0.261566
0.29645
0.302765
0.335711
0.364686
0.396229
0.401422
0.423521
0.434303
0.458807
0.47065
0.472496
0.476154
0.489718
0.495742
0.49644
0.498239
0.504276
0.507258
0.50756
0.508195
0.51083
0.512279
0.51241
0.51225
0.513253
0.513905
0.513983
0.513409
0.513439
0.51367
0.513709
0.512781
0.51229
0.512047
0.51206
0.511114
0.509813
0.509753
0.509613
0.507832
0.507145
0.505507
0.505382
0.504823
0.501073
0.501735
0.501172
0.495731
0.497558
0.486469
0.485948
0.491719
0.516955
0.497663
0.495762
0.488693
0.472128
0.463801
0.462994
0.456225
0.452364
0.457278
0.458315
0.457819
0.452481
0.44873
0.448456
0.195187
0.198391
0.199487
0.210244
0.22997
0.253213
0.25774
0.283747
0.313818
0.336948
0.341519
0.364475
0.389902
0.404229
0.418833
0.421909
0.439468
0.445943
0.454663
0.456072
0.465701
0.469526
0.474493
0.475122
0.48037
0.482657
0.485488
0.485781
0.488707
0.490046
0.491598
0.491735
0.493457
0.494204
0.495
0.495044
0.495977
0.496532
0.496674
0.4967
0.497377
0.497434
0.497617
0.49766
0.497533
0.498228
0.497375
0.497503
0.498445
0.496846
0.498584
0.498457
0.495749
0.499698
0.493286
0.493136
0.49993
0.523084
0.51154
0.510334
0.502121
0.486114
0.478053
0.476879
0.467158
0.462347
0.465544
0.466235
0.463593
0.458283
0.454054
0.453548
0.195016
0.1981
0.199162
0.209553
0.228194
0.252141
0.256705
0.28227
0.307552
0.335478
0.34015
0.362865
0.379016
0.402718
0.417476
0.420398
0.429693
0.444399
0.453405
0.45477
0.459851
0.468073
0.473333
0.474044
0.476862
0.481265
0.484447
0.484876
0.486297
0.488669
0.490672
0.490987
0.491634
0.492815
0.494183
0.494434
0.494567
0.495125
0.495986
0.496192
0.49623
0.496089
0.497107
0.497192
0.496624
0.497071
0.497019
0.497157
0.497796
0.496139
0.498397
0.49828
0.495577
0.499545
0.493443
0.493491
0.500353
0.523404
0.512045
0.510563
0.50326
0.487431
0.478548
0.477415
0.468697
0.463359
0.465932
0.466612
0.464741
0.458824
0.454283
0.453828
0.193855
0.194381
0.194701
0.199028
0.209338
0.223198
0.225985
0.24394
0.267749
0.284965
0.288541
0.308777
0.335403
0.347077
0.362077
0.36604
0.388716
0.394311
0.404993
0.407298
0.422127
0.426086
0.432999
0.434268
0.443409
0.44649
0.450845
0.451592
0.45738
0.459769
0.462411
0.462889
0.466788
0.468721
0.470281
0.470614
0.473352
0.475158
0.47594
0.476207
0.478459
0.479967
0.480675
0.480958
0.482542
0.484671
0.484788
0.48518
0.48773
0.488422
0.491149
0.491454
0.491716
0.497691
0.495646
0.496114
0.504396
0.523912
0.51684
0.515847
0.509534
0.495999
0.488251
0.486852
0.476692
0.471602
0.472938
0.473182
0.469464
0.463855
0.459075
0.458284
0.193756
0.194213
0.194512
0.198618
0.208193
0.222416
0.225245
0.242779
0.262646
0.283748
0.28739
0.307317
0.32526
0.345538
0.360821
0.364497
0.378619
0.392632
0.403713
0.405887
0.41519
0.424365
0.431747
0.433027
0.438924
0.444712
0.449671
0.450507
0.454213
0.457936
0.461335
0.461971
0.464373
0.466832
0.469319
0.469845
0.471461
0.473245
0.475102
0.475538
0.476886
0.478096
0.480024
0.480357
0.481241
0.482992
0.48429
0.484701
0.486705
0.487203
0.490813
0.491134
0.491168
0.497056
0.49563
0.49628
0.504442
0.523672
0.516986
0.515717
0.509834
0.496649
0.48848
0.487128
0.477704
0.472378
0.473199
0.473453
0.470266
0.464264
0.459218
0.458495
0.193182
0.192477
0.192425
0.193497
0.198013
0.204998
0.206452
0.217307
0.234324
0.245328
0.247803
0.263524
0.289944
0.295555
0.308758
0.312833
0.339287
0.341104
0.351902
0.354895
0.374482
0.377064
0.384974
0.38693
0.400535
0.403585
0.408958
0.410255
0.419736
0.42286
0.426227
0.427115
0.434022
0.437145
0.439104
0.439756
0.445047
0.448293
0.449294
0.449837
0.454295
0.457517
0.458312
0.458851
0.462673
0.466527
0.46713
0.467788
0.472405
0.47556
0.478804
0.479526
0.483039
0.491032
0.492644
0.493752
0.504112
0.519587
0.513913
0.512824
0.509012
0.498768
0.491836
0.490285
0.481511
0.477336
0.477232
0.476962
0.472829
0.467158
0.461882
0.460702
0.193143
0.192415
0.192356
0.193326
0.197441
0.204651
0.20613
0.216694
0.230752
0.244674
0.247236
0.26262
0.278738
0.294548
0.308075
0.311804
0.327568
0.339846
0.351141
0.353888
0.367066
0.375551
0.384179
0.385988
0.395524
0.401821
0.408166
0.409397
0.416095
0.420855
0.425457
0.426357
0.431195
0.434929
0.438362
0.439083
0.442752
0.445936
0.448578
0.449211
0.452343
0.455144
0.457651
0.45825
0.460992
0.464306
0.46654
0.46724
0.470968
0.473759
0.4783
0.479051
0.48199
0.489852
0.492346
0.493639
0.50373
0.518744
0.513735
0.512504
0.508322
0.498547
0.491681
0.490158
0.481661
0.477563
0.477197
0.476931
0.473006
0.467199
0.46178
0.460644
0.193115
0.192382
0.192319
0.193209
0.196936
0.204433
0.205932
0.216213
0.227391
0.244165
0.246851
0.261891
0.272179
0.293774
0.307585
0.310933
0.319058
0.338721
0.350561
0.352972
0.359588
0.374121
0.383528
0.385116
0.390282
0.400117
0.407491
0.408602
0.412329
0.418885
0.42479
0.425658
0.428313
0.43273
0.43774
0.43849
0.440457
0.443586
0.448022
0.448721
0.450426
0.452748
0.457201
0.457849
0.459371
0.462058
0.466182
0.466932
0.469619
0.471964
0.478056
0.478855
0.481098
0.488683
0.492334
0.493617
0.503408
0.517953
0.513601
0.512268
0.507661
0.498377
0.491691
0.490178
0.481768
0.477936
0.477306
0.477026
0.473067
0.467363
0.461798
0.460689
0.192834
0.191593
0.191368
0.190832
0.191995
0.194922
0.195565
0.201024
0.209881
0.21774
0.21925
0.229918
0.243916
0.253575
0.264089
0.267434
0.283669
0.291739
0.301564
0.304449
0.320051
0.326222
0.334438
0.336704
0.349547
0.355013
0.361473
0.363151
0.373255
0.378311
0.383138
0.384409
0.392392
0.397137
0.400661
0.401678
0.408203
0.412855
0.415474
0.41635
0.422076
0.426699
0.429089
0.429958
0.435259
0.44046
0.442959
0.443959
0.450072
0.455355
0.460312
0.461504
0.467783
0.477735
0.483348
0.485136
0.497873
0.509119
0.503401
0.501846
0.499454
0.492937
0.487246
0.48552
0.479649
0.477618
0.476257
0.475337
0.471562
0.466107
0.460299
0.45857
0.192807
0.19155
0.191319
0.190713
0.19162
0.194632
0.195276
0.200487
0.207469
0.217044
0.218641
0.228963
0.238524
0.252464
0.263257
0.266206
0.276488
0.29016
0.300555
0.303088
0.312729
0.324186
0.33327
0.335322
0.343508
0.352513
0.360216
0.361804
0.368371
0.375365
0.381854
0.383149
0.388348
0.393849
0.399411
0.400524
0.404782
0.409346
0.414288
0.415294
0.419092
0.423136
0.428064
0.429014
0.432632
0.437092
0.442058
0.443129
0.447779
0.452512
0.45956
0.460814
0.465996
0.475633
0.482894
0.484823
0.496732
0.507446
0.50292
0.501102
0.497614
0.491678
0.486825
0.485071
0.478634
0.477236
0.476046
0.475042
0.470607
0.465665
0.460023
0.45821
0.192671
0.191224
0.190924
0.189665
0.189271
0.189823
0.18999
0.192213
0.197156
0.200616
0.201325
0.207808
0.220069
0.223289
0.23042
0.233153
0.249856
0.251906
0.25934
0.261988
0.278544
0.281189
0.287845
0.290139
0.305002
0.308545
0.31385
0.315761
0.328662
0.333087
0.336898
0.33844
0.349566
0.354743
0.357221
0.358489
0.368268
0.374169
0.375681
0.376794
0.385724
0.392226
0.393453
0.394548
0.403159
0.410521
0.412245
0.413489
0.422849
0.430885
0.435351
0.436931
0.447282
0.459673
0.467233
0.469666
0.485784
0.493883
0.485894
0.483633
0.4832
0.479374
0.473918
0.472031
0.470297
0.470594
0.467866
0.466212
0.463751
0.458674
0.452146
0.449888
0.192662
0.19121
0.190908
0.189621
0.189101
0.189707
0.189878
0.191968
0.195701
0.200275
0.201054
0.207278
0.213876
0.222619
0.229996
0.232405
0.241634
0.250827
0.258778
0.261108
0.271882
0.279605
0.287139
0.289187
0.299413
0.30635
0.313015
0.314768
0.32387
0.330229
0.335961
0.337447
0.345362
0.351282
0.356214
0.35751
0.364514
0.370247
0.374623
0.375827
0.382308
0.388073
0.392407
0.393615
0.400022
0.406431
0.411221
0.412587
0.419978
0.427227
0.434394
0.436076
0.444805
0.456783
0.466503
0.469118
0.48402
0.491417
0.48524
0.482809
0.480502
0.477158
0.473263
0.471211
0.468268
0.469359
0.467404
0.465477
0.461881
0.457566
0.451674
0.449055
0.192656
0.191205
0.190902
0.189593
0.188957
0.189636
0.189814
0.191779
0.194495
0.200019
0.200876
0.206843
0.21156
0.222053
0.229688
0.231763
0.237397
0.249828
0.258345
0.260326
0.266122
0.278056
0.286564
0.288314
0.293891
0.304131
0.312308
0.313847
0.318919
0.32728
0.335137
0.336523
0.340947
0.347656
0.355314
0.356607
0.36054
0.366112
0.373686
0.374953
0.378685
0.383681
0.391504
0.392813
0.396702
0.402117
0.410355
0.411853
0.416955
0.423387
0.433629
0.43544
0.442258
0.453718
0.465948
0.468595
0.482065
0.488891
0.484532
0.482033
0.477565
0.474802
0.47264
0.470568
0.465788
0.467954
0.46698
0.46489
0.459183
0.456248
0.451217
0.448351
0.192602
0.191108
0.190781
0.189206
0.187975
0.187366
0.187285
0.18763
0.189217
0.190779
0.191051
0.194241
0.19935
0.20286
0.207196
0.208947
0.21745
0.221574
0.226856
0.228853
0.239506
0.243467
0.248772
0.250682
0.261604
0.265935
0.270714
0.272438
0.282965
0.287871
0.291779
0.293285
0.303248
0.30881
0.311887
0.313243
0.322754
0.329025
0.331541
0.332816
0.342116
0.349188
0.351717
0.353037
0.36263
0.37082
0.37424
0.375781
0.386555
0.39622
0.402472
0.404502
0.417416
0.431739
0.442646
0.445767
0.464535
0.469648
0.460536
0.457358
0.456921
0.455573
0.451243
0.448871
0.450129
0.453415
0.449836
0.447071
0.445256
0.441776
0.435093
0.431992
0.192598
0.191105
0.190777
0.18919
0.187898
0.187307
0.187228
0.187491
0.188468
0.190565
0.190885
0.193887
0.196659
0.202373
0.20689
0.208381
0.213108
0.220669
0.226418
0.228107
0.234629
0.241999
0.248178
0.249802
0.256736
0.26376
0.26996
0.271464
0.278287
0.284868
0.290861
0.292249
0.298759
0.30497
0.310821
0.312162
0.318422
0.324456
0.330333
0.331689
0.337907
0.344155
0.350429
0.351894
0.358542
0.365687
0.372895
0.374617
0.382625
0.391413
0.401138
0.403334
0.413804
0.427661
0.441524
0.444849
0.461612
0.465905
0.459487
0.456153
0.45309
0.452009
0.450182
0.447586
0.446708
0.450776
0.448972
0.445725
0.441942
0.439403
0.434277
0.430479
0.192596
0.191105
0.190777
0.189183
0.18784
0.187273
0.187198
0.187386
0.187855
0.190408
0.190781
0.193602
0.195237
0.201961
0.206662
0.207893
0.210116
0.219847
0.226073
0.227444
0.230157
0.2406
0.247689
0.249009
0.251985
0.261634
0.269319
0.270574
0.273625
0.281896
0.290058
0.291287
0.294237
0.301119
0.309872
0.311159
0.31402
0.319799
0.329249
0.330659
0.33359
0.338915
0.349271
0.350866
0.354321
0.360222
0.371687
0.373595
0.378542
0.386191
0.399981
0.402362
0.410055
0.423105
0.440488
0.443925
0.458312
0.462068
0.458312
0.455047
0.448684
0.448336
0.449053
0.446524
0.442287
0.447885
0.448042
0.444595
0.436824
0.436767
0.433386
0.429189
0.192586
0.19112
0.190791
0.189115
0.187519
0.186326
0.186117
0.18547
0.185343
0.185611
0.185626
0.186746
0.18831
0.190566
0.192754
0.193691
0.197278
0.200943
0.204214
0.2055
0.21138
0.21526
0.219041
0.220444
0.227515
0.231713
0.235571
0.236948
0.244472
0.249062
0.252665
0.253966
0.261666
0.266821
0.270159
0.271387
0.279261
0.285027
0.288297
0.289512
0.29779
0.304449
0.308132
0.309496
0.318689
0.326755
0.331792
0.333498
0.344521
0.354915
0.363016
0.365399
0.379763
0.395396
0.409457
0.413193
0.433829
0.436723
0.427549
0.423448
0.422723
0.422997
0.420069
0.417062
0.420028
0.425458
0.421896
0.417981
0.416445
0.414929
0.408945
0.404956
0.192586
0.191124
0.190795
0.189117
0.187498
0.186294
0.186085
0.185385
0.184992
0.185452
0.185494
0.186484
0.187343
0.190165
0.19245
0.193206
0.195346
0.200151
0.203757
0.204795
0.208228
0.213897
0.218403
0.219545
0.223714
0.229613
0.234734
0.235887
0.240385
0.246118
0.251621
0.252772
0.257431
0.263019
0.268916
0.27009
0.274888
0.280402
0.286849
0.288132
0.293262
0.299184
0.306518
0.308038
0.313994
0.321116
0.330009
0.331939
0.339719
0.349283
0.361161
0.363778
0.375058
0.390191
0.407702
0.411629
0.429437
0.431739
0.425817
0.421504
0.417733
0.418263
0.418331
0.415098
0.415223
0.421307
0.42033
0.415775
0.411753
0.411107
0.407496
0.40253
0.192594
0.191193
0.190871
0.189193
0.187471
0.186019
0.185749
0.184619
0.183837
0.183147
0.182997
0.182994
0.18398
0.183902
0.184574
0.185095
0.188239
0.188581
0.190018
0.190871
0.195942
0.196829
0.198652
0.199713
0.206179
0.207858
0.209653
0.210786
0.218165
0.220806
0.222225
0.22332
0.231349
0.235155
0.236077
0.237095
0.245675
0.250697
0.251278
0.252242
0.261634
0.268136
0.268791
0.269821
0.280625
0.289028
0.290831
0.292212
0.305544
0.316962
0.321832
0.324041
0.341885
0.358786
0.370657
0.374572
0.399247
0.402211
0.389451
0.385072
0.387562
0.389258
0.383518
0.380669
0.387599
0.393587
0.387238
0.383639
0.385632
0.384358
0.376617
0.373455
0.192596
0.191195
0.190874
0.189201
0.187479
0.186012
0.185741
0.184593
0.183641
0.183081
0.182948
0.182875
0.182819
0.183704
0.184437
0.184845
0.185941
0.188132
0.189781
0.190472
0.193193
0.195965
0.198286
0.199161
0.203118
0.20639
0.209126
0.210087
0.214866
0.218575
0.221508
0.22249
0.227853
0.232062
0.235149
0.236136
0.241962
0.24669
0.250119
0.251162
0.257653
0.263229
0.267393
0.268592
0.276264
0.283296
0.289156
0.290789
0.300724
0.310689
0.319903
0.322388
0.33665
0.35246
0.368656
0.372839
0.393887
0.39556
0.387718
0.382902
0.382055
0.38325
0.381837
0.378343
0.381936
0.388297
0.385705
0.380977
0.379811
0.37981
0.375265
0.370577
0.192598
0.191199
0.190878
0.189212
0.187494
0.186013
0.185741
0.184576
0.183531
0.183037
0.18292
0.182778
0.182554
0.183536
0.184345
0.184629
0.185231
0.187711
0.189598
0.190112
0.191532
0.195111
0.197977
0.198648
0.200723
0.204909
0.208659
0.209424
0.211961
0.216332
0.220849
0.221687
0.224579
0.229005
0.234271
0.235206
0.238381
0.242874
0.249
0.250105
0.253766
0.258762
0.266006
0.267379
0.272008
0.278273
0.28749
0.289384
0.296035
0.305243
0.318003
0.320779
0.331618
0.346801
0.366572
0.370936
0.388503
0.389947
0.385598
0.380764
0.376407
0.378049
0.379845
0.376123
0.376393
0.383407
0.38382
0.378413
0.374402
0.375326
0.373578
0.367746
0.192615
0.191285
0.190976
0.189347
0.187611
0.186068
0.185774
0.184411
0.183145
0.182102
0.181884
0.181208
0.180847
0.180407
0.180246
0.180405
0.181209
0.181326
0.181749
0.182147
0.184219
0.184864
0.185711
0.186289
0.18953
0.190786
0.19184
0.192536
0.196779
0.198759
0.199824
0.200568
0.205668
0.208507
0.209502
0.21025
0.216148
0.219917
0.220984
0.221745
0.228601
0.233531
0.234995
0.235847
0.2441
0.250652
0.253431
0.254596
0.265384
0.275041
0.280883
0.282915
0.298765
0.314125
0.327282
0.331129
0.354441
0.356924
0.346504
0.342005
0.343985
0.346545
0.342489
0.339428
0.345663
0.352335
0.347365
0.343496
0.345098
0.345818
0.339515
0.336047
0.192617
0.191288
0.190979
0.189359
0.187636
0.186072
0.185776
0.18441
0.183091
0.182077
0.181864
0.181152
0.180349
0.180298
0.180171
0.18026
0.180116
0.181046
0.181602
0.18189
0.182722
0.184278
0.185459
0.185905
0.187612
0.189727
0.191454
0.192015
0.194469
0.197061
0.199264
0.199904
0.202996
0.206043
0.20873
0.209443
0.213125
0.216646
0.219968
0.22079
0.225205
0.229463
0.233702
0.234713
0.240258
0.245812
0.251817
0.253225
0.260907
0.269401
0.278883
0.281197
0.293475
0.307821
0.324946
0.329076
0.348341
0.349571
0.344331
0.339508
0.33832
0.33998
0.340409
0.33679
0.339894
0.346261
0.345411
0.340459
0.339417
0.340407
0.337796
0.332789
0.192618
0.191291
0.190983
0.189372
0.187664
0.186079
0.185782
0.184414
0.183082
0.182062
0.181856
0.18111
0.180298
0.180209
0.180123
0.180139
0.179838
0.180793
0.181492
0.181666
0.181855
0.183729
0.185254
0.185559
0.186194
0.188721
0.191114
0.191533
0.192563
0.195454
0.198746
0.199279
0.200656
0.203755
0.207997
0.208672
0.210387
0.213689
0.218984
0.219858
0.222074
0.225886
0.23244
0.233602
0.2367
0.241672
0.250243
0.251882
0.256791
0.264619
0.276952
0.279538
0.288642
0.302283
0.322582
0.326894
0.34246
0.343713
0.341777
0.337158
0.332258
0.334625
0.338015
0.33432
0.333851
0.341026
0.343073
0.337596
0.333315
0.335585
0.335692
0.329637
0.192636
0.19137
0.191075
0.189514
0.187827
0.18627
0.185972
0.184528
0.183077
0.181839
0.18159
0.180568
0.179602
0.178846
0.178235
0.178178
0.177833
0.177601
0.177436
0.177537
0.17794
0.17818
0.178413
0.178646
0.179812
0.180534
0.181091
0.181428
0.18333
0.184584
0.185395
0.185805
0.188419
0.190275
0.191344
0.191813
0.195173
0.197717
0.19917
0.199718
0.203975
0.207426
0.209565
0.210262
0.215793
0.220586
0.224082
0.225077
0.232689
0.240137
0.246518
0.248285
0.260495
0.273189
0.286757
0.290253
0.309536
0.311397
0.304839
0.300804
0.301663
0.304252
0.302713
0.299861
0.304285
0.310514
0.307939
0.304161
0.30468
0.306598
0.302691
0.299194
0.192638
0.191374
0.191079
0.189526
0.187857
0.186278
0.185978
0.184542
0.183095
0.181836
0.181586
0.180553
0.17947
0.178798
0.178201
0.178108
0.177458
0.17745
0.177357
0.177394
0.177276
0.177832
0.178264
0.178412
0.178808
0.179866
0.18084
0.181087
0.181971
0.183465
0.185004
0.185344
0.186698
0.188598
0.190772
0.191219
0.193075
0.195426
0.198371
0.198964
0.201467
0.204509
0.208499
0.209323
0.212828
0.217072
0.222707
0.223903
0.229145
0.235921
0.244725
0.246739
0.256042
0.268061
0.284443
0.288174
0.303855
0.304816
0.302444
0.298346
0.296489
0.298318
0.300442
0.297263
0.299161
0.304772
0.305555
0.301119
0.299789
0.301237
0.300721
0.295939
0.192638
0.191376
0.191081
0.189539
0.187889
0.186288
0.185985
0.184556
0.183137
0.181838
0.181588
0.180545
0.179464
0.178763
0.178179
0.178053
0.177271
0.177322
0.177299
0.177273
0.176764
0.177527
0.178144
0.178209
0.17796
0.179276
0.180627
0.180785
0.180784
0.182467
0.184659
0.184929
0.185164
0.187082
0.190253
0.190672
0.191172
0.193311
0.197639
0.198266
0.199158
0.201743
0.207519
0.208448
0.210054
0.213637
0.221448
0.222811
0.225795
0.231696
0.243098
0.245318
0.251756
0.262719
0.282245
0.286128
0.29791
0.298969
0.299848
0.296255
0.290162
0.293048
0.298004
0.295035
0.292422
0.299517
0.275075
0.298356
0.292428
0.296511
0.298477
0.293055
0.192653
0.191439
0.191154
0.18966
0.188045
0.186509
0.186214
0.184771
0.183286
0.181942
0.181678
0.180505
0.179301
0.178323
0.177467
0.177303
0.176449
0.175912
0.175402
0.175341
0.174935
0.174787
0.174628
0.17466
0.174717
0.17495
0.175138
0.175252
0.17577
0.176391
0.176934
0.177122
0.178113
0.17915
0.180105