/*--------------------------------*- C++ -*----------------------------------*\
| =========                 |                                                 |
| \\      /  F ield         | OpenFOAM: The Open Source CFD Toolbox           |
|  \\    /   O peration     | Version:  v2012                                 |
|   \\  /    A nd           | Website:  www.openfoam.com                      |
|    \\/     M anipulation  |                                                 |
\*---------------------------------------------------------------------------*/
FoamFile
{
    version     2.0;
    format      ascii;
    class       volScalarField;
    location    "1e-06";
    object      kPrime2Mean;
}
// * * * * * * * * * * * * * * * * * * * * * * * * * * * * * * * * * * * * * //

dimensions      [0 4 -4 0 0 0 0];


internalField   nonuniform List<scalar> 
10262
(
0.00256672
2.1696e-05
7.49281e-05
1.09474e-07
2.87441e-06
1.20912e-06
3.35737e-07
1.43206e-06
2.2354e-06
9.38669e-07
1.92089e-07
9.98735e-07
2.30783e-06
8.97259e-07
1.86316e-07
7.73048e-07
1.98156e-06
8.86004e-07
2.29447e-07
6.26402e-07
1.51305e-06
8.98733e-07
2.62211e-07
5.12065e-07
1.27294e-06
9.0157e-07
2.86024e-07
4.19379e-07
1.09661e-06
8.84684e-07
3.05459e-07
3.48537e-07
9.50092e-07
8.54261e-07
3.16569e-07
2.95506e-07
8.09565e-07
8.02484e-07
2.94031e-07
2.29313e-07
6.88917e-07
7.03921e-07
2.86126e-07
2.00322e-07
5.50161e-07
5.74897e-07
2.07627e-07
1.19009e-07
4.0163e-07
4.07142e-07
4.84289e-08
1.30666e-07
7.73201e-08
5.37533e-09
1.7596e-07
2.18396e-08
7.06823e-07
7.61777e-07
9.71174e-08
1.24678e-07
5.13854e-07
6.07808e-07
1.48583e-07
3.03748e-07
7.67438e-07
1.12302e-06
7.56117e-07
7.45949e-07
1.56909e-06
1.73986e-06
3.39111e-07
6.68407e-07
0.000178821
5.90783e-06
1.31491e-05
1.07545e-06
1.51595e-06
6.3533e-07
4.02565e-07
8.27688e-07
1.14709e-06
5.07322e-07
2.31381e-07
5.6848e-07
1.09139e-06
4.58662e-07
1.54169e-07
4.39672e-07
9.19958e-07
4.41014e-07
1.59453e-07
3.4821e-07
7.0766e-07
4.263e-07
1.64387e-07
2.84612e-07
5.84052e-07
4.12594e-07
1.66787e-07
2.36847e-07
4.93104e-07
3.96118e-07
1.63195e-07
1.96812e-07
4.16848e-07
3.70086e-07
1.53372e-07
1.6204e-07
3.51305e-07
3.29734e-07
1.38886e-07
1.3249e-07
2.80138e-07
2.8339e-07
1.10402e-07
1.00573e-07
2.15983e-07
2.01942e-07
8.17794e-08
7.10743e-08
1.31476e-07
1.35627e-07
3.58945e-08
3.49014e-08
7.47024e-08
2.78462e-08
6.27884e-09
9.01012e-09
3.91572e-10
8.83779e-08
2.59478e-08
1.79566e-08
1.00567e-07
2.29742e-07
1.01322e-07
1.04329e-07
2.93264e-07
3.18656e-07
1.52784e-07
3.94896e-07
4.89234e-07
6.14356e-07
2.82673e-07
3.40502e-07
3.48717e-05
8.51929e-06
5.27662e-06
4.61217e-07
1.13252e-07
5.25668e-08
4.90368e-08
2.80074e-08
1.55455e-08
1.51481e-08
1.0242e-07
2.29977e-08
1.30258e-08
1.16272e-07
8.16797e-08
1.18024e-07
5.19337e-08
1.18513e-07
9.89661e-08
1.20724e-07
9.61283e-08
1.16743e-07
1.06512e-07
1.20736e-07
1.01661e-07
1.15741e-07
1.06327e-07
1.19211e-07
1.02185e-07
1.11813e-07
1.03714e-07
1.17465e-07
9.62605e-08
1.08343e-07
9.39586e-08
1.14261e-07
8.89433e-08
9.24031e-08
8.40675e-08
1.05847e-07
5.55448e-08
8.8709e-08
3.14215e-08
9.07766e-08
4.8179e-08
9.1657e-09
2.43808e-08
4.31247e-08
1.52215e-08
3.67489e-08
2.32731e-08
2.69737e-08
2.04164e-08
3.29911e-08
2.74583e-08
9.59163e-08
4.53478e-08
4.55824e-08
2.74248e-08
4.12812e-09
2.64742e-08
5.38786e-08
1.19562e-09
2.7591e-09
4.62913e-08
1.60005e-11
8.34369e-08
1.44327e-06
2.49265e-08
1.60056e-08
4.71184e-08
8.88422e-09
4.85587e-05
1.38407e-05
1.06862e-05
2.31464e-06
1.42666e-06
1.71294e-06
1.10374e-06
9.3951e-07
8.70114e-07
1.20738e-06
8.53914e-07
1.05836e-06
5.46063e-07
8.70203e-07
8.83632e-07
8.76866e-07
6.17698e-07
7.76385e-07
7.62848e-07
7.44393e-07
7.23119e-07
6.94722e-07
6.74842e-07
6.54716e-07
6.57499e-07
6.17891e-07
6.01431e-07
5.79262e-07
5.82553e-07
5.43493e-07
5.31076e-07
4.97603e-07
5.07145e-07
4.52737e-07
4.54462e-07
4.15697e-07
4.06678e-07
3.58533e-07
3.68736e-07
2.79671e-07
3.24204e-07
1.82039e-07
2.53218e-07
1.92371e-07
1.44266e-07
1.15366e-07
1.06671e-07
1.00527e-07
7.64337e-08
6.56046e-08
3.47493e-08
3.62799e-08
3.03968e-08
2.58552e-08
2.31847e-09
2.02678e-09
1.4497e-09
3.6491e-08
8.17688e-09
2.36618e-08
5.01405e-08
1.51434e-07
2.38592e-07
1.38085e-07
1.86829e-07
3.40396e-07
2.19119e-07
1.67046e-07
3.31284e-07
6.24096e-07
6.27223e-07
9.10705e-07
6.94026e-07
5.26358e-07
3.97236e-07
1.29264e-07
1.02637e-07
9.59466e-08
9.00742e-08
9.66632e-08
8.93539e-08
9.00454e-08
8.50966e-08
8.74598e-08
5.03834e-08
8.11591e-08
7.93655e-08
7.66656e-08
5.38866e-08
7.54401e-08
7.40055e-08
7.18401e-08
6.61615e-08
7.09528e-08
6.96555e-08
6.78207e-08
6.53706e-08
6.69367e-08
6.60361e-08
6.42827e-08
6.28669e-08
6.32792e-08
6.26744e-08
6.0863e-08
5.99817e-08
5.96717e-08
5.94136e-08
5.73502e-08
5.69571e-08
5.59871e-08
5.59628e-08
5.38408e-08
5.37438e-08
5.21555e-08
5.2405e-08
4.92823e-08
4.98127e-08
4.72235e-08
4.73281e-08
4.4179e-08
4.34126e-08
4.03524e-08
3.94557e-08
3.56781e-08
3.49511e-08
3.69889e-08
3.92682e-08
3.35121e-08
4.18477e-08
3.34378e-08
6.14881e-08
6.32948e-08
4.05893e-08
3.25152e-08
4.26209e-08
5.13746e-08
4.24091e-08
3.89421e-08
4.51772e-08
6.0696e-08
4.59978e-08
4.6546e-08
5.60067e-08
7.75945e-08
3.06852e-06
1.59754e-06
1.17307e-06
3.5222e-07
1.34988e-07
7.03973e-08
1.0424e-11
3.74072e-08
1.96245e-08
1.37808e-08
2.76534e-08
7.8811e-09
2.27844e-09
4.47921e-08
1.46883e-08
4.9316e-08
2.07113e-10
5.43247e-08
3.14857e-08
5.53941e-08
2.77833e-08
5.16869e-08
4.14121e-08
5.79476e-08
3.7148e-08
5.27485e-08
4.36905e-08
5.89538e-08
4.03873e-08
5.08338e-08
4.28588e-08
5.89921e-08
3.69645e-08
4.85961e-08
3.46675e-08
5.74384e-08
3.22159e-08
3.39878e-08
2.71263e-08
5.17376e-08
8.08554e-09
3.2831e-08
4.70853e-09
3.92794e-08
5.49946e-09
7.36343e-09
8.89445e-09
1.06803e-08
1.28268e-08
1.91217e-08
2.12942e-08
2.38655e-08
2.07827e-08
2.53158e-08
2.98798e-08
9.33659e-08
5.75512e-08
1.82273e-08
7.32038e-08
3.55388e-08
2.11409e-08
2.69328e-08
8.88763e-11
3.03255e-11
7.14145e-09
2.4577e-11
2.04922e-11
6.3041e-10
2.04558e-09
8.05663e-09
1.69833e-11
3.38275e-08
3.09704e-06
2.09361e-06
1.73424e-06
9.79426e-07
5.76888e-07
6.41947e-07
4.03058e-07
3.03114e-07
2.18611e-07
3.95852e-07
2.00453e-07
2.8181e-07
7.55542e-08
2.05985e-07
2.69855e-07
2.34948e-07
1.2021e-07
1.89406e-07
2.19848e-07
1.91447e-07
1.71412e-07
1.68264e-07
1.85333e-07
1.61539e-07
1.57452e-07
1.42377e-07
1.57651e-07
1.36652e-07
1.33305e-07
1.15878e-07
1.32182e-07
1.06771e-07
1.08766e-07
7.98978e-08
1.04606e-07
7.79714e-08
6.83117e-08
4.73523e-08
7.32271e-08
2.71246e-08
4.61264e-08
1.86375e-08
3.3902e-08
1.55005e-08
1.11773e-08
7.26527e-09
5.01607e-09
5.39187e-09
2.09708e-09
9.25711e-10
2.19015e-11
4.25671e-12
6.26884e-10
1.88156e-10
1.2602e-08
9.55274e-09
1.05484e-08
3.54833e-08
6.06927e-08
3.35207e-08
5.84768e-09
1.00308e-09
1.82637e-08
3.92899e-09
1.53089e-08
4.77984e-08
2.75144e-08
3.89351e-08
3.72687e-08
7.79511e-08
1.17166e-07
1.4557e-07
7.1297e-07
7.68116e-07
7.18607e-07
4.1163e-07
2.06149e-07
1.19175e-07
2.56577e-08
6.89905e-08
3.78371e-08
2.72305e-08
2.56486e-09
1.76624e-08
5.64387e-09
2.01557e-09
3.19918e-10
1.93772e-08
6.36245e-11
1.88448e-08
8.57267e-09
2.66341e-08
1.06086e-08
2.13588e-08
1.68016e-08
3.07953e-08
1.67372e-08
2.56235e-08
1.99157e-08
3.33202e-08
1.98406e-08
2.6135e-08
2.03838e-08
3.46824e-08
1.82061e-08
2.5818e-08
1.49909e-08
3.46895e-08
1.52766e-08
1.57232e-08
9.92274e-09
3.10886e-08
1.88678e-09
1.57809e-08
3.63075e-09
2.21455e-08
4.31258e-09
5.83235e-09
7.71991e-09
9.35157e-09
1.10261e-08
1.52341e-08
1.96372e-08
2.17569e-08
2.02554e-08
2.31493e-08
3.07448e-08
9.28843e-08
5.60076e-08
6.17495e-08
1.01928e-07
7.85569e-08
4.35245e-08
3.48798e-08
4.02274e-09
2.50605e-09
6.7344e-09
2.08807e-10
1.32378e-08
9.06366e-11
4.17871e-10
3.83804e-09
2.49534e-09
2.03757e-08
1.04116e-06
8.55028e-07
7.10201e-07
5.35444e-07
3.33013e-07
3.73398e-07
2.14967e-07
1.66383e-07
1.14621e-07
2.42409e-07
1.03967e-07
2.05501e-07
3.18449e-08
9.99358e-08
1.64936e-07
1.59884e-07
2.87413e-08
9.8813e-08
1.33267e-07
1.15211e-07
8.18349e-08
9.03001e-08
1.1114e-07
9.32486e-08
8.33969e-08
7.53476e-08
9.36408e-08
7.71873e-08
7.11786e-08
5.89739e-08
7.75877e-08
5.77644e-08
5.77113e-08
3.53562e-08
6.04826e-08
3.9541e-08
3.17599e-08
1.58278e-08
4.04526e-08
1.05207e-08
2.06152e-08
6.53533e-09
1.58949e-08
5.57607e-09
3.63175e-09
2.19285e-09
1.2736e-09
1.54332e-09
3.94284e-10
2.56002e-11
2.41041e-10
1.80238e-10
1.4659e-09
6.19876e-10
1.17143e-08
8.20361e-09
3.11149e-09
1.01134e-07
7.60498e-08
3.86315e-08
1.73374e-08
2.80038e-09
1.72645e-09
5.03156e-10
1.13026e-09
2.2601e-08
1.52491e-08
2.9324e-08
1.02884e-08
2.53109e-08
3.94898e-08
3.57651e-08
7.54511e-09
1.61523e-08
3.99535e-08
2.32134e-08
2.18325e-08
2.19632e-08
1.71657e-08
2.27112e-08
1.99422e-08
2.20143e-08
1.9645e-08
2.23613e-08
8.71944e-09
2.05853e-08
2.10738e-08
1.99433e-08
1.09204e-08
2.03782e-08
2.05669e-08
1.96927e-08
1.68499e-08
1.97916e-08
1.98397e-08
1.91239e-08
1.77553e-08
1.90824e-08
1.92153e-08
1.85244e-08
1.77658e-08
1.8405e-08
1.86695e-08
1.79869e-08
1.75584e-08
1.77592e-08
1.82239e-08
1.74501e-08
1.73655e-08
1.72112e-08
1.78653e-08
1.70474e-08
1.70144e-08
1.64171e-08
1.73608e-08
1.64595e-08
1.64009e-08
1.5189e-08
1.68158e-08
1.53236e-08
1.51036e-08
1.40677e-08
1.46987e-08
1.36738e-08
1.30484e-08
1.54605e-08
2.09373e-08
1.51873e-08
1.76285e-08
9.93415e-08
2.76621e-08
1.94848e-08
1.25032e-08
1.32783e-08
1.68048e-08
1.87392e-08
1.27938e-08
1.12468e-08
2.03296e-09
1.38677e-08
8.30799e-09
9.9446e-09
1.18575e-08
1.66614e-08
8.68705e-08
2.51804e-07
2.48945e-07
2.44186e-07
1.9086e-07
1.57541e-07
1.12602e-07
1.21219e-07
7.41457e-08
7.47734e-08
1.45276e-08
5.83039e-08
1.53169e-08
6.19615e-10
2.83232e-08
2.0708e-11
1.09369e-08
8.70454e-10
3.86978e-09
1.14165e-09
8.42042e-09
1.39555e-09
4.18187e-11
3.04677e-09
6.20569e-10
2.29904e-09
2.15168e-10
4.65246e-09
6.56436e-12
2.46705e-09
5.33602e-10
5.85096e-09
2.66381e-12
2.29859e-09
3.21113e-11
6.24747e-09
1.02864e-10
2.59573e-11
2.79196e-10
5.16699e-09
1.35829e-09
1.52711e-11
5.12264e-10
1.49655e-09
1.72576e-10
1.10811e-11
3.87734e-11
1.75593e-10
4.08745e-10
9.57127e-10
2.64741e-09
3.21909e-09
3.77107e-09
3.76893e-09
9.39164e-09
5.75671e-08
1.85155e-08
3.6288e-08
1.46922e-07
9.21132e-08
5.23527e-08
3.12511e-08
1.24473e-08
1.22807e-08
5.62344e-09
9.69066e-10
1.54528e-09
4.76638e-11
1.38886e-10
2.73152e-11
1.05049e-09
3.21792e-09
1.42334e-07
2.37205e-07
2.07637e-07
3.52212e-07
3.05114e-07
3.48975e-07
2.97167e-07
2.21219e-07
1.43983e-07
2.5969e-07
1.57136e-07
1.1326e-07
3.47046e-08
8.79941e-08
1.59184e-07
7.32474e-08
4.1003e-08
7.88526e-08
1.22915e-07
7.69453e-08
6.5487e-08
6.94728e-08
9.60125e-08
6.47046e-08
6.31398e-08
5.39727e-08
7.61143e-08
5.18077e-08
4.99399e-08
3.84228e-08
5.92776e-08
3.46143e-08
3.64451e-08
1.83283e-08
4.25938e-08
1.90335e-08
1.38603e-08
7.03493e-09
2.42455e-08
6.62817e-09
5.25393e-09
2.93542e-09
5.62333e-09
2.42987e-09
1.08096e-09
4.7457e-10
4.40713e-11
7.82014e-11
4.22647e-11
6.31401e-10
1.98671e-09
2.12158e-09
6.08159e-09
3.90684e-11
2.43235e-08
1.87547e-08
4.25369e-09
1.20092e-08
1.64433e-07
9.77432e-08
7.3511e-08
4.47137e-08
2.22875e-08
3.09753e-08
9.60899e-09
1.77924e-09
1.23484e-10
1.54706e-10
4.11266e-11
3.39681e-10
2.57006e-09
2.14284e-09
1.47825e-08
1.24548e-07
1.38432e-07
2.26109e-07
2.1686e-07
2.23741e-07
2.30942e-07
1.95843e-07
1.22116e-07
1.33046e-07
7.43169e-08
1.05915e-07
2.71467e-08
2.48425e-08
5.89986e-08
1.23632e-08
1.80533e-08
3.86571e-09
2.44757e-08
2.7234e-09
2.10866e-08
1.69734e-09
7.09967e-09
3.43134e-10
9.63854e-09
4.22524e-10
2.85244e-09
1.09773e-11
3.93728e-09
1.39331e-10
1.4034e-09
3.1012e-10
3.32899e-09
7.30932e-11
2.3271e-09
6.45042e-10
4.32112e-09
2.11033e-09
3.85998e-09
5.64048e-10
3.08681e-09
2.0343e-09
1.58914e-09
2.04342e-11
7.88157e-10
2.85051e-10
4.82805e-11
3.80029e-13
6.61955e-11
4.6873e-10
1.77777e-09
2.17678e-09
3.04534e-09
3.80076e-09
1.03189e-08
5.77875e-08
2.02567e-08
4.27331e-08
1.57731e-07
1.2249e-07
7.02448e-08
3.94322e-08
2.74585e-08
2.86012e-08
1.16322e-08
4.83076e-09
3.98386e-09
2.04415e-09
9.91637e-10
3.83561e-10
8.20918e-12
3.95727e-11
6.47483e-08
9.80874e-08
9.01752e-08
2.04174e-07
2.19127e-07
2.64874e-07
2.44243e-07
1.95019e-07
1.29629e-07
2.39091e-07
1.69575e-07
1.16284e-07
3.4389e-08
9.93727e-08
1.56521e-07
8.08644e-08
3.46999e-08
7.43131e-08
1.20591e-07
7.34591e-08
5.42741e-08
6.4966e-08
9.40043e-08
6.04207e-08
5.39642e-08
4.92634e-08
7.31888e-08
4.79195e-08
4.43081e-08
3.41015e-08
5.65003e-08
3.15203e-08
3.20711e-08
1.53615e-08
4.04393e-08
1.65334e-08
1.09737e-08
7.06368e-09
2.23499e-08
7.02222e-09
4.2729e-09
3.0327e-09
5.32098e-09
2.84024e-09
1.32951e-09
6.94196e-10
1.73431e-10
2.12438e-10
1.34714e-12
2.83124e-10
1.11975e-09
1.32744e-09
4.6104e-09
2.12445e-11
1.9615e-08
1.53394e-08
9.835e-10
3.57188e-08
1.29434e-07
6.52843e-08
6.34635e-08
4.81454e-08
3.55194e-08
3.95893e-08
1.68363e-08
7.53579e-09
2.74539e-09
3.25106e-09
1.44014e-09
9.07971e-10
3.13889e-11
1.52426e-11
1.76185e-09
5.03466e-08
6.24826e-08
1.32593e-07
1.53911e-07
1.83581e-07
2.16707e-07
1.79149e-07
1.18966e-07
1.51354e-07
1.22296e-07
1.26316e-07
3.27703e-08
5.60637e-08
7.83044e-08
3.4811e-08
2.23362e-08
1.61741e-08
4.75434e-08
1.32843e-08
2.68099e-08
9.06265e-09
2.04481e-08
5.37697e-09
2.16621e-08
4.88416e-09
1.10288e-08
2.19147e-09
1.35623e-08
3.26498e-09
7.07599e-09
8.40942e-10
1.15494e-08
2.71094e-09
8.10646e-09
3.59194e-10
9.48161e-09
7.04625e-09
7.75284e-09
3.48605e-10
5.91413e-09
4.5178e-09
4.13691e-09
2.03795e-09
2.58771e-09
1.54366e-09
1.08505e-09
7.68232e-10
3.15591e-10
1.04965e-11
1.39495e-10
2.28219e-10
6.05316e-10
9.68364e-10
5.02503e-09
4.26783e-08
1.03378e-08
3.96652e-08
1.2192e-07
8.43599e-08
4.94333e-08
3.1368e-08
2.75399e-08
3.07739e-08
1.19759e-08
7.44792e-09
6.75938e-09
5.71308e-09
1.88876e-09
1.59296e-09
1.18084e-09
1.13258e-09
3.36651e-08
3.54509e-08
3.73859e-08
1.02614e-07
1.35216e-07
1.81486e-07
1.72216e-07
1.69158e-07
1.12201e-07
2.06203e-07
1.71547e-07
1.17016e-07
3.46517e-08
1.16607e-07
1.58625e-07
9.53546e-08
3.22766e-08
7.64995e-08
1.19695e-07
7.2238e-08
5.09529e-08
6.70265e-08
9.96483e-08
6.00031e-08
4.98331e-08
4.98833e-08
7.61917e-08
4.73169e-08
4.01529e-08
3.40596e-08
5.82512e-08
3.08118e-08
2.87088e-08
1.54307e-08
4.17126e-08
1.61662e-08
1.04228e-08
7.7426e-09
2.29468e-08
8.83842e-09
5.29277e-09
3.90931e-09
6.08943e-09
4.09174e-09
2.09693e-09
1.27631e-09
6.61854e-10
6.93734e-10
1.86937e-10
1.87954e-11
2.30711e-10
3.60997e-10
2.2492e-09
2.17587e-10
1.21891e-08
1.02465e-08
4.70154e-11
1.34073e-08
7.19841e-08
2.79064e-08
4.12177e-08
3.9439e-08
3.8539e-08
3.74213e-08
1.88175e-08
1.26368e-08
6.46134e-09
4.69864e-09
2.91908e-09
3.57489e-09
1.82248e-09
1.24439e-09
6.09943e-11
2.01774e-08
2.6737e-08
6.83014e-08
9.39872e-08
1.31113e-07
1.60661e-07
1.4916e-07
9.77821e-08
1.49828e-07
1.48304e-07
1.26374e-07
2.85675e-08
8.10043e-08
9.93831e-08
6.39487e-08
2.5023e-08
3.63193e-08
6.61153e-08
3.35955e-08
3.28609e-08
2.21255e-08
4.18067e-08
1.73219e-08
2.90088e-08
1.38809e-08
2.48353e-08
9.63288e-09
2.30127e-08
1.01517e-08
1.68045e-08
5.67938e-09
1.79541e-08
8.61555e-09
1.62656e-08
3.78988e-09
1.3361e-08
1.14106e-08
1.21479e-08
3.37696e-09
8.96865e-09
7.06647e-09
7.42486e-09
6.28628e-09
4.87257e-09
3.27268e-09
3.07505e-09
2.63433e-09
1.52411e-09
5.59911e-10
2.16271e-10
1.58698e-10
8.24971e-12
2.88999e-11
1.79118e-09
3.04539e-08
1.51968e-08
1.53932e-12
8.43291e-08
4.37903e-08
2.72709e-08
2.08724e-08
2.2502e-08
2.71956e-08
1.07215e-08
9.5157e-09
2.61798e-08
1.14305e-09
4.12277e-09
2.63942e-09
2.18051e-09
2.52204e-09
8.46282e-09
2.28503e-10
1.41243e-10
1.00408e-09
2.33777e-09
3.43515e-09
1.59332e-09
4.754e-09
6.51931e-09
6.63921e-09
4.41266e-09
7.41099e-09
4.34033e-09
7.73807e-09
8.38988e-09
7.27821e-09
5.7714e-09
8.18512e-09
8.51547e-09
7.96079e-09
7.75371e-09
8.21804e-09
8.28393e-09
8.05672e-09
7.82839e-09
7.94422e-09
8.0159e-09
7.9265e-09
7.56912e-09
7.55951e-09
7.6993e-09
7.67869e-09
7.30843e-09
7.1477e-09
7.32003e-09
7.39017e-09
6.934e-09
6.82252e-09
7.01217e-09
7.09874e-09
6.75592e-09
6.48478e-09
6.79202e-09
6.83241e-09
6.44239e-09
6.4017e-09
6.41286e-09
6.69331e-09
6.54858e-09
5.61819e-09
6.71193e-09
6.56835e-09
4.5979e-09
6.36896e-09
5.41511e-09
7.67051e-09
9.37867e-09
9.91922e-09
3.50519e-09
5.61766e-09
3.36854e-09
1.2745e-09
2.25151e-09
3.08153e-09
1.80257e-09
2.43463e-09
4.75379e-09
5.98455e-09
2.32756e-09
2.03303e-09
2.23614e-09
2.76566e-09
1.97077e-08
1.1737e-08
1.32055e-08
4.02436e-08
6.94525e-08
1.01927e-07
9.43237e-08
1.14488e-07
8.16095e-08
1.4649e-07
1.40824e-07
1.15423e-07
2.90728e-08
9.27757e-08
1.42575e-07
1.44669e-07
2.3061e-08
8.563e-08
1.13679e-07
1.09409e-07
2.88525e-08
6.63498e-08
9.80071e-08
7.95123e-08
3.39185e-08
4.81712e-08
7.82557e-08
5.98123e-08
3.47691e-08
3.12846e-08
5.98727e-08
4.05764e-08
2.73631e-08
1.89493e-08
4.06627e-08
2.42247e-08
1.21809e-08
1.0744e-08
2.47211e-08
1.29089e-08
7.93733e-09
6.22386e-09
8.30114e-09
7.27359e-09
4.24248e-09
2.96677e-09
2.56504e-09
2.50219e-09
1.33655e-09
3.77151e-10
1.72384e-10
6.62114e-11
4.40594e-10
1.38796e-09
4.845e-09
3.8381e-09
1.3963e-09
6.39288e-10
2.41159e-08
3.22826e-09
1.53726e-08
1.91764e-08
2.35987e-08
2.171e-08
1.39514e-08
1.06118e-08
5.82157e-09
6.68112e-09
2.51999e-09
3.99656e-09
3.31386e-09
2.78655e-09
2.09053e-09
6.21885e-09
8.32051e-09
2.39087e-08
4.34835e-08
6.63523e-08
7.85529e-08
8.60966e-08
6.47702e-08
1.00114e-07
1.17434e-07
1.03392e-07
3.4454e-08
9.14655e-08
9.26237e-08
8.09658e-08
2.7638e-08
7.41431e-08
6.8195e-08
4.63614e-08
3.24406e-08
4.51517e-08
4.97924e-08
2.67877e-08
3.0633e-08
2.70352e-08
3.57422e-08
1.62968e-08
2.4736e-08
1.8696e-08
2.59402e-08
1.0557e-08
1.96218e-08
1.42285e-08
1.98813e-08
7.68186e-09
1.58072e-08
1.36224e-08
1.49454e-08
6.78108e-09
1.14459e-08
9.35348e-09
1.02781e-08
9.39518e-09
7.31642e-09
5.34526e-09
5.64214e-09
5.30258e-09
3.54329e-09
2.06649e-09
1.72296e-09
1.7187e-09
1.00828e-09
4.85823e-10
5.54222e-11
1.5567e-08
1.13884e-09
1.66312e-09
2.87505e-08
1.00488e-08
6.45458e-09
5.65092e-09
8.86963e-09
1.21911e-08
5.93865e-09
5.15416e-09
6.40766e-09
5.1216e-09
1.75748e-09
2.19517e-09
3.04113e-09
3.42647e-09
1.31074e-08
3.64498e-09
4.30772e-09
1.3225e-08
2.83687e-08
5.40869e-08
4.56888e-08
6.85113e-08
5.24076e-08
9.6908e-08
9.69865e-08
8.49768e-08
3.53078e-08
8.47052e-08
1.18487e-07
9.75891e-08
2.5679e-08
8.77956e-08
1.08866e-07
1.00145e-07
2.76197e-08
6.9204e-08
9.88346e-08
8.0243e-08
3.30767e-08
5.2432e-08
8.18684e-08
6.25342e-08
3.14193e-08
3.48557e-08
6.42725e-08
4.33376e-08
2.57488e-08
2.15914e-08
4.42273e-08
2.64123e-08
1.30307e-08
1.13016e-08
2.65749e-08
1.57433e-08
8.87285e-09
7.07929e-09
1.00257e-08
8.85345e-09
5.2813e-09
3.78592e-09
3.87674e-09
3.63178e-09
2.15367e-09
9.58571e-10
7.74285e-10
4.45713e-10
5.159e-11
1.21214e-09
1.63517e-09
9.93572e-10
2.89792e-09
7.51411e-11
3.95128e-09
5.3128e-10
3.98648e-09
8.16889e-09
1.14823e-08
9.32049e-09
7.32668e-09
7.64019e-09
4.79175e-09
4.79188e-09
2.04257e-09
3.68561e-09
2.96338e-09
1.64157e-09
3.91505e-09
2.17419e-09
2.83956e-09
8.34654e-09
1.84913e-08
3.74678e-08
3.94973e-08
5.13379e-08
3.95455e-08
7.02007e-08
8.63999e-08
7.62616e-08
2.9952e-08
8.02756e-08
8.62605e-08
8.36749e-08
2.60799e-08
7.2606e-08
7.54333e-08
6.92273e-08
3.07487e-08
5.3267e-08
6.15673e-08
4.62233e-08
3.4347e-08
3.84273e-08
4.76297e-08
3.09541e-08
3.01103e-08
2.76206e-08
3.61475e-08
2.16655e-08
2.49154e-08
2.11339e-08
2.70262e-08
1.60791e-08
1.87174e-08
1.67624e-08
2.07814e-08
1.27815e-08
1.42252e-08
1.17593e-08
1.51914e-08
1.36881e-08
9.96897e-09
7.44149e-09
9.10468e-09
8.88915e-09
5.88755e-09
3.85955e-09
4.36946e-09
4.56329e-09
2.96733e-09
1.77571e-09
4.75116e-10
6.94265e-09
6.55506e-11
2.14234e-12
8.03235e-09
3.29814e-10
3.13398e-10
5.51747e-10
1.57896e-09
3.14221e-09
1.47256e-09
2.27426e-09
3.20023e-09
2.46976e-09
7.8464e-10
8.94103e-10
1.27294e-09
1.8537e-09
1.02439e-08
1.09875e-09
1.36825e-09
4.47474e-09
9.95727e-09
2.57592e-08
2.30365e-08
3.83643e-08
3.10824e-08
5.59978e-08
6.23927e-08
6.17272e-08
2.45318e-08
8.58851e-08
8.66774e-08
7.99678e-08
2.46185e-08
8.21908e-08
9.65565e-08
7.52795e-08
2.70387e-08
6.83844e-08
9.81627e-08
7.14339e-08
3.49839e-08
5.67635e-08
8.7777e-08
6.29451e-08
3.37124e-08
4.07507e-08
7.26639e-08
4.54225e-08
2.76162e-08
2.63482e-08
5.20385e-08
2.91496e-08
1.50074e-08
1.33899e-08
3.19984e-08
2.10405e-08
1.1024e-08
8.93841e-09
1.32762e-08
1.18096e-08
7.2236e-09
5.29176e-09
6.11054e-09
5.62216e-09
3.55757e-09
2.01838e-09
2.05658e-09
1.35702e-09
6.42418e-11
1.71718e-09
1.50732e-10
3.76818e-12
5.53769e-09
8.82074e-10
2.37088e-13
6.32137e-09
2.63322e-10
2.01884e-09
3.1473e-09
1.74611e-09
2.39353e-09
3.12942e-09
1.78375e-09
1.48106e-09
8.45638e-10
1.79888e-09
1.69583e-09
5.77038e-10
5.19284e-09
7.1694e-10
9.02894e-10
2.89221e-09
6.40834e-09
1.8358e-08
1.96131e-08
2.88184e-08
2.2568e-08
4.24758e-08
5.69611e-08
5.29091e-08
1.45972e-08
7.10503e-08
6.68895e-08
7.29982e-08
1.65016e-08
6.42859e-08
7.27969e-08
6.66651e-08
2.55093e-08
5.39411e-08
6.97336e-08
5.83035e-08
3.41475e-08
4.46102e-08
5.98696e-08
4.77403e-08
3.31221e-08
3.49554e-08
4.86746e-08
3.41608e-08
2.8915e-08
2.78503e-08
3.70255e-08
2.41968e-08
2.06691e-08
1.92506e-08
2.83519e-08
2.09765e-08
1.64934e-08
1.37869e-08
2.03395e-08
1.86612e-08
1.23166e-08
9.26104e-09
1.30266e-08
1.29455e-08
8.08012e-09
5.62873e-09
7.72701e-09
8.18609e-09
5.21569e-09
3.29983e-09
1.94867e-09
2.25604e-09
1.33925e-10
5.85698e-10
9.59585e-10
1.82915e-09
6.72542e-10
3.75789e-10
1.09401e-10
3.99195e-12
1.56799e-11
3.33754e-10
5.13086e-10
2.91079e-10
5.24416e-11
4.56282e-11
3.84699e-11
9.04665e-11
7.42259e-09
3.24445e-12
5.77849e-12
1.73911e-11
6.21182e-11
1.30496e-10
5.98984e-11
2.74507e-10
4.00847e-10
6.17675e-10
2.50554e-10
8.36096e-10
1.51164e-11
1.13576e-09
1.24321e-09
7.31224e-10
3.45968e-10
1.49498e-09
1.66902e-09
1.12759e-09
1.77971e-09
1.71892e-09
1.96016e-09
1.46357e-09
2.14936e-09
1.90757e-09
2.1427e-09
1.73238e-09
2.25383e-09
2.02575e-09
2.25146e-09
1.93635e-09
2.36023e-09
2.09214e-09
2.34245e-09
2.06818e-09
2.34922e-09
2.31325e-09
2.41938e-09
2.15829e-09
2.42256e-09
2.34251e-09
2.52199e-09
2.30088e-09
2.48838e-09
2.45476e-09
2.64467e-09
2.45228e-09
2.69214e-09
2.3462e-09
3.03702e-09
2.5473e-09
1.73175e-09
2.32472e-09
3.45441e-09
4.04268e-09
6.00046e-09
6.76513e-09
3.03816e-09
3.43567e-09
2.07177e-09
9.69868e-10
1.39495e-09
1.96017e-09
8.57122e-10
1.31952e-09
1.98432e-09
1.95694e-09
1.00693e-09
7.97853e-10
8.81797e-10
1.39078e-09
8.80257e-09
2.88621e-10
3.85589e-10
1.24187e-09
3.00665e-09
8.62807e-09
8.76079e-09
1.6645e-08
1.34991e-08
3.07411e-08
3.06996e-08
3.5385e-08
1.84771e-08
4.12379e-08
5.24333e-08
5.34926e-08
1.91831e-08
6.07616e-08
6.55736e-08
7.08984e-08
1.97205e-08
5.95699e-08
7.65216e-08
7.35904e-08
2.11666e-08
5.03221e-08
7.52558e-08
6.80369e-08
2.15872e-08
3.94838e-08
6.57433e-08
5.50197e-08
2.19451e-08
2.63532e-08
4.97249e-08
3.86391e-08
1.55897e-08
1.4418e-08
3.27034e-08
2.57661e-08
1.22257e-08
1.011e-08
1.63808e-08
1.50484e-08
8.76102e-09
6.50732e-09
9.02469e-09
7.9764e-09
5.00084e-09
3.1758e-09
4.08896e-09
2.76419e-09
5.21623e-10
2.62353e-09
4.26747e-10
1.00652e-09
9.1847e-09
2.16001e-09
2.10278e-09
1.43218e-08
4.12866e-10
1.24797e-12
1.41278e-11
1.61915e-10
3.07174e-11
1.25125e-10
6.59872e-12
1.70455e-11
1.3522e-12
3.58859e-11
2.47461e-11
1.27475e-10
6.26208e-09
1.54015e-10
1.8264e-10
7.16346e-10
1.71503e-09
5.38561e-09
6.46854e-09
1.13244e-08
9.03654e-09
2.17446e-08
2.55829e-08
2.66905e-08
1.44053e-08
3.24156e-08
3.81403e-08
4.55814e-08
1.7566e-08
4.90333e-08
4.74656e-08
5.64931e-08
1.95123e-08
4.80922e-08
5.36161e-08
5.61524e-08
2.24486e-08
4.20225e-08
5.16585e-08
4.96074e-08
2.37777e-08
3.57097e-08
4.50774e-08
4.15446e-08
2.42718e-08
2.63132e-08
3.65013e-08
3.18508e-08
1.99521e-08
1.88377e-08
2.93552e-08
2.57005e-08
1.68281e-08
1.4297e-08
2.20078e-08
2.11839e-08
1.34578e-08
1.03613e-08
1.53832e-08
1.58726e-08
9.75318e-09
7.27533e-09
1.06001e-08
1.16835e-08
7.6924e-09
4.53133e-09
3.67465e-09
1.11954e-10
8.06912e-10
1.80921e-09
2.40001e-10
6.67299e-09
3.47128e-09
2.96557e-09
3.10148e-09
2.32161e-09
8.57417e-10
2.90847e-10
4.44979e-10
6.85533e-10
4.07705e-10
7.53704e-10
9.50935e-10
7.60398e-10
7.93992e-09
5.27099e-11
8.2039e-11
2.82399e-10
8.13992e-10
2.80167e-09
2.99534e-09
5.59417e-09
4.75275e-09
1.4207e-08
1.40649e-08
1.98068e-08
8.64446e-09
3.01445e-08
2.96069e-08
3.12444e-08
1.25307e-08
3.98852e-08
4.20391e-08
3.96644e-08
1.71394e-08
4.30314e-08
5.59443e-08
4.38092e-08
2.03214e-08
4.10165e-08
6.37882e-08
4.58628e-08
2.08221e-08
3.55356e-08
6.32152e-08
4.11586e-08
2.00402e-08
2.47194e-08
5.25544e-08
3.50177e-08
1.56123e-08
1.44889e-08
3.74151e-08
2.88781e-08
1.28836e-08
1.08052e-08
1.78475e-08
1.62456e-08
9.78131e-09
7.47334e-09
1.05495e-08
9.23511e-09
6.04595e-09
4.14519e-09
5.44346e-09
3.62508e-09
9.82038e-10
2.84229e-09
1.82027e-09
3.39016e-09
1.22801e-08
3.01477e-09
5.29856e-09
2.41749e-08
1.5294e-09
5.47708e-10
1.58019e-09
2.71044e-09
7.1597e-10
5.76247e-10
1.08146e-09
1.68479e-09
5.86756e-10
6.4887e-10
9.83742e-10
1.96516e-09
6.74669e-09
3.20749e-11
3.31541e-11
1.84128e-10
5.27213e-10
1.91014e-09
2.27182e-09
4.0306e-09
3.3042e-09
1.08136e-08
1.2517e-08
1.54638e-08
3.77358e-09
2.28753e-08
2.28014e-08
2.82716e-08
6.73852e-09
3.08798e-08
3.22423e-08
3.5905e-08
1.30243e-08
3.43144e-08
4.25954e-08
3.98164e-08
1.74648e-08
3.40568e-08
4.84341e-08
4.15099e-08
1.94046e-08
3.21223e-08
4.85113e-08
3.82077e-08
2.00157e-08
2.47841e-08
4.26284e-08
3.44851e-08
1.7703e-08
1.76256e-08
3.54904e-08
3.24604e-08
1.58969e-08
1.39491e-08
2.50035e-08
2.41177e-08
1.35584e-08
1.0669e-08
1.86728e-08
1.91207e-08
1.0573e-08
8.24856e-09
1.43813e-08
1.56809e-08
9.46103e-09
5.11799e-09
5.51107e-09
3.94434e-10
1.75013e-09
3.14417e-09
2.58469e-09
1.08002e-08
5.2877e-09
5.48492e-09
8.12047e-09
7.15297e-09
2.57271e-09
1.95392e-09
4.00923e-09
4.36647e-09
2.18507e-09
3.53971e-09
5.36212e-09
4.49564e-09
7.32355e-09
2.06758e-13
1.74254e-12
9.39089e-13
3.77014e-12
1.00222e-11
8.38492e-12
2.4345e-11
2.9044e-11
7.11256e-11
2.98731e-11
1.1667e-10
1.55032e-10
2.2805e-10
2.34373e-10
1.20725e-10
9.16261e-12
3.70814e-10
3.83951e-10
2.05689e-10
3.7598e-10
4.58679e-10
5.13434e-10
3.01859e-10
6.60269e-10
5.56497e-10
6.26167e-10
4.03313e-10
8.65954e-10
6.49117e-10
7.34594e-10
5.01305e-10
9.81863e-10
7.94704e-10
8.52206e-10
6.02002e-10
1.07574e-09
1.01064e-09
9.82307e-10
7.14164e-10
1.17617e-09
1.09922e-09
1.12939e-09
8.80942e-10
1.29248e-09
1.21539e-09
1.34035e-09
1.03792e-09
1.44839e-09
1.22593e-09
1.68305e-09
1.10307e-09
8.07329e-10
1.2662e-09
2.62899e-09
2.38551e-09
4.80685e-09
3.398e-09
1.46146e-09
1.74406e-09
1.17768e-09
7.20091e-10
1.00901e-09
1.07412e-09
8.95515e-10
1.44909e-09
1.14896e-09
1.05296e-09
7.90674e-10
6.47244e-10
4.35464e-10
6.63995e-10
7.56161e-09
6.38954e-12
1.43741e-11
4.70879e-11
1.67475e-10
7.53624e-10
8.57471e-10
1.70142e-09
1.52273e-09
5.37371e-09
5.37277e-09
8.20795e-09
5.02904e-09
1.3923e-08
1.45981e-08
1.50671e-08
8.50523e-09
2.20766e-08
2.20972e-08
2.3036e-08
1.08898e-08
2.7014e-08
3.16899e-08
3.04576e-08
1.26545e-08
2.80227e-08
3.87339e-08
3.52249e-08
1.361e-08
2.59144e-08
4.16754e-08
3.41784e-08
1.30313e-08
1.84953e-08
3.75845e-08
3.04888e-08
1.23785e-08
1.20567e-08
2.9502e-08
2.64576e-08
1.10317e-08
9.53253e-09
1.68425e-08
1.58114e-08
9.08148e-09
7.08028e-09
1.21093e-08
1.00575e-08
6.0917e-09
4.36973e-09
7.10196e-09
4.44255e-09
1.329e-09
3.2488e-09
4.91155e-09
7.12028e-09
1.60009e-08
3.89287e-09
8.62893e-09
2.98789e-08
2.26412e-09
1.5634e-09
7.75536e-09
6.5706e-09
2.56985e-09
3.44215e-09
4.79972e-09
5.71185e-09
1.83025e-09
3.38232e-09
4.73171e-09
5.6131e-09
7.10454e-09
2.23651e-12
9.73228e-13
2.47627e-11
9.74526e-11
4.57507e-10
5.35882e-10
1.10333e-09
9.6252e-10
3.67786e-09
4.30575e-09
5.95059e-09
2.68214e-09
1.00306e-08
1.08881e-08
1.26675e-08
5.48376e-09
1.61414e-08
1.63698e-08
1.99308e-08
8.94507e-09
2.0463e-08
2.34418e-08
2.6374e-08
1.09811e-08
2.21656e-08
2.89258e-08
3.06853e-08
1.25914e-08
2.22204e-08
3.1869e-08
3.08441e-08
1.29532e-08
1.73105e-08
3.07576e-08
2.965e-08
1.31533e-08
1.34237e-08
2.8291e-08
2.90117e-08
1.26706e-08
1.14681e-08
2.11496e-08
2.20309e-08
1.16643e-08
9.55096e-09
1.78644e-08
1.90087e-08
9.9256e-09
8.27721e-09
1.537e-08
1.74827e-08
1.032e-08
4.62197e-09
6.15058e-09
1.97354e-09
1.98851e-09
3.97701e-09
5.41341e-09
1.43584e-08
5.57598e-09
6.50857e-09
1.27572e-08
1.08626e-08
4.07992e-09
3.63642e-09
8.95991e-09
9.23115e-09
4.31284e-09
6.32996e-09
1.1011e-08
9.33374e-09
7.31729e-09
5.36307e-14
1.20196e-12
1.65236e-13
6.51749e-13
2.5378e-12
4.05726e-12
6.59335e-12
7.20062e-12
2.29498e-11
1.15306e-11
3.55555e-11
4.0739e-12
9.14795e-11
8.85682e-11
4.5192e-11
5.23843e-12
1.82061e-10
1.67804e-10
8.20267e-11
1.54072e-10
2.47548e-10
2.48288e-10
1.24395e-10
2.97747e-10
3.08478e-10
3.29578e-10
1.73189e-10
3.86282e-10
3.52771e-10
4.1251e-10
2.28658e-10
4.82183e-10
4.45516e-10
5.14812e-10
2.82725e-10
5.64159e-10
5.72506e-10
6.42559e-10
3.5508e-10
6.53389e-10
6.54563e-10
7.75955e-10
4.77589e-10
7.64326e-10
7.7056e-10
9.92769e-10
5.97324e-10
8.92962e-10
8.19578e-10
1.28664e-09
6.30674e-10
4.49192e-10
1.02972e-09
2.51291e-09
1.71681e-09
4.17687e-09
2.1048e-09
8.84047e-10
1.03431e-09
6.69523e-10
5.001e-10
8.75456e-10
6.49759e-10
8.96213e-10
1.48604e-09
8.60206e-10
5.80194e-10
7.52693e-10
5.72988e-10
3.29295e-10
3.12799e-10
7.36704e-09
2.13718e-15
8.8908e-13
2.17484e-12
1.93635e-11
1.43445e-10
1.85312e-10
4.03564e-10
3.81748e-10
1.62494e-09
1.68438e-09
2.54291e-09
1.6144e-09
5.3283e-09
6.81516e-09
6.1646e-09
3.38025e-09
1.00921e-08
1.06876e-08
1.11404e-08
5.54055e-09
1.40263e-08
1.57944e-08
1.61464e-08
7.45061e-09
1.61298e-08
2.00283e-08
2.04416e-08
8.00311e-09
1.46002e-08
2.26799e-08
2.28073e-08
8.35361e-09
1.15544e-08
2.18403e-08
2.13208e-08
8.49604e-09
8.75462e-09
2.02883e-08
1.83287e-08
8.02524e-09
7.27665e-09
1.38009e-08
1.22853e-08
7.08779e-09
5.72873e-09
1.16814e-08
9.02042e-09
5.12243e-09
3.7927e-09
7.64656e-09
4.29215e-09
1.30209e-09
3.1045e-09
1.29198e-08
1.05105e-08
1.7268e-08
4.2292e-09
1.0574e-08
3.07218e-08
2.16576e-09
2.16768e-09
1.42631e-08
8.99788e-09
3.49908e-09
6.64457e-09
9.13942e-09
9.377e-09
2.32553e-09
6.50112e-09
9.12597e-09