/*--------------------------------*- C++ -*----------------------------------*\
| =========                 |                                                 |
| \\      /  F ield         | OpenFOAM: The Open Source CFD Toolbox           |
|  \\    /   O peration     | Version:  v2012                                 |
|   \\  /    A nd           | Website:  www.openfoam.com                      |
|    \\/     M anipulation  |                                                 |
\*---------------------------------------------------------------------------*/
FoamFile
{
    version     2.0;
    format      ascii;
    class       volScalarField;
    location    "1e-06";
    object      nut;
}
// * * * * * * * * * * * * * * * * * * * * * * * * * * * * * * * * * * * * * //

dimensions      [0 2 -1 0 0 0 0];


internalField   nonuniform List<scalar> 
10262
(
1.5329e-05
1.37174e-05
1.31542e-05
1.17881e-05
1.06386e-05
9.92273e-06
9.7175e-06
9.71732e-06
9.68771e-06
9.25997e-06
9.03045e-06
9.14571e-06
9.10601e-06
8.86814e-06
8.53101e-06
8.73653e-06
8.81778e-06
8.58785e-06
8.26726e-06
8.41717e-06
8.59972e-06
8.35765e-06
8.04525e-06
8.14546e-06
8.33659e-06
8.15183e-06
7.84603e-06
7.90257e-06
8.08888e-06
7.95513e-06
7.64304e-06
7.65938e-06
7.83489e-06
7.73418e-06
7.41348e-06
7.39769e-06
7.56282e-06
7.47308e-06
7.14167e-06
7.09774e-06
7.23121e-06
7.14548e-06
6.77644e-06
6.70648e-06
6.79855e-06
6.66659e-06
6.26245e-06
6.1743e-06
6.19343e-06
5.97766e-06
5.47213e-06
5.3523e-06
5.26425e-06
4.77466e-06
4.09677e-06
3.9318e-06
3.54741e-06
3.46465e-06
3.25934e-06
3.31161e-06
3.88014e-06
4.41274e-06
4.65312e-06
4.77923e-06
5.24358e-06
5.2963e-06
5.24385e-06
5.33596e-06
5.70206e-06
5.76549e-06
5.76148e-06
5.90911e-06
1.54951e-05
1.47033e-05
1.4481e-05
1.31839e-05
1.20483e-05
1.17573e-05
1.17719e-05
1.13958e-05
1.1105e-05
1.1094e-05
1.11737e-05
1.09009e-05
1.04854e-05
1.06526e-05
1.06897e-05
1.05345e-05
1.01738e-05
1.03136e-05
1.0359e-05
1.02425e-05
1.00034e-05
1.0025e-05
1.00755e-05
9.9916e-06
9.77694e-06
9.76451e-06
9.8207e-06
9.76395e-06
9.55422e-06
9.51799e-06
9.56496e-06
9.52869e-06
9.31634e-06
9.25108e-06
9.28743e-06
9.26681e-06
9.0499e-06
8.94842e-06
8.96928e-06
8.95745e-06
8.71519e-06
8.57865e-06
8.56058e-06
8.54895e-06
8.26001e-06
8.06819e-06
7.98308e-06
7.96422e-06
7.63562e-06
7.31485e-06
7.15029e-06
7.10543e-06
6.60677e-06
6.09414e-06
5.57415e-06
5.48368e-06
4.88276e-06
4.61706e-06
4.46536e-06
4.53438e-06
4.96652e-06
5.43062e-06
6.03715e-06
6.12321e-06
6.34816e-06
6.42508e-06
6.74702e-06
6.76986e-06
6.87305e-06
6.92339e-06
7.23883e-06
7.26889e-06
1.81027e-05
1.7463e-05
1.73324e-05
1.66089e-05
1.59258e-05
1.57536e-05
1.57622e-05
1.55005e-05
1.52453e-05
1.52882e-05
1.53529e-05
1.51283e-05
1.4463e-05
1.49056e-05
1.49342e-05
1.47932e-05
1.42422e-05
1.45756e-05
1.46081e-05
1.45002e-05
1.42138e-05
1.42775e-05
1.43131e-05
1.42338e-05
1.39962e-05
1.39975e-05
1.40381e-05
1.39827e-05
1.37584e-05
1.37233e-05
1.37577e-05
1.37204e-05
1.34968e-05
1.34242e-05
1.3452e-05
1.3428e-05
1.31955e-05
1.3085e-05
1.3094e-05
1.30773e-05
1.28253e-05
1.2659e-05
1.26459e-05
1.26245e-05
1.23101e-05
1.21032e-05
1.19944e-05
1.19685e-05
1.16279e-05
1.12276e-05
1.10965e-05
1.10379e-05
1.04202e-05
9.96549e-06
9.23346e-06
9.13188e-06
8.7406e-06
4.69341e-06
8.22073e-06
8.28035e-06
8.5952e-06
8.82195e-06
9.37439e-06
9.4665e-06
9.63231e-06
9.72637e-06
1.02105e-05
6.82057e-06
1.03213e-05
1.02634e-05
1.05436e-05
1.05937e-05
1.80312e-05
1.74456e-05
1.73296e-05
1.66717e-05
1.6031e-05
1.58384e-05
1.58667e-05
1.56016e-05
1.54343e-05
1.53932e-05
1.54672e-05
1.52376e-05
1.53395e-05
1.50242e-05
1.50462e-05
1.49096e-05
1.48971e-05
1.46954e-05
1.47213e-05
1.46167e-05
1.44609e-05
1.43982e-05
1.44264e-05
1.43495e-05
1.41746e-05
1.4121e-05
1.41508e-05
1.40972e-05
1.39137e-05
1.38511e-05
1.38697e-05
1.38341e-05
1.36411e-05
1.3559e-05
1.35628e-05
1.35405e-05
1.33344e-05
1.32283e-05
1.32035e-05
1.31899e-05
1.2959e-05
1.28159e-05
1.27512e-05
1.27351e-05
1.24453e-05
1.22629e-05
1.20994e-05
1.20741e-05
1.17597e-05
1.13936e-05
1.11995e-05
1.11392e-05
1.05512e-05
1.01292e-05
9.32924e-06
9.23213e-06
8.89005e-06
9.07741e-06
8.3403e-06
8.38681e-06
8.75532e-06
8.95663e-06
9.45543e-06
9.55742e-06
9.80582e-06
9.84115e-06
1.03138e-05
1.03831e-05
1.05962e-05
1.03712e-05
1.06392e-05
1.06934e-05
1.97264e-05
1.92898e-05
1.85294e-05
1.59978e-05
1.55355e-05
1.54766e-05
1.54965e-05
1.55208e-05
1.5765e-05
1.56322e-05
1.56626e-05
1.5648e-05
1.71383e-05
1.56328e-05
1.56426e-05
1.56021e-05
1.6613e-05
1.55298e-05
1.55253e-05
1.54893e-05
1.56806e-05
1.53931e-05
1.5378e-05
1.53481e-05
1.53898e-05
1.52406e-05
1.52195e-05
1.51968e-05
1.5184e-05
1.50827e-05
1.50444e-05
1.50273e-05
1.49842e-05
1.49043e-05
1.4844e-05
1.48313e-05
1.47689e-05
1.47003e-05
1.46081e-05
1.45977e-05
1.45119e-05
1.44434e-05
1.43125e-05
1.42996e-05
1.41677e-05
1.41006e-05
1.38885e-05
1.38718e-05
1.37442e-05
1.35518e-05
1.33699e-05
1.33247e-05
1.29164e-05
1.25389e-05
1.19644e-05
1.20598e-05
1.285e-05
1.49556e-05
1.42547e-05
1.42894e-05
1.41923e-05
1.21619e-05
1.16142e-05
1.1817e-05
1.15734e-05
1.1289e-05
1.19388e-05
1.21014e-05
1.3157e-05
1.22159e-05
1.19032e-05
1.17549e-05
2.1388e-05
2.25165e-05
2.27346e-05
2.34605e-05
2.38903e-05
2.43478e-05
2.44458e-05
2.4623e-05
2.46945e-05
2.50453e-05
2.514e-05
2.51265e-05
2.44897e-05
2.51996e-05
2.53286e-05
2.52026e-05
2.4575e-05
2.51329e-05
2.52208e-05
2.51178e-05
2.48025e-05
2.49684e-05
2.50356e-05
2.49566e-05
2.46989e-05
2.47531e-05
2.48121e-05
2.47542e-05
2.45093e-05
2.44998e-05
2.45479e-05
2.45069e-05
2.4262e-05
2.41954e-05
2.42373e-05
2.42073e-05
2.39434e-05
2.38317e-05
2.38433e-05
2.38192e-05
2.35449e-05
2.3338e-05
2.33475e-05
2.33141e-05
2.29427e-05
2.27165e-05
2.25677e-05
2.25348e-05
2.21695e-05
2.16205e-05
2.15475e-05
2.14616e-05
2.06112e-05
2.02302e-05
1.90375e-05
1.88932e-05
1.87375e-05
1.52851e-05
2.17922e-05
2.19181e-05
2.13969e-05
2.02462e-05
2.01514e-05
2.01899e-05
1.97342e-05
1.93126e-05
2.02089e-05
2.04249e-05
2.05467e-05
1.99488e-05
2.00479e-05
2.01351e-05
2.13784e-05
2.24951e-05
2.27231e-05
2.35034e-05
2.39965e-05
2.4435e-05
2.45562e-05
2.47429e-05
2.497e-05
2.51758e-05
2.52944e-05
2.52724e-05
2.56811e-05
2.53761e-05
2.54919e-05
2.53786e-05
2.55735e-05
2.53215e-05
2.53962e-05
2.53023e-05
2.52293e-05
2.51652e-05
2.52178e-05
2.51456e-05
2.50102e-05
2.49608e-05
2.49981e-05
2.49458e-05
2.4782e-05
2.47206e-05
2.47363e-05
2.47006e-05
2.45176e-05
2.44342e-05
2.44266e-05
2.44027e-05
2.41927e-05
2.40913e-05
2.40331e-05
2.40189e-05
2.3786e-05
2.36237e-05
2.35344e-05
2.35113e-05
2.31868e-05
2.3019e-05
2.27588e-05
2.27236e-05
2.24199e-05
2.19383e-05
2.17413e-05
2.16527e-05
2.08692e-05
2.05432e-05
1.92245e-05
1.90846e-05
1.90121e-05
1.57605e-05
2.2159e-05
2.22601e-05
2.18701e-05
2.06327e-05
2.03832e-05
2.04368e-05
2.01558e-05
1.95844e-05
2.04025e-05
2.06533e-05
2.11085e-05
2.02073e-05
2.02465e-05
2.03417e-05
2.34127e-05
2.51477e-05
2.54939e-05
2.68718e-05
2.78212e-05
2.86535e-05
2.88159e-05
2.93066e-05
2.97113e-05
3.02526e-05
3.03851e-05
3.05613e-05
3.0478e-05
3.09504e-05
3.11808e-05
3.10767e-05
3.08183e-05
3.11896e-05
3.13393e-05
3.12485e-05
3.10585e-05
3.12115e-05
3.13153e-05
3.12428e-05
3.10538e-05
3.11139e-05
3.11926e-05
3.11377e-05
3.09361e-05
3.09345e-05
3.09904e-05
3.09499e-05
3.07353e-05
3.06766e-05
3.07163e-05
3.06845e-05
3.04393e-05
3.0339e-05
3.03323e-05
3.03041e-05
3.00459e-05
2.98415e-05
2.98222e-05
2.97855e-05
2.94082e-05
2.91957e-05
2.89788e-05
2.89391e-05
2.85769e-05
2.79807e-05
2.78537e-05
2.77505e-05
2.68086e-05
2.64252e-05
2.49288e-05
2.474e-05
2.45208e-05
2.92576e-05
3.03935e-05
3.06669e-05
3.04006e-05
2.8606e-05
2.79931e-05
2.7999e-05
2.71149e-05
2.60435e-05
1.71398e-05
2.73545e-05
2.77433e-05
2.67219e-05
2.66808e-05
2.68025e-05
2.34525e-05
2.51388e-05
2.5494e-05
2.69153e-05
2.79265e-05
2.87259e-05
2.89103e-05
2.94154e-05
3.00115e-05
3.0376e-05
3.05335e-05
3.07017e-05
3.1741e-05
3.11268e-05
3.13441e-05
3.12565e-05
3.19655e-05
3.13893e-05
3.15221e-05
3.14439e-05
3.15767e-05
3.14258e-05
3.151e-05
3.14473e-05
3.14264e-05
3.13456e-05
3.13943e-05
3.13479e-05
3.12595e-05
3.11865e-05
3.11969e-05
3.11648e-05
3.10373e-05
3.09557e-05
3.09253e-05
3.09028e-05
3.0734e-05
3.06484e-05
3.05432e-05
3.05283e-05
3.03315e-05
3.01856e-05
3.00348e-05
3.00071e-05
2.97006e-05
2.95669e-05
2.91971e-05
2.91542e-05
2.88779e-05
2.83738e-05
2.80747e-05
2.79678e-05
2.71226e-05
2.6806e-05
2.51418e-05
2.49565e-05
2.48391e-05
2.97888e-05
3.08008e-05
3.10625e-05
3.10052e-05
2.91612e-05
2.83133e-05
2.83372e-05
2.7698e-05
2.64336e-05
3.5278e-05
2.76761e-05
2.84856e-05
2.70914e-05
2.69447e-05
2.70869e-05
2.79105e-05
2.1096e-05
2.00265e-05
1.77659e-05
1.80243e-05
1.83397e-05
1.84829e-05
1.91405e-05
2.05453e-05
2.03949e-05
2.05067e-05
2.0919e-05
2.56062e-05
2.16075e-05
2.18134e-05
2.18516e-05
2.55231e-05
2.21869e-05
2.22742e-05
2.22968e-05
2.35208e-05
2.24907e-05
2.24995e-05
2.25112e-05
2.31321e-05
2.2645e-05
2.25911e-05
2.25975e-05
2.29891e-05
2.27224e-05
2.25921e-05
2.25948e-05
2.28691e-05
2.27421e-05
2.25134e-05
2.2511e-05
2.27271e-05
2.26965e-05
2.23614e-05
2.23529e-05
2.24972e-05
2.25888e-05
2.20711e-05
2.20524e-05
2.22063e-05
2.22415e-05
2.16528e-05
2.16082e-05
2.15636e-05
2.1744e-05
2.07166e-05
2.06235e-05
2.03736e-05
1.91244e-05
1.85136e-05
1.86082e-05
1.76516e-05
3.67928e-05
2.55513e-05
2.4992e-05
2.62287e-05
2.53291e-05
2.25729e-05
2.31043e-05
2.25635e-05
2.11058e-05
3.57237e-05
2.18734e-05
2.54501e-05
2.42552e-05
2.32041e-05
2.19548e-05
3.79643e-05
3.35695e-05
3.35325e-05
3.11658e-05
3.1432e-05
3.25155e-05
3.76353e-05
3.445e-05
3.62621e-05
3.76629e-05
4.09186e-05
3.9015e-05
4.02652e-05
4.29087e-05
4.35212e-05
4.34787e-05
4.20901e-05
4.42246e-05
4.46464e-05
4.45908e-05
4.42986e-05
4.49663e-05
4.52667e-05
4.52138e-05
4.49801e-05
4.53508e-05
4.55848e-05
4.55408e-05
4.52981e-05
4.54873e-05
4.56821e-05
4.56475e-05
4.53854e-05
4.54305e-05
4.56098e-05
4.55795e-05
4.52684e-05
4.51999e-05
4.53356e-05
4.53053e-05
4.38126e-05
4.47098e-05
4.36037e-05
4.4809e-05
4.34324e-05
4.30333e-05
4.30054e-05
4.29248e-05
4.22997e-05
4.21052e-05
4.1264e-05
4.10183e-05
3.90506e-05
3.56278e-05
3.70586e-05
3.81888e-05
3.56596e-05
3.73948e-05
4.78851e-05
4.86844e-05
5.00239e-05
4.84885e-05
4.52068e-05
4.75509e-05
4.5883e-05
4.32247e-05
4.49995e-05
4.47522e-05
4.55779e-05
4.45278e-05
4.45033e-05
4.47295e-05
3.85837e-05
3.37877e-05
3.36195e-05
3.46145e-05
3.61023e-05
3.74106e-05
3.7685e-05
3.86814e-05
3.97485e-05
4.07682e-05
4.10327e-05
4.17165e-05
4.25437e-05
4.30849e-05
4.3662e-05
4.36672e-05
4.40951e-05
4.4442e-05
4.48323e-05
4.48057e-05
4.49509e-05
4.52161e-05
4.5482e-05
4.54505e-05
4.54688e-05
4.56364e-05
4.58204e-05
4.57941e-05
4.57292e-05
4.58136e-05
4.59328e-05
4.59151e-05
4.57932e-05
4.58079e-05
4.58712e-05
4.58587e-05
4.56725e-05
4.56297e-05
4.56049e-05
4.5594e-05
4.53624e-05
4.51952e-05
4.51284e-05
4.50982e-05
4.4706e-05
4.45158e-05
4.41746e-05
4.41202e-05
4.37335e-05
4.30346e-05
4.2752e-05
4.26074e-05
4.14521e-05
4.09141e-05
3.88014e-05
3.84874e-05
3.77248e-05
2.43875e-05
4.8427e-05
4.9184e-05
5.09082e-05
4.93034e-05
4.83423e-05
4.8407e-05
4.69537e-05
4.44019e-05
4.5523e-05
4.60373e-05
4.69745e-05
4.51773e-05
4.49822e-05
4.52666e-05
5.92284e-05
4.30025e-05
4.19455e-05
3.69937e-05
3.49035e-05
3.47527e-05
4.26583e-05
3.64358e-05
3.85411e-05
4.01187e-05
4.62332e-05
4.20278e-05
4.42999e-05
4.88976e-05
4.59047e-05
4.97313e-05
4.746e-05
5.09126e-05
5.15205e-05
5.14977e-05
4.9075e-05
5.22058e-05
5.2652e-05
5.2621e-05
5.24714e-05
5.29999e-05
5.33481e-05
5.33178e-05
5.31278e-05
5.3429e-05
5.37178e-05
5.36927e-05
5.34621e-05
5.35828e-05
5.38421e-05
5.38174e-05
5.35169e-05
5.34906e-05
5.22865e-05
5.36671e-05
5.10764e-05
5.20888e-05
5.08746e-05
5.32287e-05
5.07335e-05
5.03081e-05
5.0231e-05
5.01195e-05
4.93787e-05
4.92276e-05
4.80573e-05
4.76695e-05
4.49527e-05
4.07693e-05
4.28986e-05
4.57685e-05
4.12835e-05
4.77736e-05
5.6553e-05
5.75577e-05
5.98681e-05
5.88405e-05
5.49781e-05
5.83277e-05
5.69186e-05
5.44315e-05
5.59024e-05
5.57636e-05
5.65891e-05
5.54712e-05
5.55518e-05
5.5879e-05
6.06338e-05
4.34526e-05
4.2159e-05
4.03149e-05
4.12161e-05
4.2443e-05
4.27016e-05
4.35085e-05
4.41754e-05
4.60327e-05
4.52678e-05
4.64633e-05
4.8046e-05
4.9066e-05
4.98526e-05
4.99171e-05
5.06256e-05
5.11374e-05
5.17052e-05
5.17208e-05
5.20636e-05
5.24748e-05
5.28786e-05
5.28748e-05
5.30325e-05
5.33193e-05
5.36041e-05
5.35968e-05
5.36317e-05
5.38047e-05
5.39969e-05
5.39933e-05
5.39428e-05
5.40266e-05
5.41384e-05
5.41359e-05
5.39923e-05
5.40007e-05
5.40005e-05
5.39987e-05
5.37931e-05
5.36537e-05
5.35917e-05
5.35638e-05
5.31696e-05
5.29868e-05
5.26087e-05
5.25473e-05
5.21324e-05
5.13792e-05
5.10096e-05
5.0843e-05
4.86689e-05
4.88844e-05
4.59052e-05
4.6123e-05
4.49714e-05
5.23483e-05
5.71115e-05
5.80948e-05
6.08474e-05
5.99359e-05
5.93755e-05
5.95439e-05
5.82257e-05
5.53126e-05
5.65118e-05
5.71508e-05
5.83014e-05
5.63108e-05
5.6174e-05
5.65859e-05
9.80506e-05
6.05411e-05
5.7571e-05
4.73196e-05
4.02502e-05
3.77318e-05
4.8808e-05
3.80543e-05
3.98481e-05
4.0795e-05
5.20201e-05
4.28171e-05
4.64461e-05
5.50068e-05
4.75434e-05
5.6059e-05
5.07798e-05
5.76549e-05
5.62749e-05
5.84729e-05
5.2949e-05
5.95597e-05
6.01847e-05
6.01812e-05
5.74242e-05
6.08592e-05
6.13623e-05
6.13514e-05
6.12162e-05
6.16786e-05
6.21053e-05
6.20946e-05
6.18949e-05
6.21251e-05
6.25105e-05
6.24955e-05
5.70776e-05
6.22342e-05
5.65647e-05
6.25366e-05
5.66489e-05
5.67592e-05
5.63746e-05
6.22069e-05
5.6411e-05
5.61189e-05
5.57711e-05
5.5631e-05
5.49692e-05
5.4974e-05
5.32865e-05
5.28025e-05
4.93535e-05
4.46544e-05
4.75183e-05
5.39603e-05
4.57529e-05
5.39994e-05
6.53658e-05
6.2919e-05
6.7199e-05
6.54282e-05
6.209e-05
6.61441e-05
6.67992e-05
6.40219e-05
6.61722e-05
6.83061e-05
6.83877e-05
6.74322e-05
6.77476e-05
6.81939e-05
0.000101298
6.14791e-05
5.81694e-05
4.95502e-05
4.81082e-05
4.86421e-05
4.8861e-05
4.87479e-05
4.80201e-05
5.17925e-05
4.79453e-05
4.86889e-05
5.10747e-05
5.10217e-05
5.6108e-05
5.24017e-05
5.70741e-05
5.65286e-05
5.86079e-05
5.86736e-05
5.91732e-05
5.98148e-05
6.03848e-05
6.04171e-05
6.07067e-05
6.11761e-05
6.15994e-05
6.16176e-05
6.17505e-05
6.20668e-05
6.23731e-05
6.23888e-05
6.24065e-05
6.26002e-05
6.28017e-05
6.28141e-05
6.2716e-05
6.27232e-05
6.28635e-05
6.22937e-05
6.26483e-05
6.25844e-05
6.2573e-05
6.19332e-05
6.21469e-05
6.19594e-05
6.10605e-05
6.086e-05
6.04192e-05
6.02505e-05
5.76154e-05
5.70673e-05
5.29582e-05
5.73384e-05
5.0353e-05
5.2873e-05
5.27797e-05
6.00929e-05
6.39492e-05
6.70579e-05
6.93624e-05
6.78167e-05
6.94063e-05
6.94154e-05
6.97563e-05
6.68972e-05
6.8285e-05
6.8752e-05
7.0308e-05
6.83932e-05
6.84473e-05
6.90051e-05
0.000158114
9.21284e-05
8.60261e-05
6.50617e-05
5.24237e-05
4.51788e-05
5.70591e-05
4.27634e-05
4.35057e-05
4.31889e-05
5.87769e-05
4.45266e-05
4.87599e-05
6.15863e-05
4.94649e-05
6.27181e-05
5.38447e-05
6.45635e-05
5.55587e-05
6.55693e-05
5.70642e-05
6.69918e-05
6.78034e-05
6.78256e-05
5.95322e-05
6.88088e-05
6.94957e-05
6.95082e-05
6.26332e-05
7.00776e-05
7.06847e-05
7.06926e-05
6.26367e-05
7.08825e-05
7.10309e-05
7.14474e-05
6.34578e-05
6.55209e-05
6.34234e-05
7.1757e-05
6.37047e-05
6.40002e-05
6.33743e-05
6.72542e-05
6.36254e-05
6.34502e-05
6.28285e-05
6.26419e-05
6.19479e-05
6.20665e-05
5.96168e-05
5.90424e-05
5.42597e-05
4.92172e-05
5.30645e-05
6.27181e-05
6.04054e-05
6.07919e-05
7.42762e-05
6.94904e-05
7.42888e-05
7.27223e-05
6.987e-05
7.48886e-05
7.70079e-05
7.54809e-05
7.96266e-05
6.91847e-05
8.03753e-05
7.95256e-05
8.0606e-05
8.11637e-05
0.000162154
9.31854e-05
8.68459e-05
6.57005e-05
5.86764e-05
5.71028e-05
5.71209e-05
5.69621e-05
5.74217e-05
5.85327e-05
5.88183e-05
5.95925e-05
6.05599e-05
6.16736e-05
6.2712e-05
6.28076e-05
6.36164e-05
6.46923e-05
6.56061e-05
6.56827e-05
6.6248e-05
6.71631e-05
6.7909e-05
6.7961e-05
6.83513e-05
6.90359e-05
6.96273e-05
6.96631e-05
6.98913e-05
7.03757e-05
7.08385e-05
7.08642e-05
7.09585e-05
7.12688e-05
7.1618e-05
7.16329e-05
7.15843e-05
7.17386e-05
7.19509e-05
7.19527e-05
7.17872e-05
7.17287e-05
7.18276e-05
7.1799e-05
7.13878e-05
7.11819e-05
7.09124e-05
7.0842e-05
7.02899e-05
6.9417e-05
6.89811e-05
6.8776e-05
6.723e-05
6.612e-05
6.34593e-05
6.2949e-05
6.0976e-05
5.80569e-05
7.46165e-05
7.59021e-05
7.96154e-05
8.01326e-05
8.09539e-05
8.14136e-05
8.08479e-05
7.83889e-05
8.0044e-05
7.8197e-05
8.22455e-05
8.06705e-05
8.10301e-05
8.17343e-05
0.000165206
9.39318e-05
8.74636e-05
6.62186e-05
5.93101e-05
5.72291e-05
5.71832e-05
5.70832e-05
5.81431e-05
5.85718e-05
5.72191e-05
5.96526e-05
5.65055e-05
5.75665e-05
6.27392e-05
6.2869e-05
6.01935e-05
6.11551e-05
6.56507e-05
6.57585e-05
6.43896e-05
6.73052e-05
6.79769e-05
6.80544e-05
6.89489e-05
6.92341e-05
6.97177e-05
6.97727e-05
7.03868e-05
7.06513e-05
7.09498e-05
7.09919e-05
7.141e-05
7.16389e-05
7.17462e-05
7.17787e-05
7.20275e-05
7.22218e-05
7.20991e-05
7.21145e-05
7.22376e-05
7.23359e-05
7.2002e-05
7.19717e-05
7.18621e-05
7.18991e-05
7.11055e-05
7.09646e-05
7.01696e-05
7.01249e-05
6.66278e-05
6.58535e-05
5.9751e-05
6.69004e-05
5.81271e-05
6.17224e-05
6.15894e-05
6.46514e-05
7.40046e-05
7.61596e-05
7.81002e-05
7.66439e-05
7.95175e-05
7.93496e-05
8.20588e-05
7.92996e-05
8.04081e-05
8.13407e-05
8.40329e-05
8.1528e-05
8.14148e-05
8.22188e-05
0.000241373
0.000141649
0.0001316
9.36346e-05
7.64134e-05
6.04036e-05
6.84485e-05
5.2448e-05
5.13199e-05
4.8422e-05
6.71676e-05
4.82309e-05
5.41003e-05
5.00724e-05
5.12252e-05
7.02823e-05
5.75467e-05
7.21312e-05
5.62156e-05
7.31615e-05
5.96164e-05
7.48123e-05
7.08426e-05
7.57486e-05
6.43189e-05
7.70604e-05
7.78203e-05
7.7863e-05
7.3177e-05
7.88082e-05
7.94501e-05
7.94821e-05
7.2198e-05
8.00682e-05
7.15201e-05
8.06254e-05
6.8401e-05
7.20738e-05
6.84624e-05
8.12617e-05
6.90947e-05
6.96613e-05
6.88966e-05
7.46176e-05
6.94032e-05
6.93895e-05
6.85831e-05
6.83622e-05
6.76314e-05
6.80918e-05
6.49288e-05
6.4025e-05
5.85592e-05
5.34721e-05
5.79459e-05
7.20886e-05
5.86521e-05
6.35749e-05
8.34403e-05
7.35285e-05
7.74965e-05
7.68159e-05
7.49641e-05
7.99432e-05
8.78923e-05
8.3027e-05
8.71322e-05
8.62324e-05
9.30761e-05
9.29469e-05
9.3729e-05
9.45558e-05
0.000250621
0.000144736
0.000134234
9.53778e-05
7.81404e-05
7.08939e-05
7.00808e-05
6.74896e-05
6.72196e-05
6.70109e-05
6.49188e-05
6.26801e-05
6.34575e-05
6.12246e-05
7.03245e-05
6.12699e-05
6.35915e-05
6.23197e-05
7.31851e-05
7.33037e-05
6.60729e-05
6.92952e-05
7.5815e-05
7.59197e-05
7.68673e-05
7.54954e-05
7.79804e-05
7.80646e-05
7.87582e-05
7.55001e-05
7.96478e-05
7.9716e-05
8.02093e-05
7.29907e-05
8.08353e-05
7.84055e-05
7.62119e-05
7.46228e-05
8.15186e-05
7.37483e-05
7.49631e-05
7.58148e-05
7.8406e-05
7.41326e-05
7.52911e-05
7.54204e-05
7.36552e-05
7.33057e-05
7.30436e-05
7.37729e-05
6.91379e-05
6.80246e-05
6.23909e-05
7.62838e-05
6.08722e-05
6.48405e-05
7.04839e-05
6.87232e-05
7.57464e-05
8.52484e-05
7.96121e-05
7.81652e-05
7.73988e-05
8.09318e-05
8.85994e-05
8.67843e-05
8.89974e-05
9.06006e-05
9.60041e-05
9.41269e-05
9.44376e-05
9.53987e-05
0.000342257
0.000210012
0.000195607
0.000138657
0.000106795
8.80158e-05
8.32697e-05
6.89196e-05
6.45676e-05
5.71344e-05
7.82972e-05
5.43571e-05
5.91255e-05
5.86933e-05
5.36814e-05
7.93069e-05
5.99803e-05
8.08273e-05
5.77492e-05
8.17854e-05
6.19905e-05
8.33156e-05
7.18596e-05
8.43045e-05
6.44946e-05
8.56419e-05
8.05924e-05
8.65945e-05
6.72121e-05
8.76189e-05
8.43292e-05
8.85027e-05
6.96264e-05
8.91487e-05
7.75939e-05
8.99622e-05
7.16182e-05
7.39206e-05
7.13692e-05
9.09022e-05
7.28304e-05
7.39127e-05
7.24523e-05
7.91586e-05
7.36615e-05
7.40933e-05
7.24845e-05
7.21711e-05
7.19107e-05
7.31025e-05
6.86612e-05
6.74254e-05
6.20397e-05
5.70019e-05
6.08485e-05
8.18077e-05
6.4075e-05
6.87048e-05
9.25118e-05
7.58977e-05
8.01235e-05
7.97333e-05
7.79671e-05
8.30143e-05
9.02512e-05
8.89296e-05
9.25888e-05
9.16565e-05
0.00010064
9.79663e-05
0.000103579
0.000107375
0.0003549
0.000215079
0.000200032
0.000141514
0.000109841
9.39637e-05
9.18831e-05
8.41108e-05
8.02513e-05
7.84624e-05
7.84735e-05
7.6021e-05
7.70163e-05
7.06535e-05
7.94808e-05
6.86615e-05
7.18427e-05
6.79294e-05
8.18699e-05
6.75091e-05
7.08013e-05
6.94815e-05
8.43682e-05
7.53118e-05
8.52561e-05
7.65133e-05
8.66846e-05
8.34562e-05
8.74115e-05
7.81322e-05
8.8632e-05
8.16704e-05
8.9184e-05
7.61737e-05
9.01343e-05
7.53459e-05
7.79735e-05
7.82635e-05
9.11199e-05
7.66901e-05
7.87108e-05
7.99389e-05
8.26477e-05
7.74605e-05
7.94201e-05
7.99141e-05
7.73951e-05
7.69366e-05
7.7187e-05
7.85422e-05
7.29108e-05
7.13554e-05
6.57921e-05
8.58965e-05
6.3455e-05
6.79749e-05
7.97483e-05
7.34424e-05
7.87426e-05
9.43679e-05
8.26047e-05
8.11533e-05
7.85376e-05
8.39884e-05
9.3738e-05
9.14932e-05
9.28973e-05
9.48186e-05
0.000103622
0.000100461
0.000102091
0.000108206
0.000456038
0.000297294
0.000278472
0.000201165
0.000153206
0.000129898
0.000126971
0.000102266
8.94466e-05
7.46274e-05
9.52351e-05
6.74747e-05
7.03595e-05
9.05264e-05
6.08885e-05
9.06403e-05
6.58877e-05
9.14125e-05
6.27517e-05
9.21899e-05
6.64113e-05
9.32876e-05
7.56571e-05
9.42471e-05
6.80321e-05
9.52838e-05
8.55677e-05
9.63244e-05
7.04833e-05
9.71258e-05
9.15993e-05
9.82162e-05
7.30137e-05
9.86694e-05
8.67049e-05
9.97855e-05
7.52165e-05
7.60656e-05
7.72823e-05
0.000100878
7.68847e-05
7.84713e-05
7.60956e-05
8.2836e-05
7.81862e-05
7.9125e-05
7.65944e-05
7.61303e-05
7.64756e-05
7.8298e-05
7.26411e-05
7.09087e-05
6.53076e-05
6.08318e-05
6.44803e-05
9.18396e-05
7.04167e-05
7.44837e-05
0.000101633
7.92253e-05
8.38325e-05
8.32575e-05
8.12413e-05
8.6646e-05
9.66496e-05
9.52339e-05
9.73792e-05
9.75305e-05
0.00010705
0.000103859
0.000104691
0.00010307
0.000466352
0.000301665
0.000282347
0.000204325
0.000157159
0.000131127
0.00012777
0.000111395
0.000100606
9.60687e-05
9.54812e-05
9.25223e-05
9.09792e-05
9.07186e-05
9.09723e-05
9.08028e-05
9.10374e-05
9.16207e-05
9.24008e-05
9.23279e-05
9.25589e-05
9.35475e-05
9.43795e-05
9.43845e-05
9.46893e-05
9.56225e-05
9.64173e-05
9.64679e-05
9.67806e-05
9.75651e-05
9.8306e-05
9.83671e-05
9.86216e-05
9.92323e-05
9.98896e-05
9.99448e-05
0.000100074
0.000100493
0.000101012
0.000101049
0.000101022
0.00010118
0.000101528
0.000101527
0.000101213
0.0001011
0.000101046
0.00010098
0.000100341
9.95346e-05
9.90334e-05
9.88042e-05
9.70921e-05
9.55624e-05
9.27365e-05
9.20996e-05
8.91922e-05
9.5327e-05
0.00010191
0.000103436
0.000107461
0.000109233
0.000111471
0.000112336
0.000113091
0.000112229
0.00011456
0.000115777
0.000117723
0.000117574
0.000119022
0.000120172
0.000474397
0.000304819
0.000285126
0.000206953
0.000161123
0.00013191
0.000128398
0.000112316
0.000104278
9.64491e-05
9.56967e-05
9.28835e-05
9.3501e-05
9.09022e-05
9.10443e-05
8.76017e-05
8.75469e-05
8.33891e-05
9.2449e-05
9.2451e-05
8.29331e-05
8.06792e-05
9.44369e-05
9.44997e-05
8.21929e-05
8.09574e-05
9.64912e-05
9.65846e-05
8.59168e-05
8.24701e-05
9.84011e-05
9.84936e-05
9.3367e-05
8.44935e-05
0.000100009
9.03948e-05
8.56879e-05
8.63333e-05
0.00010116
8.46779e-05
8.67453e-05
8.80669e-05
8.9538e-05
8.5346e-05
8.75055e-05
8.80751e-05
8.51472e-05
8.46248e-05
8.50108e-05
8.61439e-05
7.99089e-05
7.77882e-05
7.16238e-05
9.6701e-05
7.00785e-05
7.59244e-05
9.01563e-05
8.27022e-05
8.64748e-05
0.000103682
8.92882e-05
8.82523e-05
8.92755e-05
9.08672e-05
0.000102294
0.000100221
0.000101377
0.00010143
0.000110718
0.000109417
0.000111092
0.000114327
0.000579338
0.000401908
0.000379182
0.000283253
0.000220047
0.000185209
0.000180385
0.000154046
0.000132656
0.000107957
0.000123337
9.21963e-05
9.57357e-05
7.88687e-05
7.5049e-05
0.000106215
8.1897e-05
0.000101111
7.22043e-05
0.000105377
7.60283e-05
0.000105803
8.22512e-05
0.000106498
7.42311e-05
0.000107136
8.9151e-05
0.000107991
7.48251e-05
0.000108554
9.19515e-05
0.000109485
7.66013e-05
0.000101317
8.58229e-05
0.000110798
7.85595e-05
8.01546e-05
7.72018e-05
0.000111753
8.02676e-05
8.2141e-05
7.90295e-05
8.87887e-05
8.17481e-05
8.32006e-05
7.98123e-05
7.93256e-05
8.03122e-05
8.24662e-05
7.61005e-05
7.37606e-05
6.88783e-05
6.46946e-05
6.79009e-05
0.000102286
7.6176e-05
7.97684e-05
0.00011104
8.10348e-05
8.6254e-05
8.62436e-05
8.41942e-05
8.88111e-05
0.000101112
9.88744e-05
0.000101197
9.94218e-05
0.000111413
0.000107836
0.000111087
0.000111318
0.000594849
0.000410631
0.000387148
0.000289795
0.000227548
0.00018777
0.000182644
0.000156544
0.000138955
0.0001257
0.000124158
0.000116557
0.000112522
0.000108531
0.00010704
0.000106619
0.000106567
9.83668e-05
0.000105737
9.3852e-05
9.60503e-05
9.0851e-05
0.000106751
8.83071e-05
9.08561e-05
8.79987e-05
0.000108193
8.92025e-05
9.57868e-05
8.74852e-05
0.000109658
8.65934e-05
9.75712e-05
8.81184e-05
0.000110976
8.55446e-05
8.87829e-05
8.93056e-05
0.000111961
8.60481e-05
8.90743e-05
9.05188e-05
9.23524e-05
8.63736e-05
8.93235e-05
9.03559e-05
8.61441e-05
8.535e-05
8.65984e-05
8.81813e-05
8.09702e-05
7.80593e-05
7.26629e-05
9.05564e-05
7.11909e-05
7.7381e-05
9.99681e-05
8.4898e-05
8.65827e-05
0.000112997
9.04338e-05
8.91447e-05
8.5633e-05
9.12452e-05
0.000103881
0.000100101
9.93452e-05
0.000101487
0.000110071
0.00010779
0.00010821
0.00011204
0.00069432
0.000516712
0.000491685
0.000379982
0.000299776
0.000257956
0.000251566
0.000215282
0.000179903
0.000169944
0.000163224
0.000136315
0.000129529
0.000135488
9.82825e-05
0.000129835
0.000101027
0.000124259
8.81373e-05
0.000123042
9.00612e-05
0.000121525
9.64603e-05
0.000121876
8.43846e-05
0.000121372
0.00010436
0.000122304
8.23175e-05
0.000121835
0.000108604
0.000123058
8.21811e-05
0.000109027
0.000102307
0.000123739
8.29482e-05
8.38452e-05
9.11923e-05
0.000124144
8.39431e-05
8.60716e-05
8.12818e-05
9.058e-05
8.49615e-05
8.68431e-05
8.18057e-05
8.09648e-05
8.30942e-05
8.5415e-05
7.77558e-05
7.45714e-05
7.01698e-05
6.68018e-05
6.99696e-05
0.000112873
8.07515e-05
8.39589e-05
0.000120515
0.00010454
9.30353e-05
8.84113e-05
8.51673e-05
9.00782e-05
0.000103838
0.000100787
0.000100408
0.000100182
0.000110477
0.000108374
0.000109903
0.000108133
0.000705039
0.000522827
0.000497348
0.000386012
0.000308272
0.000260418
0.000253672
0.000217896
0.000188737
0.000171217
0.000168956
0.000154147
0.000144177
0.000136303
0.000131996
0.000130465
0.000126441
0.000124872
0.000123862
0.000123413
0.000121786
0.000122117
0.000122337
0.000122152
0.000121455
0.000122058
0.000122644
0.000122549
0.000122132
0.000122676
0.000123345
0.000123292
0.00012296
0.000123355
0.000123995
0.000123969
0.000123637
0.000123857
0.000124391
0.000124374
0.000123975
0.000123946
0.000124317
0.000124275
0.000123645
0.000123351
0.000123308
0.000123205
0.000122268
0.000121301
0.000120736
0.00012047
0.00011849
0.000116684
0.000113855
0.000113173
0.000109874
0.000114703
0.000120812
0.000122468
0.000126297
0.000128439
0.000131077
0.000132178
0.00013331
0.000133033
0.000135598
0.00013701
0.000139062
0.000139727
0.000141853
0.000143278
0.000713524
0.000527173
0.000501347
0.000391163
0.000316833
0.000262357
0.000255252
0.000220228
0.000197384
0.000172344
0.00016968
0.000155424
0.000149402
0.000137094
0.000132297
0.000131106
0.000130364
0.000125509
0.00012405
0.000123799
0.000124703
0.000118228
0.000122489
0.000119834
0.000114079
0.000109828
0.0001228
0.000117071
0.000107858
0.000105567
0.000123521
0.000107111
0.000104143
0.000103207
0.0001242
9.9584e-05
0.000102001
0.000101958
0.00012463
9.77877e-05
0.000100249
0.000101196
9.72435e-05
9.62501e-05
9.88697e-05
9.92796e-05
9.44176e-05
9.33446e-05
9.42534e-05
9.48618e-05
8.7056e-05
8.30685e-05
7.73436e-05
9.67123e-05
7.66399e-05
8.43049e-05
0.000111072
9.36091e-05
9.36489e-05
0.000122779
9.62677e-05
9.51769e-05
0.000106186
9.71089e-05
0.000109001
0.00010639
0.000105799
0.000106375
0.00011394
0.000114561
0.000114978
0.000117373
0.000801247
0.000635665
0.000610264
0.000491755
0.000401054
0.000348793
0.000340713
0.00029529
0.000252573
0.000234417
0.000231626
0.00020924
0.000186601
0.000179584
0.000144824
0.000168105
0.000142964
0.000154505
0.000113653
0.000150086
0.000118885
0.000144339
0.000114867
0.000143186
0.000105439
0.000140626
0.000115925
0.000140904
9.84301e-05
0.000138773
0.000114515
0.000140234
9.45661e-05
0.000116477
0.000103134
0.00013993
9.27064e-05
9.31288e-05
8.96781e-05
0.000129088
9.15462e-05
9.35525e-05
8.69085e-05
9.4473e-05
9.09813e-05
9.2896e-05
8.61827e-05
8.5039e-05
8.76034e-05
8.97469e-05
8.07901e-05
7.65748e-05
7.28572e-05
7.0125e-05
7.31595e-05
0.000124227
9.39054e-05
8.89804e-05
0.00013074
0.000119455
0.000113114
9.15012e-05
8.82576e-05
9.25906e-05
0.000107358
0.000103531
0.000102985
0.000102407
0.000115109
0.000111361
0.000112936
0.000111133
0.000810614
0.00064162
0.00061589
0.000499037
0.000412359
0.000352059
0.000343472
0.00029913
0.0002645
0.00023648
0.000233063
0.000211577
0.000198505
0.00018112
0.000172262
0.000169368
0.000163252
0.000155755
0.000152043
0.000150856
0.000147802
0.00014548
0.000144133
0.000143708
0.000142503
0.000141792
0.000141498
0.000141312
0.00014084
0.00014067
0.000140699
0.000140593
0.000140311
0.000140293
0.000140352
0.000140271
0.000139965
0.000139929
0.000139838
0.000139745
0.000139347
0.000139136
0.000138823
0.000138688
0.000138044
0.000137582
0.000136817
0.000136615
0.000135655
0.000134496
0.000133196
0.000132832
0.000130856
0.000128791
0.000125347
0.000124587
0.000121379
0.000125688
0.000131107
0.000132876
0.000136904
0.000139126
0.000141503
0.000142784
0.000144366
0.000144184
0.000146478
0.000148131
0.000150637
0.000151436
0.00015349
0.000155245
0.000818003
0.000645799
0.000619801
0.000505271
0.000423403
0.000354657
0.000345555
0.000302569
0.000276447
0.000238268
0.000234187
0.000213587
0.000207118
0.000182566
0.000172852
0.0001706
0.000170291
0.000157027
0.000152435
0.000151634
0.00015291
0.000146678
0.000144441
0.00014424
0.000145822
0.000141095
0.000141775
0.000141722
0.000135402
0.000131037
0.000140984
0.000137123
0.000126756
0.000124655
0.000140668
0.000118788
0.000120715
0.000119658
0.000140087
0.000113309
0.000115294
0.000115213
0.000109212
0.00010868
0.000110518
0.000109543
0.000103777
0.00010227
0.000102127
0.000101193
9.27356e-05
8.75109e-05
8.13882e-05
9.86149e-05
9.99197e-05
8.99872e-05
0.000122761
9.91838e-05
9.94384e-05
0.000133237
0.000100519
0.000107202
0.000128521
0.000102379
0.000112855
0.000112043
0.000113183
0.00011457
0.000120278
0.000122089
0.00012277
0.000125362
0.000889294
0.000748673
0.000725187