/*--------------------------------*- C++ -*----------------------------------*\
| =========                 |                                                 |
| \\      /  F ield         | OpenFOAM: The Open Source CFD Toolbox           |
|  \\    /   O peration     | Version:  v2012                                 |
|   \\  /    A nd           | Website:  www.openfoam.com                      |
|    \\/     M anipulation  |                                                 |
\*---------------------------------------------------------------------------*/
FoamFile
{
    version     2.0;
    format      ascii;
    class       volScalarField;
    location    "1e-06";
    object      omega;
}
// * * * * * * * * * * * * * * * * * * * * * * * * * * * * * * * * * * * * * //

dimensions      [0 0 -1 0 0 0 0];


internalField   nonuniform List<scalar> 
10262
(
221954
180124
158859
108296
100356
103805
105744
99826
95486.5
99173.1
102460
97108.8
94682.1
96290.7
100379
95902.7
92205.6
94405.2
98553.6
95220.2
90472.6
92899.4
97102.6
94773.8
89982.7
91621.8
95827.9
94350.1
89577.3
90401.3
94587.4
93825.2
89049.4
89172
93274.7
93083.4
88310.3
87720.5
91776.4
91982.1
87016.4
86129
89719.4
90198.4
85378.7
83383.8
87142.4
87500.8
81603.4
80668.2
82026.2
82336.4
77821.6
71960.3
75409.4
73919.5
62688.8
69548
88119.2
91251.1
91307.5
99034.7
105027
104054
98954.8
100200
106828
106130
105823
114261
124737
122183
162068
118508
113483
84065.4
81588.6
79021.4
78163.1
78282.5
78018.2
75790.5
74651.4
75217.1
77386.7
73989.4
72329.2
73498.9
75548.4
72962.2
71410.2
72287.1
73541
72202.6
70738.4
71354.1
72485.5
71589.2
70137.2
70514.6
71608.4
70971.2
69508.2
69678.2
70729.8
70288.8
68750.6
68745.9
69777.1
69355.8
67805.9
67653.7
68463.6
68242.7
66287.5
66037.8
67009.2
66087.6
64492.8
64105
63842.3
63954.6
60106.4
59741
61024.4
56540.1
55772.2
54864.2
47810.3
52269
61041.8
61795.7
67813.6
75683.7
73832.2
73643.1
76106.3
77465.2
76060.6
76353.4
81392.1
87304.8
88380.8
88892.5
77033.7
67664.7
66195
55882.4
53570.4
51875.4
51391.5
51045.9
50671.7
49288.1
48764.1
48729
50571.3
47761.2
46954.6
47362
48871.9
46838
46115.2
46422.7
47007.8
46154.4
45488.3
45702.6
46144.7
45600.3
44947.4
45073.1
45469.7
45076.9
44414.3
44461.1
44823
44528.1
43821.1
43799
44135.7
43853.7
43113.7
43031.7
43257.5
43042.1
42106.8
41969
42220.3
41705.2
40830.9
40638.8
40310.4
40111.2
38209.8
38014.7
38176.7
35828
35034.5
34542.4
30690.8
51501.1
31736.2
32135.3
37017.2
42161.1
42826.1
42924.2
44927.6
46561.1
45913.8
75491.2
48158.3
51517
52592.7
52843
74796.4
66426.2
65104.2
55208.3
52854.8
51264.1
50873.2
50460.9
49728.5
48733.4
48269.5
48179.4
46947.3
47247.1
46456.1
46853.8
46227
46328.1
45630.1
45930.3
45993.4
45645.7
45012.9
45222.5
45406.6
45087.1
44479.8
44604.5
44829.7
44552.5
43954.4
44004.9
44231.2
43987.3
43369.2
43356.3
43575.9
43288
42672.8
42610.5
42713
42465.1
41670.5
41566.9
41710.1
41085.2
40427.4
40252.3
39814.2
39507.5
37849.4
37662.3
37701.6
35299.7
34721
34267.9
30331.4
28494
31309.1
31705.6
36303.1
41443.6
42274.5
42362.7
43985.8
45790.3
45397.8
45695.7
46618.5
50646.5
51943
52063.1
43643.9
43379.4
43112.6
39862.8
38422.9
37349.8
37096.4
36650.8
36127.1
35360.6
35088.9
34868.1
34732.2
34092.5
33592.5
33756.4
33799.8
33282
32859.1
32984.4
33048.4
32686.1
32312.5
32399
32477.9
32207.2
31855
31903.3
31990
31771.1
31423.7
31437.2
31519.6
31330.7
30970.5
30953.4
31024.4
30824.9
30451.6
30407.1
30420.1
30227.9
29762.8
29696.6
29698
29339.1
28888.3
28790.6
28515.6
28238.1
27311.7
27197.7
27036.8
25750.1
25186.1
24946.9
22856.2
19227.7
19101.2
19268
22634.1
26131.4
27389.8
27539.7
29107.8
30885.5
30658.7
30518.2
30958.5
33373.5
34333.2
34417.6
26930.8
29464.6
29687.6
29537.2
29068.6
28437.9
28266.2
27964.8
27666.9
26996.3
26800.2
26584.1
27119.1
25916.1
25559.5
25625.8
26123.8
25209.7
24915.2
24969.3
25104.4
24695.1
24438
24475.3
24553.5
24289.9
24050.1
24068.5
24132.1
23937.7
23699.9
23699.8
23755.4
23600.4
23353
23335.1
23380.3
23242.1
22973.6
22939.9
22962
22827.9
22513.9
22462.2
22463.6
22273.2
21924.2
21866.9
21734.3
21538.7
20977.8
20906.4
20755.3
20083.9
19631.2
19500.4
18478.1
18933.2
13623.9
13618.7
15605.4
17793.9
18881.7
19023.4
20401.1
21938.7
21830.8
21724
21928.9
23253.9
23840.1
23892.6
26341.6
29078.5
29340.3
29243.3
28751.4
28186.3
28050.8
27723.7
27232.5
26754.3
26598.5
26345.5
25635.5
25702.4
25342.2
25411.9
24954.5
24993.7
24703.9
24759.4
24621.7
24475.8
24230.5
24269.1
24209.8
24066.1
23845.3
23866
23838.5
23706.1
23497.6
23502.1
23485.4
23359
23152.7
23142.7
23126.2
22985.3
22777
22758.2
22711.1
22558.4
22318.4
22284.8
22224.3
21986
21744.4
21690.4
21507.6
21256.5
20816.2
20748.1
20538.7
19833.4
19494.1
19379.7
18307.2
14699
13476.8
13474.7
15322.5
17490.1
18648.7
18784
19961.1
21590.5
21599.5
21446
21277.5
22884.7
23551.1
23551.7
17124.3
20246.8
20666.7
21952.1
22306.9
22181.3
22102.2
21981.6
21755.9
21318.4
21186.6
20986.7
20971.3
20437.1
20160.2
20182.6
20246.4
19816
19594.9
19615.5
19612.8
19362.8
19175.7
19190
19185.1
19009.8
18842.3
18847.3
18847.7
18712
18552.8
18548.2
18552.2
18438.9
18281.6
18266.9
18269
18167.1
18001.2
17977.8
17973.9
17867.9
17686.9
17655.7
17633.1
17510.1
17302.8
17270.6
17196.3
17043.5
16762.1
16720.7
16594
16241.5
15986.3
15933.2
15500.1
12363.2
10863
10773.5
11679
12937.2
13742.1
13837.4
14797.8
16092.8
16049.5
16025.7
15938.8
16831
17194
17186.1
16796.3
20006.4
20438.2
21731
22064.1
22010
21955.5
21818.7
21427.1
21156.6
21052.7
20823.7
19946.5
20290.5
20012.4
20036.8
19409.1
19669.3
19451.4
19473.7
19247.5
19212.6
19034.8
19050.5
18930.4
18855.1
18703
18710.2
18633.5
18549.8
18414.8
18414.1
18356.9
18267.6
18144.1
18136.2
18086
17982.1
17865.3
17853.9
17793
17669.2
17554.1
17533.9
17461.4
17297.9
17179.9
17150.2
17031.8
16833
16650.3
16611.4
16435.4
16052.5
15892.1
15851.3
15370.4
12248.8
10785.5
10694.8
11509.3
12731.6
13591.3
13682.6
14495.7
15836.3
12305
15816.2
15498.5
16567.9
16994.8
16961.7
10679.5
13803.1
14284.9
16098.1
17023.5
17367.4
17377.2
17492.4
17416.3
17172.9
17094
16935.4
16749.3
16501.5
16280.9
16289.7
16176.1
15968.2
15790.3
15798.6
15730.6
15568.2
15422.5
15428.2
15383.3
15259.3
15133.3
15134.3
15104.4
15004.9
14890.6
14886.8
14866.3
14781.7
14674.3
14665.9
14648.4
14572.3
14465.3
14453
14436.1
14359.6
14253.6
14237.8
14212.5
14136.4
14018.9
14002.3
13970.9
13869.7
13747.4
13727
13652.7
13496.5
13390.1
13393.9
13326.8
10904
9336.41
9193.02
9429.23
10042.3
10530.3
10577.8
11188.8
12173.9
12161.1
12165.4
12005.9
12591.1
12782.8
12743.3
6444.12
9250.38
9672.95
11573.7
12812.3
13444.8
13524.7
13910.7
14195.7
13992.6
13944.6
13884.6
14267.4
13582.8
13419.7
13416.2
13711.9
13151.9
13006.2
13005.6
13087.9
12810.9
12686.6
12686.6
12719.6
12547.8
12436.4
12434
12456.1
12339.2
12233.4
12228
12249.2
12167.3
12062
12052.8
12074.8
12021.8
11909
11896.9
11922.9
11887.7
11771.2
11758.8
11781.2
11769.5
11640.6
11631.8
11665.9
11647.7
11539.7
11531.3
11547.6
11541.4
11478.4
11503.7
11700.5
10816.4
8435.16
8262.03
8158.44
8363.57
8565.96
8582.5
9021.05
9670.1
9694.69
9631.4
9650.66
9887.5
9929.49
9889.66
6273.96
9089.26
9549.91
11430.6
12639.4
13340.9
13426.1
13808.5
13953.6
13896.7
13862.3
13794.3
13643
13500.2
13331.7
13335.3
13200.4
13066.6
12920.5
12923.8
12842.7
12721.1
12602.4
12604.9
12549.4
12453.1
12352.7
12352.8
12314.9
12237.7
12149.9
12148.2
12121.4
12057.4
11978
11974.7
11955.4
11899.7
11825.5
11820.7
11807.7
11753.7
11691
11682.6
11669.1
11626.4
11564.3
11557
11556.3
11503
11468.3
11461.8
11440.6
11410.5
11417.4
11449.6
11604.4
9913.64
8397.03
8225.09
8074.58
8266.6
8492.38
8503.68
8842.15
9530.17
9588.78
9523.41
9370.58
9743.77
9817.67
9764.33
3660.59
5958.07
6329.54
8088.44
9342.24
10114.5
10238.2
10814.5
11328
11313.7
11308.8
11368.3
11749.7
11254.7
11152.8
11150.4
11393.6
10957.6
10846.3
10842.2
10913.2
10680
10578.8
10576
10603.6
10455.5
10363.9
10360.4
10378.6
10278.9
10192.8
10187.8
10206.1
10138.4
10054.4
10047.2
10068.6
10029.1
9941.22
9932.84
9959.88
9941.04
9854.14
9847.8
9877.66
9886.04
9797.05
9794.44
9847.18
9863.23
9812.1
9813.54
9872.45
9949.97
9961.15
10002.4
10322.8
9146.94
7783.54
7606.85
7291.88
7241.75
7263.76
7252.46
7476.72
7897.47
7889.27
7839.89
7834.49
7964.01
7941.14
7895.9
3551.91
5843.03
6242.27
7963.63
9186.44
10021.4
10148.7
10722.2
11090.4
11229.9
11233.4
11289.6
11240.9
11181
11079.6
11079.9
10977.3
10884.8
10773.7
10772.7
10699.2
10603.4
10507.7
10507.2
10454
10374.3
10293.2
10291.9
10254.3
10191
10122.2
10120.3
10094
10042.6
9983.15
9981.06
9964.92
9921.82
9871.24
9867.7
9860.53
9823.34
9787.2
9782.4
9780.23
9760.07
9732.78
9731.51
9750.99
9735.07
9751.17
9754.19
9777.51
9831.83
9908.07
9954.07
10231.1
9087.76
7753.23
7575.81
7227.1
7168.3
7209.13
7193.82
7339.27
7786.63
7812.75
7755.02
7617.99
7849.7
7853.74
7797.35
2079.28
3701.52
3985.51
5473.24
6633.05
7383.49
7498.09
8143.9
8804.73
8927.59
8960.28
9155.26
9650.75
9270.18
9244.86
9252.31
9532.2
9163.4
9092.62
9090.14
9181.46
8975.79
8898.12
8894.92
8932.43
8800.31
8725.03
8721.46
8745.5
8657.09
8584.34
8580.02
8602.64
8545.21
8473.71
8468.24
8493.37
8465.43
8390.79
8385.85
8418.14
8412.47
8341.36
8338.92
8378.45
8402.88
8335.96
8337.3
8405.81
8449.26
8429.01
8437.01
8530.83
8665.6
8722.12
8770.06
9140.21
8382.82
7221.79
7060.96
6668.09
6475.95
6377.09
6347.13
6427.59
6670.07
6627.34
6581.73
6563.99
6612.79
6549.64
6503.97
2004.14
3621.63
3918.08
5370.12
6494.96
7303.02
7427.23
8063.53
8576.6
8858.74
8896.59
9090.14
9199.56
9208.27
9186.7
9194.09
9175.54
9104.19
9036.16
9034.93
8994.46
8913.83
8842.06
8840.92
8803.65
8734.31
8669.66
8668.12
8640.34
8584.84
8528.99
8527.54
8508.89
8465.17
8417.72
8416.67
8407.14
8375.36
8336.58
8334.56
8335.15
8312.37
8289.16
8287.19
8296.56
8294.65
8285.21
8287.76
8324.04
8337.91
8380.28
8389.71
8448.88
8560.67
8678.86
8729.77
9054.48
8325.16
7194.67
7033.23
6614.47
6420.73
6339.19
6306.16
6324.5
6587.56
6572.13
6540.28
6400.9
6527.1
6486.62
6431.58
1251.98
2246.92
2437.23
3567.61
4578.59
5243.13
5342.7
5956.82
6644.69
6817.41
6866.71
7157.23
7805.49
7483.2
7541.78
7566.56
7949.8
7612.6
7590.15
7595.55
7738.63
7552.23
7502.37
7501.65
7566.21
7447.23
7388.74
7386.45
7425.4
7347.13
7285.24
7282.21
7314.42
7267.1
7203.03
7199.21
7232.5
7214.14
7146.27
7143.54
7184.21
7190.06
7125.15
7124.88
7175.53
7213.47
7155.81
7159.65
7242.45
7306.49
7299.38
7311.37
7432.29
7602.82
7684.25
7734.59
8114.92
8257.41
6680.76
6541.98
6161.58
5910.19
5741.14
5700.39
5693.46
5807.93
5731.52
6505.12
5668.15
5651.37
5563.34
5520.22
1218.7
2215.48
2407.16
3514.28
4487.1
5201.03
5309.66
5908.08
6454.88
6780.99
6834.62
7118.81
7371.81
7448.16
7512.67
7533.92
7624.6
7578.42
7562.52
7565.93
7580.22
7516.11
7475.07
7473.87
7464.55
7407.07
7361.85
7359.53
7347.13
7300.53
7258.09
7255.62
7247.28
7211.85
7174.84
7172.6
7170.89
7148.67
7117.94
7116.58
7125
7114.56
7096.42
7096.89
7116.58
7129.66
7126.71
7131.87
7182.11
7218.11
7269.95
7283.31
7368.07
7517.51
7658.21
7711.9
8049.31
7555.14
6661.59
6524.77
6117.46
5871.47
5721.99
5679.45
5622.73
5757.41
5706.73
5677.59
5551.39
5601.84
5534.23
5482.49
1194.9
2194.31
2386
3474.62
4403.76
5172.03
5286.92
5872.55
6265.14
6755.43
6812.48
7091.59
7010.93
7424.5
7493.02
7506.87
7331.96
7551.91
7543.82
7542.21
7422.67
7486.88
7455.58
7452.19
7366.74
7373.75
7342.14
7338.95
7273.8
7261
7238.25
7235.94
7186.24
7163.93
7155.51
7153.73
7117.01
7091.2
7098.87
7098.38
7073.67
7046.28
7077.92
7079.03
7065.45
7052.47
7108.21
7114.92
7129.74
7136.4
7252.14
7267.32
7314.33
7436.53
7640.36
7694
7982.96
7474.21
6645.82
6510.58
6080.62
5832.8
5708.57
5665.27
5561.78
5706.35
5688.3
5635.95
5448.93
5551.11
5512.65
5455.32
808.368
1401.38
1516.84
2247.73
3013.45
3604.82
3698.63
4236.24
4758.07
5044.02
5091.92
5403.86
5735.79
5842.3
5966.83
6008.87
6217.1
6187.83
6224.56
6237.99
6332.58
6280.12
6272.67
6275.44
6313.84
6266.41
6242.05
6241.26
6258.58
6220.68
6190.41
6188.59
6200.72
6174.41
6143.24
6141.61
6155.43
6143.38
6114.27
6113.82
6135.44
6137.54
6117.79
6119.88
6152.55
6179.64
6174.63
6181.49
6245.81
6299.74
6348.78
6364.63
6472.76
6638.41
6786.72
6838.22
7175.74
6807.96
6127.71
6013.72
5666.13
5421.58
5241.24
5194.17
5103.63
5154.53
5076.09
5029.72
4934.28
4929.87
4843.49
4795.73
777.475
1368.11
1483
2195.36
2917.23
3551.9
3658.64
4176.85
4570.45
4999.65
5051.49
5355.88
5453.39
5799.66
5929.39
5965.09
5955.19
6142.54
6188.84
6197.73
6161.95
6233.64
6237.31
6238.68
6200.3
6217.02
6207.16
6206.63
6171.31
6166.26
6155.96
6155.46
6126.5
6112.88
6109.73
6109.6
6088.91
6073.71
6081.48
6082.67
6071.91
6058.45
6085.67
6088.72
6089.46
6093.05
6142.88
6151.11
6181.5
6208.96
6317.09
6334.52
6405.36
6547.92
6757
6810.06
7097.76
6729.15
6103.62
5988.74
5616.82
5376.36
5220.05
5171.76
5040.44
5101.41
5048.43
4998.36
4841.52
4875.45
4811.22
4757.77
566.131
925.883
995.756
1436.34
1962
2406.36
2480.44
2933.02
3427.19
3648.8
3690.59
3979.8
4372.59
4423.86
4564.61
4620.71
4930.31
4883.23
4956.15
4984.7
5171.96
5118.09
5142.58
5154.84
5257.47
5216.73
5212.71
5217.94
5278.35
5250.08
5230.44
5232.6
5275.1
5260.08
5232.1
5233.26
5269.91
5270.6
5239.34
5240.47
5281.03
5298.02
5271.37
5274.3
5324.93
5366.9
5352.72
5360.33
5441.17
5512.01
5547.49
5564.25
5694.52
5869.75
6012.79
6062.94
6397.43
6125.04
5585.37
5488.36
5220.94
5005.45
4817.79
4770.19
4678.23
4680.02
4580.91
4536.9
4456.62
4411.49
4310.99
4267.48
545.535
902.767
972.144
1402.85
1894.11
2364.6
2449.07
2883.08
3269.64
3612.03
3657.69
3936.41
4127.16
4386.09
4534.39
4583.1
4691.81
4842.32
4925.7
4949.51
5006.68
5074.9
5112.08
5122.18
5145.13
5169.72
5182.53
5187.18
5193.23
5198.17
5200.7
5203.92
5204.22
5201.93
5203.26
5206.38
5208.02
5205.68
5211.23
5214.45
5222.7
5225.15
5244.32
5248.85
5267.48
5287.86
5326.19
5335.32
5382.56
5429.52
5520.52
5539.01
5632.51
5786.04
5986.86
6038.29
6324.11
6051.01
5562.6
5463.77
5168.2
4961.7
4799.81
4750.5
4622.03
4636.65
4560.08
4512.01
4384.28
4369.24
4287.2
4237.56
423.38
647.556
691.155
962.262
1293.21
1579.64
1627.56
1972.34
2411.85
2566.05
2605.63
2864.2
3317.07
3269.09
3400.85
3455.66
3842.95
3735.47
3815.63
3853.64
4116.61
4045.53
4086.63
4109.16
4279.72
4238.8
4249.67
4262.36
4376.12
4356.5
4344.45
4351.42
4434.68
4432.83
4405.21
4409.26
4478.21
4494.5
4458.03
4461.27
4527.69
4562.11
4525.12
4529.41
4603.39
4661.37
4635.08
4643.31
4743.48
4831.43
4848.93
4866.08
5018.59
5198.86
5327.51
5375.5
5708.53
5504.96
5056.1
4971.71
4781.81
4604.64
4423.11
4377.64
4308.09
4288.54
4177.29
4135.86
4074.82
4002.76
3892.41
3853.02
413.89
637.836
681.263
946.142
1256.25
1560.58
1613.21
1945.07
2293.33
2546.49
2589.14
2838
3063.7
3246.3
3385.91
3433.44
3597.88
3708.66
3799.56
3832.42
3965.1
4013.91
4069.9
4088.94
4176.37
4201.5
4232.64
4243.25
4298.66
4312.92
4327.19
4333.7
4371.5
4382.28
4387.77
4392.6
4423.54
4436.81
4440.15
4444.8
4476.99
4497.7
4506.91
4512.89
4553.98
4591.85
4616.37
4626.34
4692.93
4759.05
4828.89
4847.76
4963.64
5125.27
5308.18
5358.84
5646.44
5440.49
5040.29
4953.98
4729.7
4563.67
4410.37
4362.75
4258.68
4254.8
4164.91
4118.85
4017.57
3973.31
3879.43
3832.78
406.789
631.056
674.406
933.345
1221.78
1548.79
1602.81
1923.39
2179.02
2528.93
2576.88
2816.64
2908.88
3228.54
3374.79
3414.66
3429.03
3685.37
3787.95
3813.8
3817.81
3984.85
4056.99
4071.19
4071.05
4166.32
4219
4226.62
4220.18
4270.79
4313.18
4318.26
4308.16
4332.63
4373.78
4378.49
4369.24
4379.84
4426.26
4431.83
4427.15
4433.6
4493.31
4500.76
4505.8
4522.81
4602.72
4614.6
4644.07
4688.04
4815.06
4836.13
4912.75
5052.8
5293.24
5344.13
5582.2
5371.84
5024.72
4939.12
4679.63
4520.14
4399.06
4351.12
4208.98
4218.42
4154.38
4105.68
3957.54
3940.5
3868.36
3817.21
332.654
476.751
504.735
673.851
872.786
1053
1084.79
1305.95
1583.17
1750.16
1779.51
1994.05
2251.07
2349.67
2475.98
2520.75
2734.81
2776.44
2858.76
2892.4
3072.39
3086.27
3139.81
3164.8
3303.84
3316.42
3348.47
3365.77
3471.1
3487.51
3502.14
3513.74
3595.58
3617.73
3619.31
3627.64
3696.37
3726.55
3720.91
3727.69
3792.43
3833.16
3828.27
3835.76
3906.43
3963.55
3971.81
3982.77
4074.55
4160.16
4208.24
4227.79
4370.31
4536.67
4695.58
4742.81
5036.96
4882.34
4533.71
4456.52
4297.47
4169.55
4025.58
3980.12
3914.58
3910.25
3812.01
3767.33
3692.65
3633.96
3531.39
3487.16
323.91
466.452
494.144
658.014
841.931
1036.14
1068.74
1280.02
1492.36
1725.31
1759.63
1962.65
2118.61
2323.9
2457.12
2494.43
2592.99
2745.79
2839.69
2866.5
2940.13
3049.32
3118.77
3139.36
3196.9
3271.84
3326.02
3340.96
3384.37
3434.67
3478.95
3490.09
3522.24
3557.38
3596.11
3605.32
3632.1
3659.65
3697.8
3706.39
3733.16
3760.74
3806.32
3815.71
3849.5
3888.11
3949.98
3962.99
4017.68
4084.08
4185.76
4207.49
4310.95
4460.67
4673.18
4721.81
4967.34
4809.14
4512.55
4432.7
4238.63
4118.64
4008.33
3961.05
3860.52
3869.39
3796.41
3747.39
3637.15
3598.22
3515.45
3464.79
277.325
370.093
388.321
499.194
631.484
736.117
755.499
893.267
1096.36
1181.36
1199
1362.76
1646.45
1649.64
1751.88
1797.63
2071.84
2029.3
2099.14
2131.46
2346.35
2316.04
2358.53
2382.97
2554.57
2544.33
2565.26
2584.17
2726.34
2736.03
2738.29
2752.54
2873.89
2901.45
2888.53
2899.3
3007.2
3051.46
3028.44
3037.23
3138.89
3199.42
3173.82
3182.55
3288.55
3366.85
3353.04
3364.56
3488.28
3594.96
3617.27
3636.98
3810.58
3986.79
4116.25
4161.26
4467.25
4352.9
4032.41
3961.13
3861.96
3765.87
3624.17
3582.4
3565.33
3566.76
3458.58
3415.85
3374.9
3306.22
3195.12
3154.85
273.089
365.722
383.849
491.228
613.414
728.456
748.503
880.975
1036.86
1169.64
1189.93
1344.58
1483.55
1633.11
1742.28
1781.24
1911.07
2008.45
2089
2115.56
2232.22
2289.4
2346.85
2367.23
2464.92
2509.59
2551.93
2568.27
2651.46
2691.57
2723.43
2736.71
2808.36
2847.4
2872.47
2883.57
2947.89
2988.95
3011.29
3021.43
3083.34
3130.6
3156.11
3166.94
3234.84
3294.5
3334.48
3348.4
3434.45
3521.63
3597.39
3619.4
3753.59
3914.25
4096.7
4144.51
4404.31
4283.5
4016.03
3941.82
3804.15
3714.75
3610.22
3564.61
3512.3
3527.74
3446.62
3397.06
3321.12
3274.46
3183.9
3133.89
269.829
362.692
380.768
484.666
596.336
722.668
743.469
870.551
985.079
1159.97
1183.23
1329.99
1415.36
1618.47
1734.83
1766.4
1820.02
1988.82
2080.85
2101.05
2132.84
2263.39
2337.41
2352.88
2377.69
2474.85
2540.91
2553.81
2575.36
2646.31
2710.81
2722.38
2740.92
2791.74
2858.57
2869.46
2886.34
2924.51
2996.38
3007.49
3025.7
3060.06
3140.98
3153.66
3179.37
3221.4
3318.74
3335.22
3379.5
3449.04
3581.37
3606.21
3697.93
3842.98
4079.2
4128.04
4338.48
4214.21
3998.17
3924.02
3744.61
3662.64
3595.55
3549.38
3455.88
3485.74
3434.34
3381
3261.63
3238.07
3172.26
3115.96
240.225
300.646
312.623
384.771
468.737
537.271
549.783
635.571
749.332
814.217
825.231
928.849
1068.72
1130.42
1208.24
1243.92
1400.19
1435.28
1497.29
1526.17
1674.18
1688.19
1731.29
1752.38
1876.79
1892.61
1918.84
1935.3
2042.64
2067.08
2080.01
2093.2
2190.91
2226.32
2229.2
2240.35
2334.15
2381.21
2378.85
2389.04
2482.92
2543.53
2542.35
2553.21
2655.16
2731.96
2745.2
2759.07
2879.35
2985.04
3033.04
3055.18
3224.12
3393.89
3543.63
3588.85
3869.02
3781.04
3523.34
3453.66
3370.08
3307.36
3197.93
3154.69
3149.88
3173.78
3079.39
3030.76
2987.44
2942.02
2842.32
2796.87
237.443
297.846
309.755
379.109
455.665
532.025
545.096
626.774
712.529
805.813
819.006
916.349
990.713
1117.27
1200.95
1230.29
1305.37
1416.65
1489.05
1512
1587.34
1663.29
1721.71
1738.15
1801.44
1860.01
1907.7
1920.89
1975.71
2024.89
2067.05
2078.53
2129.04
2173.59
2214.35
2225.25
2274.78
2318.47
2361.99
2373.34
2424.67
2473.25
2523.99
2537.08
2597.01
2657.66
2725.17
2741.88
2820.26
2909.93
3011.26
3036.16
3162.06
3320.22
3521.84
3570.11
3802.28
3706.3
3504.34
3432.58
3309.28
3248.7
3181.13
3134.44
3093.98
3126.02
3064.83
3008.75
2933.56
2901.34
2829.18
2772.74
235.294
295.92
307.802
374.415
443.629
527.991
541.675
619.222
679.433
798.893
814.4
906.09
942.355
1105.67
1194.91
1217.93
1233.37
1399.13
1482.1
1498.95
1504.48
1639.16
1713.56
1725.08
1727.17
1827.99
1898.19
1907.74
1909.66
1983.35
2055.84
2065.05
2067.67
2121.4
2201.34
2211.48
2215.63
2255.99
2347.02
2359.22
2366.32
2402.41
2507.71
2522.78
2538.51
2581.79
2707.44
2727.03
2760.9
2832.85
2992.81
3020.85
3101.36
3243.97
3500.83
3551.25
3731.87
3634.33
3483.17
3413.44
3242.28
3191.5
3162.63
3117.07
3027.18
3076.98
3048.81
2989.94
2859.66
2858.35
2814.55
2752.21
216.421
255.278
263.089
310.102
363.94
409.988
418.256
472.857
537.982
585.162
592.395
655.38
721.926
783.338
835.824
858.538
935.663
995.807
1044.55
1066.8
1158.94
1198.36
1237.52
1256.04
1343.9
1375.31
1404.1
1418.48
1496.55
1528.18
1547.99
1559.57
1631.4
1667.23
1681.17
1691.09
1762.03
1804.39
1817.38
1826.65
1901.58
1954.44
1972.21
1982.94
2069.75
2138.21
2173.06
2187.76
2296.15
2395.99
2465.15
2488.86
2647.6
2810.24
2976.36
3021.72
3277.47
3209.13
3009.33
2940.71
2870.74
2831.28
2753.48
2708.39
2711.43
2748.07
2671.69
2617.87
2575.55
2549.54
2467.92
2418.31
214.161
252.569
260.265
304.846
353.435
404.583
413.263
464.597
514.293
576.974
585.86
644.551
689.113
771.031
827.405
845.319
888.609
977.726
1034.86
1051.89
1096.6
1173.22
1226.4
1240.34
1281.01
1342.51
1391.5
1402.4
1437.67
1487.34
1533.73
1543.19
1575.48
1618.27
1665.14
1674.35
1706.95
1747.07
1799.16
1809.38
1845.49
1889.7
1951.94
1964.8
2011.19
2067.98
2150.15
2167.89
2234.42
2322.39
2439.79
2466.79
2582.05
2736.19
2949.03
2997.06
3204.69
3132.02
2983.92
2913.21
2805.83
2768.61
2730.57
2682.71
2650.87
2692.35
2650.99
2589.55
2518.49
2500.22
2449.32
2388.2
202.167
225.987
230.928
262.628
300.975
327.686
332.809
370.454
423.402
441.965
445.467
487.777
560.611
568.101
598.363
615.554
705.515
706.78
734.463
752.365
851.066
852.956
873.966
890.997
990.004
997.53
1008.39
1022.98
1116.72
1132.92
1133.38
1144.97
1233.29
1260.05
1251.7
1260.62
1346.73
1384.9
1371.31
1378.5
1467.93
1520.31
1506.64
1513.87
1616.11
1686.9
1685.2
1695.51
1823.23
1928.09
1955.47
1974.85
2158.24
2323.27
2440.08
2481.55
2760.5
2723.49
2512.85
2451.5
2434.27
2415.98
2315.47
2277.55
2323.02
2359.11
2261.2
2217.63
2217.62
2189.24
2093.77
2058.36
200.997
224.83
229.738
259.765
294.273
325.059
330.545
365.797
404.745
437.625
442.433
481.649
515.944
561.049
594.253
607.968
645.985
695.555
729.165
743.364
794.259
835.874
867.298
880.847
936.748
973.189
1000.13
1011.99
1067.09
1100.84
1123.43
1133.45
1186.51
1220.27
1239.96
1248.55
1300.97
1336.97
1357.56
1365.72
1421.2
1463.81
1490.5
1499.8
1565.95
1621.45
1665.92
1679.17
1767.26
1854.07
1932.37
1954.98
2093.8
2243.7
2414.34
2459.26
2686.28
2636.27
2491.33
2425
2369.51
2345.98
2296.42
2251.49
2258.73
2298.75
2244.08
2188.59
2152.51
2139.28
2079.11
2027.9
200.036
224.052
228.955
257.267
288.106
322.99
328.882
361.573
391.186
433.891
440.12
476.018
502.034
554.635
591.059
600.935
624.797
684.76
724.731
734.893
758.486
818.721
861.322
871.109
894.186
948.278
992.525
1001.3
1022.62
1068.11
1114.05
1122.09
1142.12
1180.42
1228.66
1236.68
1256.61
1291.06
1344.14
1353.18
1375.83
1412.72
1474.58
1485.96
1517.68
1565.23
1647.05
1663.36
1714.21
1792.21
1910.39
1936.46
2034.64
2176.13
2387.34
2434.76
2614.6
2564.52
2465.19
2399.16
2305.87
2286.91
2273.59
2226.4
2199.06
2244.08
2222.97
2160.59
2096.88
2090.78
2060.79
1998.16
192.775
207.009
210.001
229.976
254.36
272.584
275.936
300.716
332.475
347.495
349.744
377.025
415.654
428.119
447.247
458.119
503.998
515.145
532.996
544.225
596.963
608.628
623.789
634.857
692.531
707.065
717.648
728.043
788.544
807.989
813.29
822.415
884.13
909.454
909.94
917.55
980.567
1012.41
1010.99
1017.48
1083.82
1124.26
1124.67
1131.06
1206.8
1259.78
1271.98
1280.71
1377.55
1459.82
1499.31
1516.17
1664.31
1801.74
1923.04
1959.65
2195.08
2173.14
2020.09
1965.02
1951.05
1947.34
1877.21
1841.06
1877.15
1918.57
1846.15
1804.17
1799.85
1791.61
1717.8
1682.22
192.058
206.324
209.3
227.989
249.623
270.789
274.438
297.32
320.475
344.392
347.684
372.552
390.6
423.023
444.436
452.619
471.06
506.968
529.218
537.651
562.964
595.907
618.764
627.177
656.797
688.213
711.182
719.289
751.552
781.947
805.06
812.654
846.294
875.97
899.73
906.963
942.03
972.209
998.697
1006.01
1044
1077.94
1110.01
1118.27
1164.08
1206.95
1254.32
1265.76
1329.08
1398.84
1477.46
1497.22
1605.88
1731.56
1896.29
1936.33
2122.54
2088.6
1996.1
1937.86
1891.2
1878.49
1855.83
1814.23
1818.55
1856.85
1826.56
1774.3
1743.43
1738.57
1701.01
1651.12
191.477
205.873
208.857
226.278
245.443
269.386
273.366
294.276
311.703
341.73
346.136
368.482
382.241
418.413
442.268
447.565
458.494
499.27
526.137
531.563
541.136
583.642
614.426
619.981
629.271
669.954
705.231
710.978
720.399
756.912
797.212
803.284
812.709
844.391
889.848
896.649
906.759
935.226
986.647
994.676
1007.02
1036.59
1095.63
1105.67
1124.53
1161.67
1237.22
1251.23
1284.99
1348.08
1456.9
1479.62
1554.48
1672.67
1869.4
1911.62
2055.25
2023.67
1968.09
1912.41
1829.5
1823.84
1831.06
1788.96
1759.7
1804.72
1803.05
1746.1
1686.44
1691.94
1680.43
1621.12
187.344
195.475
197.233
209.216
224.178
236.996
239.316
255.359
273.983
286.711
288.533
306.048
325.832
339.579
352.716
359.119
381.223
395.432
408.114
414.639
440.679
454.662
466.478
472.932
502.354
517.511
528.149
534.337
566.757
584.446
593.772
599.555
634.766
655.737
664.38
669.784
708.373
733.305
742.904
748.175
791.073
821.624
834.562
840.424
891.287
930.284
953.764
961.693
1028.11
1089.79
1137.29
1151.99
1259.66
1367.06
1486.18
1517.5
1695.47
1679.6
1585.13
1539.7
1521.72
1522.62
1485.45
1454.26
1474.73
1512.43
1469.87
1431.78
1419.12
1422.14
1374.57
1340.64
186.942
195.105
196.861
207.926
221.063
235.846
238.401
252.999
266.892
284.594
287.222
302.906
314.559
336.031
350.9
355.272
366.152
389.706
405.623
410.061
422.381
445.753
463.07
467.558
481.263
504.306
523.523
528.082
543.258
565.963
587.609
592.33
608.976
631.525
656.395
661.528
680.284
703.532
732.782
738.69
760.457
786.859
822.09
829.501
857.65
891.176
938.595
948.781
989.833
1044.98
1118.3
1135.47
1213.07
1314.1
1461.84
1495.72
1635.15
1611.5
1560.82
1514.99
1471.27
1465.01
1463.68
1429.54
1426.75
1458.68
1447.4
1403.85
1374.53
1373.27
1356.53
1311.39
186.627
194.852
196.616
206.845
218.307
234.927
237.72
250.938
260.292
282.77
286.195
300.114
304.688
332.863
349.452
351.815
352.894
384.505
403.545
405.919
405.555
437.62
460.127
462.667
461.961
492.251
519.421
522.353
521.804
549.065
582.023
585.653
585.355
609.197
649.021
653.788
654.294
675.564
723.377
729.769
731.801
753.364
810.525
819.227
825.82
852.399
924.644
936.761
953.491
999.789
1101.09
1120.69
1168.86
1259.7
1438.66
1474.34
1573.43
1552.66
1534.5
1493.91
1410.63
1414.92
1440.09
1408.11
1364.94
1410.32
1172.76
1377.64
1309.2
1330.59
1335.87
1285.37
184.456
188.873
189.867
196.685
205.498
214.662
216.319
226.546
237.231
248.037
249.658
260.924
270.222
283.717
293.407
296.937
306.401
320.826
330.658
334.212
345.965
359.487
369.491
373.033
386.567
400.066
410.41
413.922
429.085
443.245
454.319
457.83
474.785
490.214
502.813
506.45
525.894
543.319
558.766
562.788
585.81
607.054
627.427
632.473
662.038
690.032
720.287
727.465
768.518
814.132
865.029
877.689
950.586
1033.29
1144.33
1170.67
1296.2
1281.51
1233.58
1198.52
1176.39
1175
1165.25
1139.6
1146.8
1174.12
1155.93
1124.07
1105.98
1109.13
1087.7
1056.5
184.232
188.606
189.591
195.795
203.491
213.707
215.511
224.735
233.002
246.279
248.439
258.439
265.601
280.904
291.739
293.884
299.929
316.517
328.466
330.606
335.974
353.088
366.626
368.841
374.095
390.944
406.668
409.078
414.648
430.863
449.454
452.23
458.475
474.263
496.537
499.941
507.505
523.715
550.779
555.187
564.984
583.821
617.457
623.541
638.234
663.167
708.017
716.788
740.779
782.558
849.422
864.157
915.991
994.95
1123.44
1151.44
1249.28
1235.44
1211.17
1178.02
1134.09
1134.93
1144.88
1118.83
1106.05
1134.45
1137.07
1100.38
1067.43
1072.39
1069.66
1031.59
183.072
185.201
185.707
189.645
195.341
200.83
201.87
208.94
217.266
223.556
224.532
232.703
241.747
248.674
255.115
257.965
267.874
274.982
281.202
284.058
295.411
302.406
308.279
311.082
323.731
331.236
336.752
339.467
353.381
362.047
367.397
370.015
385.442
395.842
401.533
404.114
421.721
434.503
441.599
444.325
465.247
481.858
492.101
495.407
522.356
545.244
562.762
567.606
605.085
642.375
675.29
684.485
749.171
817.419
897.515
917.848
1028.87
1023.07
975.948
949.552
941.632
945.113
927.672
908.984
922.563
945.981
923.388
900.137
892.898
897.363
872.876
852.581
182.949
185.055
185.554
189.093
194
200.213
201.354
207.708
214.087
222.341
223.703
230.957
237.084
246.678
253.94
255.8
261.65
271.907
279.647
281.498
287.489
297.853
306.243
308.115
314.411
324.766
334.098
336.046
342.847
353.264
363.946
366.063
373.653
384.462
397.069
399.512
408.439
420.337
435.857
438.881
450.056
464.68
484.777
488.898
504.613
524.751
553.518
559.65
583.796
617.543
663.294
674.079
721.498
785.958
880.57
902.419
990.184
980.812
958.157
931.894
909.08
908.428
911.415
891.059
891.034
910.354
907.433
879.889
863.775
864.601
858.834
831.76
182.334
183.13
183.335
185.372
188.84
191.952
192.574
197.308
203.72
207.104
207.671
213.549
221.885
224.784
229.112
231.379
241.052
243.656
247.67
249.943
260.599
263.457
266.96
269.169
280.613
284.346
287.232
289.33
301.622
306.759
309.066
311.03
324.464
331.492
333.482
335.337
350.528
360.008
362.362
364.225
382.209
395.272
399.221
401.403
424.482
443.124
451.75
454.988
487.296
517.708
536.972
543.326
598.235
653.871
708.395
723.57
820.097
820.24
774.08
754.817
757.443
763.172
740.755
727.884
747.139
765.37
739.946
724.666
728.487
730.318
705.194
693.019
182.274
183.067
183.274
185.071
187.974
191.638
192.335
196.579
201.14
206.408
207.263
212.483
216.81
223.551
228.497
230.039
234.477
241.666
246.809
248.353
253.563
260.42
265.779
267.319
273.09
279.927
285.633
287.189
293.536
300.607
306.923
308.542
315.645
323.276
330.639
332.415
340.699
349.406
358.622
360.729
370.951
381.9
394.326
397.126
411.125
426.445
445.353
449.582
470.739
496.55
528.286
535.907
575.491
625.517
695.71
712.358
786.315
780.465
761.085
740.916
728.586
728.986
728.979
713.858
717.785
733.36
728.66
708.887
699.33
702.061
695.513
676.873
182.224
183.023
183.231
184.808
187.242
191.376
192.15
195.915
199.232
205.786
206.931
211.494
214.31
222.407
227.989
228.783
230.923
239.781
246.063
246.85
248.554
257.528
264.721
265.561
267.104
275.747
284.163
285.145
286.749
294.898
304.92
306.158
308.04
315.863