/*--------------------------------*- C++ -*----------------------------------*\
| =========                 |                                                 |
| \\      /  F ield         | OpenFOAM: The Open Source CFD Toolbox           |
|  \\    /   O peration     | Version:  v2012                                 |
|   \\  /    A nd           | Website:  www.openfoam.com                      |
|    \\/     M anipulation  |                                                 |
\*---------------------------------------------------------------------------*/
FoamFile
{
    version     2.0;
    format      ascii;
    class       volScalarField;
    location    "1e-06";
    object      p;
}
// * * * * * * * * * * * * * * * * * * * * * * * * * * * * * * * * * * * * * //

dimensions      [1 -1 -2 0 0 0 0];


internalField   nonuniform List<scalar> 
10262
(
141235
95719
107111
108411
108543
105157
104221
108890
108568
104819
104937
108666
107258
107666
105134
106043
108292
107619
105549
105987
108297
107908
105595
106180
108392
108129
105795
106255
108644
108513
105843
106517
108981
109009
106145
106471
109691
109877
105749
107319
110172
110681
106980
105949
112091
112708
103513
109350
110842
111966
107282
96989
88957.5
144925
124367
142797
159707
88365
91494
123953
100331
88971.5
130249
112677
114382
117403
109707
109603
100430
102930
105236
106282
141289
95730.4
107121
108418
108547
105159
104223
108893
108570
104820
104938
108667
107259
107666
105135
106043
108293
107619
105549
105988
108297
107908
105595
106181
108392
108128
105796
106256
108644
108513
105843
106517
108981
109009
106145
106472
109692
109877
105749
107320
110173
110681
106981
105951
112094
112709
103514
109353
110846
111969
107286
96995.6
88972.4
144250
123530
142090
159427
88284.1
91488.7
123944
100332
88979
129874
112333
113897
116955
109496
109494
100432
102924
105252
106297
141273
95732.7
107124
108419
108549
105161
104225
108893
108570
104821
104939
108667
107259
107666
105136
106043
108293
107619
105550
105987
108297
107908
105595
106180
108392
108129
105796
106255
108644
108514
105844
106516
108981
109010
106146
106472
109692
109877
105750
107320
110173
110682
106983
105952
112094
112710
103517
109353
110846
111972
107290
97000.4
88991.7
145176
124513
143153
159773
88400.2
91482.1
123926
100241
88993.4
130305
112805
114583
117452
109784
109601
100418
102920
105250
106284
141270
95738
107127
108419
108548
105161
104226
108893
108569
104821
104940
108665
107259
107667
105136
106043
108292
107620
105550
105987
108297
107908
105596
106181
108392
108129
105796
106256
108644
108514
105844
106516
108981
109010
106147
106472
109692
109877
105750
107320
110173
110683
106983
105953
112094
112710
103519
109352
110847
111973
107289
97000.2
89017.2
144355
123714
142401
159474
88438.6
91527.9
123908
100193
89020.3
129949
112462
114106
117027
109530
109574
100453
102920
105265
106286
141241
95726.4
107116
108410
108542
105158
104223
108889
108566
104819
104938
108663
107258
107664
105135
106042
108291
107618
105549
105986
108296
107907
105595
106180
108391
108128
105796
106255
108642
108512
105843
106515
108979
109008
106146
106471
109690
109876
105749
107318
110171
110680
106981
105951
112090
112705
103517
109346
110842
111967
107282
96995.2
89046.5
144864
124104
142939
159612
88427.6
91604.1
123919
100204
89068.4
130018
112609
114340
117171
109712
109552
100472
102920
105288
106296
141246
95741.6
107131
108417
108549
105164
104229
108892
108569
104823
104942
108666
107259
107665
105138
106045
108292
107619
105551
105988
108296
107908
105597
106181
108391
108129
105797
106256
108643
108514
105845
106517
108981
109010
106147
106473
109691
109877
105752
107320
110173
110683
106985
105956
112094
112708
103525
109349
110848
111976
107288
97005.2
89109.4
144557
123902
142789
159418
88478.5
91585.1
123849
100080
89110.7
129884
112546
114274
117071
109654
109507
100477
102906
105286
106293
141239
95745.7
107133
108415
108548
105164
104231
108890
108568
104823
104943
108663
107259
107665
105138
106044
108291
107620
105551
105988
108295
107908
105597
106181
108391
108129
105798
106256
108643
108513
105845
106517
108980
109009
106148
106473
109691
109877
105753
107320
110172
110683
106985
105957
112092
112706
103528
109346
110847
111976
107285
97004.1
89172.4
144570
123930
142908
159352
88588.5
91658
123818
100085
89179.4
129814
112564
114302
117047
109690
109476
100500
102894
105304
106298
141222
95747.4
107135
108412
108547
105166
104234
108889
108567
104825
104945
108663
107259
107664
105139
106046
108290
107618
105552
105989
108295
107907
105598
106182
108390
108128
105798
106257
108643
108513
105846
106517
108980
109009
106148
106474
109691
109876
105754
107320
110172
110683
106985
105959
112091
112704
103533
109343
110847
111977
107281
97003.2
89253.6
144506
123936
142906
159269
88614.6
91722.2
123769
100052
89259.9
129721
112580
114322
117012
109755
109446
100524
102880
105304
106305
141218
95755.8
107142
108410
108546
105168
104238
108886
108566
104826
104948
108659
107260
107665
105140
106045
108289
107620
105552
105990
108294
107907
105599
106183
108389
108128
105799
106258
108642
108513
105847
106518
108979
109009
106149
106474
109690
109876
105756
107321
110172
110683
106986
105962
112089
112701
103539
109339
110846
111978
107274
97001.7
89348.9
144390
123914
142868
159138
88710.5
91786.2
123704
100050
89355
129608
112590
114316
116949
109756
109417
100554
102864
105320
106312
141196
95749.2
107135
108393
108534
105161
104233
108876
108558
104823
104945
108654
107258
107658
105138
106045
108286
107615
105551
105989
108291
107904
105598
106181
108387
108125
105798
106256
108639
108510
105845
106516
108976
109006
106147
106472
109687
109871
105753
107317
110167
110677
106981
105959
112081
112690
103537
109324
110837
111965
107252
96988.1
89443.9
144398
124018
143050
159107
88834.3
91919.4
123680
100086
89489
129518
112646
114367
116941
109792
109387
100608
102864
105351
106340
141189
95764.5
107150
108398
108543
105173
104247
108881
108563
104831
104954
108659
107261
107660
105144
106050
108286
107617
105555
105994
108292
107905
105602
106185
108388
108127
105801
106260
108641
108511
105849
106520
108978
109008
106151
106477
109690
109874
105759
107321
110171
110682
106987
105969
112086
112693
103555
109329
110848
111980
107257
97006.5
89600.3
144186
123913
142961
158867
88970.8
91916.2
123541
99938.9
89598.6
129333
112624
114348
116846
109829
109312
100625
102839
105336
106337
141179
95773.4
107158
108395
108542
105176
104251
108876
108560
104833
104957
108652
107261
107660
105146
106049
108283
107618
105556
105994
108290
107904
105603
106186
108386
108126
105802
106261
108639
108510
105850
106520
108977
109007
106152
106478
109688
109872
105761
107321
110170
110681
106987
105972
112082
112688
103564
109322
110846
111980
107245
97004.2
89753.3
144078
123925
142919
158688
89182.3
92033.9
123449
99939.7
89752.2
129177
112649
114353
116780
109870
109258
100665
102824
105335
106349
141161
95778.1
107161
108385
108537
105179
104257
108871
108558
104836
104962
108651
107262
107657
105148
106053
108281
107616
105557
105997
108288
107903
105605
106188
108385
108124
105804
106262
108638
108509
105851
106522
108976
109006
106153
106480
109688
109870
105764
107321
110169
110680
106986
105977
112079
112681
103575
109315
110846
111979
107230
97004.3
89928.6
143937
123936
142866
158492
89294.6
92149.1
123334
99940.9
89923.8
128999
112676
114367
116706
109914
109205
100712
102807
105326
106364
141148
95789.9
107172
108381
108536
105184
104265
108865
108554
104840
104966
108643
107261
107657
105151
106052
108277
107617
105559
105998
108285
107902
105606
106189
108382
108123
105806
106263
108636
108508
105852
106523
108975
109005
106154
106481
109686
109868
105767
107322
110167
110678
106986
105982
112074
112673
103588
109305
110844
111978
107212
97003.3
90124.8
143770
123941
142827
158259
89496.2
92270.6
123201
99943.4
90117.8
128802
112705
114366
116623
109958
109142
100761
102790
105311
106376
141129
95796.9
107177
108368
108530
105187
104273
108857
108550
104844
104972
108640
107263
107653
105155
106057
108274
107614
105561
106002
108282
107900
105609
106192
108381
108121
105808
106266
108635
108506
105854
106525
108974
109003
106155
106484
109685
109865
105770
107322
110166
110676
106986
105989
112069
112664
103602
109295
110845
111976
107191
97009.8
90346.5
143591
123959
142803
158007
89740.9
92411.2
123052
99955.3
90333.2
128584
112738
114367
116532
110003
109084
100817
102775
105298
106391
141112
95810.2
107189
108363
108529
105195
104284
108850
108547
104850
104979
108631
107263
107653
105158
106056
108269
107616
105563
106003
108279
107899
105611
106193
108377
108120
105810
106268
108632
108504
105856
106527
108971
109001
106157
106486
109682
109862
105774
107322
110164
110674
106986
105995
112062
112654
103619
109282
110841
111975
107168
97015.2
90590.5
143383
123972
142745
157711
89926.8
92560.6
122880
99967.8
90571.9
128348
112773
114366
116433
110051
108982
100876
102760
105286
106401
141091
95820.3
107197
108347
108520
105197
104291
108838
108539
104853
104985
108625
107263
107646
105162
106062
108264
107611
105565
106008
108275
107895
105614
106196
108374
108117
105812
106270
108630
108502
105858
106529
108969
108999
106159
106489
109680
109857
105777
107323
110161
110670
106985
106002
112054
112639
103635
109267
110839
111969
107136
97023.9
90859.9
143172
124009
142678
157432
90297.9
92720.7
122699
100011
90839.5
128094
112817
114391
116325
110119
108984
100932
102745
105274
106414
141069
95835.7
107211
108343
108524
105217
104314
108840
108545
104872
105005
108625
107269
107657
105177
106070
108263
107621
105576
106016
108275
107901
105624
106204
108376
108121
105821
106278
108632
108506
105868
106537
108972
109004
106169
106498
109684
109862
105793
107332
110167
110678
106999
106024
112059
112641
103679
109273
110856
111991
107136
97070.8
91198.5
142846
123942
142558
156941
90593.1
92847.3
122406
99922.7
91074.2
127756
112800
114372
116181
110122
108892
100989
102709
105234
106383
141048
95849.6
107222
108324
108511
105214
104317
108817
108530
104868
105003
108601
107264
107646
105172
106060
108252
107614
105571
106011
108265
107893
105621
106199
108366
108113
105818
106274
108622
108497
105864
106531
108961
108994
106163
106493
109671
109849
105789
107321
110152
110664
106985
106018
112033
112609
103681
109232
110828
111961
107069
97051
91478.3
142659
124081
142532
156659
90932.1
93114.4
122259
99988.1
91438.3
127521
112903
114427
116091
110221
108802
101090
102748
105266
106420
141021
95865.3
107234
108307
108501
105222
104330
108804
108521
104876
105013
108593
107265
107640
105180
106070
108247
107610
105575
106020
108261
107889
105626
106205
108363
108110
105822
106280
108620
108494
105868
106536
108960
108991
106167
106499
109669
109843
105796
107323
110151
110660
106985
106032
112026
112592
103709
109218
110830
111956
107032
97079.8
91836.8
142348
124118
142426
156222
91316.6
93324.6
121990
100018
91764.7
127190
112944
114423
115954
110252
108716
101167
102727
105243
106417
140994
95885.2
107251
108293
108497
105235
104348
108792
108516
104888
105027
108580
107267
107640
105187
106070
108239
107612
105579
106021
108254
107887
105630
106207
108357
108107
105825
106282
108614
108491
105871
106538
108955
108988
106170
106501
109662
109837
105804
107322
110144
110656
106986
106041
112010
112572
103739
109194
110821
111951
106992
97104.7
92216.3
142022
124172
142316
155751
91719.6
93552.3
121706
100072
92121
126850
112990
114419
115817
110299
108618
101248
102724
105228
106409
140963
95905.6
107266
108273
108484
105242
104363
108774
108504
104895
105037
108567
107267
107630
105195
106078
108230
107606
105584
106031
108247
107881
105636
106215
108352
108102
105830
106288
108611
108487
105876
106543
108951
108983
106173
106508
109658
109830
105812
107324
110141
110649
106984
106057
111999
112548
103769
109174
110820
111940
106943
97143.5
92630.3
141669
124246
142192
155257
92167.9
93802
121405
100117
92499.2
126484
113043
114417
115668
110337
108522
101337
102701
105200
106400
140930
95930
107284
108255
108476
105258
104385
108760
108497
104910
105054
108552
107270
107631
105206
106080
108222
107608
105589
106034
108240
107880
105642
106217
108345
108100
105835
106291
108604
108484
105881
106545
108945
108979
106178
106511
109650
109823
105822
107322
110132
110644
106986
106069
111981
112524
103806
109146
110809
111932
106897
97182.2
93068.2
141282
124327
142044
154710
92636.7
94063.7
121072
100156
92898.8
126103
113087
114408
115517
110376
108411
101425
102697
105183
106379
140893
95956.5
107301
108232
108461
105268
104402
108738
108482
104918
105066
108534
107268
107617
105213
106087
108209
107597
105593
106043
108229
107869
105647
106225
108337
108091
105840
106297
108597
108476
105885
106550
108939
108971
106180
106517
109643
109811
105828
107323
110126
110632
106981
106085
111964
112491
103836
109117
110802
111913
106832
97231.7
93537.1
140873
124439
141897
154150
93162.8
94363.3
120739
100239
93329.4
125707
113152
114405
115356
110422
108314
101525
102692
105176
106367
140850
95984.8
107319
108211
108452
105289
104431
108726
108478
104944
105095
108526
107277
107629
105239
106102
108206
107614
105615
106061
108229
107881
105670
106241
108338
108101
105861
106314
108600
108486
105907
106567
108944
108982
106203
106539
109650
109820
105862
107343
110137
110647
107013
106129
111972
112492
103925
109131
110832
111948
106846
97360.9
94108.8
140367
124441
141597
153427
93594.9
94533.5
120237
100265
93687.1
125180
113092
114343
115142
110354
108108
101567
102644
105099
106259
140811
96021.5
107341
108185
108435
105301
104450
108697
108459
104950
105103
108494
107273
107612
105238
106092
108187
107601
105609
106052
108209
107865
105665
106231
108318
108085
105855
106304
108578
108468
105899
106554
108921
108962
106193
106525
109621
109794
105854
107318
110103
110617
106986
106114
111916
112430
103929
109049
110772
111887
106721
97355.4
94557
139963
124687
141447
152874
94282.6
94971.4
119970
100376
94236.9
124855
113239
114389
115026
110465
108128
101716
102737
105173
106287
140764
96059.3
107363
108157
108417
105317
104475
108672
108441
104964
105122
108473
107272
107599
105253
106104
108172
107592
105618
106067
108197
107854
105675
106244
108308
108076
105864
106316
108571
108460
105908
106566
108916
108953
106200
106538
109616
109781
105868
107326
110100
110606
106986
106142
111902
112393
103978
109026
110773
111869
106659
97453.7
95129.1
139435
124813
141170
152170
94880.7
95284.4
119538
100470
94699.6
124377
113280
114374
114834
110489
108009
101813
102718
105136
106246
140713
96101.9
107386
108129
108401
105338
104506
108649
108428
104987
105147
108451
107277
107598
105270
106110
108160
107595
105630
106074
108186
107854
105688
106249
108298
108074
105875
106320
108560
108457
105919
106568
108904
108949
106209
106543
109601
109772
105887
107324
110084
110598
106991
106159
111870
112357
104037
108985
110752
111854
106600
97542.1
95709.3
138896
124969
140850
151419
95517.9
95630.1
119087
100561
95193.8
123911
113311
114346
114659
110528
107882
101914
102716
105131
106195
140656
96149
107409
108098
108379
105357
104535
108618
108406
105003
105167
108424
107274
107580
105283
106119
108139
107580
105637
106086
108168
107837
105696
106259
108283
108058
105881
106329
108548
108442
105923
106576
108894
108934
106211
106552
109589
109752
105895
107325
110073
110577
106981
106183
111844
112303
104077
108945
110739
111815
106510
97648.1
96320.1
138321
125147
140524
150665
96208.1
96022.2
118663
100679
95709.6
123436
113377
114331
114465
110578
107885
102034
102712
105106
106172
140590
96197.3
107430
108065
108359
105383
104571
108593
108392
105033
105201
108404
107282
107587
105315
106136
108130
107595
105666
106109
108163
107849
105728
106282
108282
108071
105913
106354
108550
108456
105958
106602
108899
108950
106250
106586
109596
109765
105950
107358
110086
110598
107035
106251
111852
112304
104213
108972
110778
111861
106554
97877.4
97058.3
137672
125202
140001
149722
96782.2
96246.3
118020
100739
96124.1
122797
113253
114205
114201
110436
107633
102055
102646
104995
106004
140531
96260.9
107460
108031
108335
105405
104604
108557
108367
105050
105222
108366
107280
107568
105324
106132
108105
107579
105665
106104
108138
107829
105726
106272
108255
108051
105908
106341
108520
108433
105951
106584
108865
108923
106237
106565
109553
109728
105939
107320
110034
110555
106996
106224
111765
112214
104215
108852
110684
111769
106387
97896.3
97606.1
137092
125529
139672
148971
97645.9
96824.2
117694
100940
96767.7
122450
113415
114228
114089
110565
107687
102236
102779
105116
106047
140460
96324.9
107486
107993
108308
105431
104640
108521
108341
105073
105250
108334
107277
107551
105343
106144
108082
107565
105678
106120
108118
107811
105740
106287
108238
108032
105920
106355
108505
108415
105960
106597
108853
108904
106243
106581
109539
109703
105953
107328
110023
110529
106989
106259
111737
112151
104271
108814
110671
111723
106299
98061.2
98301.6
136396
125727
139191
148087
98395.1
97262.4
117209
101093
97297.9
121922
113449
114180
113869
110582
107701
102347
102774
105091
106012
140376
96389.3
107508
107953
108280
105461
104683
108487
108319
105107
105288
108307
107284
107551
105378
106163
108068
107575
105710
106145
108109
107821
105776
106312
108233
108045
105958
106383
108505
108430
106002
106627
108856
108921
106291
106621
109544
109719
106022
107368
110036
110553
107058
106342
111743
112152
104437
108851
110715
111774
106371
98365.9
99128.7
135657
125817
138512
147019
99025.7
97530.7
116509
101168
97724.7
121241
113277
114014
113567
110391
107427
102353
102693
104960
105815
140302
96473.2
107541
107914
108250
105490
104724
108445
108290
105132
105316
108264
107281
107531
105393
106163
108039
107558
105714
106143
108079
107799
105778
106304
108202
108021
105955
106370
108470
108403
105995
106608
108815
108890
106277
106597
109492
109675
106010
107323
109972
110500
107012
106306
111636
112044
104438
108705
110596
111659
106185
98409.8
99719.4
134963
126191
138036
146164
99946
98195
116180
101455
98405.8
120907
113442
114028
113450
110529
107491
102545
102845
105111
105868
140215
96556.6
107569
107871
108217
105521
104768
108403
108259
105161
105350
108226
107279
107513
105419
106177
108012
107542
105732
106163
108056
107778
105797
106323
108183
108000
105972
106390
108453
108383
106011
106627
108801
108868
106289
106622
109478
109647
106032
107339
109962
110471
107012
106356
111606
111973
104513
108677
110587
111606
106115
98653.1
100490
134153
126397
137385
145165
100706
98658.1
115665
101670
98919.6
120338
113443
113943
113174
110434
107506
102638
102834
105070
105816
140121
96647.5
107598
107826
108183
105557
104818
108360
108229
105197
105390
108187
107282
107502
105451
106191
107989
107538
105757
106179
108035
107773
105823
106336
108164
107996
105996
106401
108433
108379
106035
106636
108781
108863
106314
106633
109451
109634
106071
107340
109932
110458
107034
106386
111549
111918
104617
108622
110542
111576
106080
98878.9
101239
133365
126625
136659
144100
101487
99159.2
115121
101869
99468.9
119827
113402
113827
112933
110449
107384
102726
102863
105052
105732
140022
96745.4
107626
107779
108144
105593
104868
108312
108194
105230
105428
108144
107278
107481
105478
106205
107956
107518
105776
106197
108005
107747
105841
106351
108137
107970
106010
106416
108409
108351
106046
106648
108757
108833
106319
106648
109424
109593
106082
107343
109906
110412
107016
106417
111495
111819
104670
108562
110502
111484
105975
99119
101985
132516
126829
135963
143079
102293
99704.6
114686
102178
100017
119321
113431
113754
112670
110474
107435
102861
102888
105049
105717
139903
96840.6
107646
107727
108103
105630
104921
108264
108159
105271
105473
108103
107280
107472
105519
106225
107932
107520
105813
106224
107987
107749
105885
106380
108124
107977
106057
106448
108401
108363
106100
106686
108755
108849
106383
106699
109425
109609
106173
107398
109917
110439
107112
106527
111496
111823
104888
108623
110552
111546
106124
99570.9
102892
131710
126887
135059
141841
102935
100023
113953
102269
100410
118598
113149
113482
112293
110187
107123
102797
102768
104863
105446
139804
96964.9
107685
107682
108063
105672
104977
108213
108121
105308
105514
108053
107277
107449
105546
106234
107898
107499
105829
106231
107952
107723
105898
106378
108088
107949
106062
106440
108360
108331
106097
106668
108706
108810
106371
106673
109360
109554
106161
107344
109836
110370
107059
106481
111360
111685
104885
108445
110395
111393
105928
99669
103481
130906
127142
134366
140815
103859
100779
113670
102679
101097
118331
113296
113463
112166
110340
107241
103012
102955
105075
105533
139686
97084.7
107713
107630
108017
105715
105035
108159
108079
105348
105559
108005
107273
107427
105581
106251
107862
107479
105855
106252
107920
107698
105924
106397
108058
107924
106084
106459
108333
108304
106116
106687
108680
108780
106385
106696
109332
109513
106184
107355
109809
110322
107055
106525
111300
111582
104961
108395
110352
111295
105866
99987.2
104230
130029
127188
133577
139692
104614
101326
113242
103015
101603
117815
113259
113344
111879
110244
107282
103109
102974
105054
105491
139546
97198.4
107729
107572
107966
105758
105095
108102
108038
105394
105609
107957
107273
107413
105626
106274
107833
107474
105896
106280
107897
107695
105970
106427
108041
107927
106134
106493
108321
108313
106174
106728
108674
108793
106456
106751
109329
109527
106286
107416
109817
110349
107162
106644
111297
111585
105199
108467
110403
111363
106062
100516
105134
129288
127083
132669
138378
105222
101664
112553
103129
101945
117112
112924
113009
111471
109919
106961
102997
102833
104836
105184
139432
97346.7
107769
107525
107920
105808
105161
108046
107993
105438
105658
107903
107268
107388
105660
106286
107794
107451
105918
106292
107858
107666
105989
106429
108001
107898
106144
106487
108276
108279
106176
106713
108620
108751
106447
106726
109258
109467
106275
107360
109727
110271
107106
106594
111147
111433
105196
108281
110230
111192
105887
100660
105688
128509
127053
131979
137241
106081
102427
112337
103576
102607
116895
113054
112958
111347
110073
107102
103210
103043
105069
105287
139294
97489.5
107796
107468
107866
105857
105227
107984
107945
105485
105709
107849
107262
107363
105701
106306
107754
107428
105950
106315
107822
107639
106020
106450
107967
107871
106169
106508
108246
108250
106199
106733
108590
108718
106466
106749
109224
109422
106303
107371
109692
110217
107105
106639
111075
111322
105278
108228
110175
111085
105857
101033
106404
127670
126783
131278
135992
106763
102985
111984
103939
103069
116416
112990
112783
111039
109916
107163
103278
103065
105057
105248
139131
97621.4
107807
107403
107806
105905
105293
107920
107896
105536
105764
107795
107258
107345
105751
106332
107719
107417
105994
106346
107793
107630
106071
106482
107945
107871
106223
106545
108230
108255
106262
106778
108579
108728
106543
106810
109218
109434
106414
107439
109698
110242
107223
106769
111068
111322
105533
108313
110227
111153
106104
101635
107281
127116
126357
130557
134574
107311
103323
111370
104069
103335
115735
112601
112390
110631
109776
106816
103127
102886
104805
104918
139004
97790.5
107848
107356
107753
105961
105367
107859
107846
105586
105818
107739
107251
107319
105790
106348
107677
107391
106022
106361
107752
107599
106093
106486
107902
107839
106234
106543
108181
108217
106266
106764
108520
108680
106535
106784
109140
109367
106402
107379
109599
110153
107161
106710
110902
111155
105519
108117
110037
110965
105955
101807
107754
126429
125926
130012
133331
108060
104073
111256
104523
103970
115587
112704
112289
110379
109730
107168
103340
103122
105069
105045
138857
97944.1
107870
107298
107695
106014
105436
107794
107794
105637
105873
107682
107243
107294
105835
106370
107636
107366
106057
106386
107715
107571
106128
106509
107868
107815
106262
106567
108150
108189
106295
106788
108490
108649
106562
106812
109107
109326
106439
107398
109567
110104
107173
106764
110835
111055
105613
108088
109994
110876
105986
102232
108388
125838
125306
129502
132059
108587
104555
110998
104851
104297
115137
112586
112022
110227
109322
106950
103374
103084
105023
105001
138707
98099.3
107891
107244
107636
106067
105508
107732
107742
105689
105928
107628
107235
107271
105881
106394
107597
107346
106096
106411
107679
107551
106167
106529
107835
107800
106295
106588
108118
108172
106332
106806
108456
108631
106599
106833
109067
109299
106491
107406
109522
110072
107206
106803
110752
110973
105733
108046
109931
110823
106078
102639
108963
125360
124643
128987
130768
109110
105026
110705
105126
104668
114765
112398
111729
109953
109464
106984
103408
103080
105011
104920
138560
98258.3
107911
107190
107577
106121
105578
107667
107689
105741
105983
107573
107224
107246
105925
106416
107555
107321
106131
106435
107641
107523
106200
106549
107800
107774
106320
106609
108083
108142
106358
106823
108421
108597
106621
106853
109026
109253
106520
107413
109478
110013
107206
106838
110669
110861
105806
107999
109868
110716
106110
103030
109472
124807
123906
128523
129575
109558
105484
110546
105455
104989
114409
112282
111471
109699
109331
107030
103466
103075
105011
104905
138408
98416
107929
107138
107518
106174
105649
107605
107637
105793
106038
107520
107215
107223
105972
106440
107516
107299
106170
106460
107605
107502
106238
106569
107767
107758
106352
106630
108051
108122
106394
106842
108388
108576
106656
106873
108987
109224
106569
107422
109435
109978
107236
106876
110588
110782
105917
107965
109810
110669
106223
103440
109963
124442
123174
128007
128382
109971
105897
110328
105691
105286
114065
112078
111162
109466
109242
107034
103484
103057
104996
104833
138262
98578.4
107947
107088
107459
106228
105720
107542
107584
105845
106092
107467
107203
107197
106016
106463
107475
107273
106205
106483
107567
107475
106270
106587
107732
107732
106375
106649
108015
108091
106418
106856
108351
108539
106674
106887
108941
109174
106591
107422
109383
109911
107227
106895
110493
110659
105968
107907
109734
110551
106257
103799
110358
123844
122405
127480
127288
110329
106313
110246
106019
105597
113779
111977
110931
109245
109213
107093
103564
103086
105031
104849
138093
98718.1
107943
107027
107393
106274
105783
107476
107530
105895
106144
107414
107191
107174
106062
106488
107436
107253
106247
106512
107535
107459
106315
106615
107707
107724
106421
106685
107996
108085
106475
106897
108337
108539
106743
106944
108932
109176
106688
107486
109386
109919
107332
107014
110483
110652
106186
108008
109789
110610
106557
104376
110891
123585
121734
126932
126211
110576
106531
109934
106086
105625
113258
111561
110489
108880
108876
106737
103378
102883
104759
104543
137963
98896.1
107973
106992
107341
106333
105858
107421
107479
105949
106200
107365
107179
107150
106105
106510
107396
107226
106279
106530
107495
107430
106339
106623
107667
107691
106432
106687
107949
108044
106480
106886
108281
108487
106731
106919
108857
109103
106667
107427
109288
109819
107262
106949
110322
110482
106142
107837
109614
110435
106488
104553
111079
123035
121067
126291
125225
110925
107027
110010
106451
106084
113213
111617
110380
108844
109048
106871
103578
103101
105043
104717
137816
99052.9
107981
106945
107282
106383
105925
107361
107426
106000
106251
107315
107165
107126
106149
106534
107356
107201
106314
106554
107458
107407
106370
106643
107636
107668
106460
106709
107919
108018
106509
106905
108251
108458
106758
106943
108822
109063
106702
107441
109250
109768
107276
106987
110249
110388
106218
107823
109573
110366
106599
104940
111389
122661
120478
125637
124314
111140
107313
109951
106675
106237
112907
111443
110109
108593
108930
106880
103591
103065
104993
104653
137668
99207.7
107987
106902
107225
106434
105991
107304
107375
106050
106303
107268
107151
107104
106192
106558
107318
107178
106351
106577
107424
107387
106402
106661
107606
107648
106489
106728
107887
107995
106540
106921
108218
108433
106786
106959
108783
109029
106739
107445
109205
109722
107295
107014
110168
110305
106302
107803
109525
110325
106744
105303
111649
122248
119976
124922
123425
111353
107600
109872
106852
106415
112651
111247
109850
108394
108845
106884
103615
103052
104979
104586
137526
99363.4
107992
106860
107168
106483
106056
107247
107323
106100
106352
107221
107136
107080
106234
106581
107279
107153
106385
106598
107388
107364
106430
106679
107575
107623
106514
106746
107855
107967
106564
106935
108186
108400
106805
106974
108743
108985
106763
107447
109159
109661
107294
107034
110084
110202
106353
107774
109472
110246
106842
105635
111843
121774
119481
124190
122602
111526
107874
109875
107064
106573
112416
111099
109615
108181
108760
106908
103643
103042
104971
104589
137382
99513.2
107994
106821
107113
106530
106119
107194
107273
106149
106401
107177
107121
107058
106276
106605
107243
107130
106420
106619
107355
107346
106458
106698
107547
107602
106542
106763
107826
107945
106593
106949
108154
108375
106830
106990
108705
108950
106796
107451
109115
109614
107311
107057
110005
110123
106430
107760
109430
110215
106997
105974
112026
121377
119073
123453
121803
111688
108122
109835
107206
106705
112183
110905
109364
107988
108661
106910
103657
103023
104945
104522
137247
99663
107995
106784
107059
106576
106180
107140
107224
106196
106448
107132
107105
107036
106316
106627
107206
107106
106452
106638
107322
107325
106483
106715
107517
107578
106565
106779
107795
107917
106615
106962
108122
108342
106847
107003
108665
108905
106817
107451
109069
109551
107309
107072
109922
110020
106476
107736
109382
110141
107105
106280
112155
120749
118693
122706
121060
111812
108359
109857
107385
106830
111965
110753
109147
107795
108567
106931
103688
103017
104930
104526
137109
99805.5
107992
106749
107007
106620
106240
107091
107176
106242
106494
107092
107089
107015
106355
106651
107171
107084
106486
106658
107292
107307
106508
106733
107490
107557
106591
106796
107767