/*--------------------------------*- C++ -*----------------------------------*\
| =========                 |                                                 |
| \\      /  F ield         | OpenFOAM: The Open Source CFD Toolbox           |
|  \\    /   O peration     | Version:  v2012                                 |
|   \\  /    A nd           | Website:  www.openfoam.com                      |
|    \\/     M anipulation  |                                                 |
\*---------------------------------------------------------------------------*/
FoamFile
{
    version     2.0;
    format      ascii;
    class       volScalarField;
    location    "1e-06";
    object      p_rgh;
}
// * * * * * * * * * * * * * * * * * * * * * * * * * * * * * * * * * * * * * //

dimensions      [1 -1 -2 0 0 0 0];


internalField   nonuniform List<scalar> 
10262
(
142709
97165
108530
109802
109908
106496
105534
110178
109831
106058
106152
109858
108426
108812
106258
107145
109373
108679
106588
107005
109295
108887
106554
107121
109314
109033
106681
107124
109495
109347
106660
107318
109766
109778
106899
107209
110414
110585
106442
107998
110837
111332
107618
106574
112703
113307
104100
109925
111404
112516
107820
97516
89473.2
145429
124861
143281
160181
88828.5
91947.7
124397
100765
89396.6
130665
113084
114781
117793
110088
109976
100795
103287
105586
106624
142763
97176.4
108540
109810
109912
106498
105536
110181
109833
106059
106153
109858
108428
108812
106259
107145
109373
108678
106588
107006
109296
108886
106555
107122
109314
109032
106681
107124
109495
109347
106660
107318
109766
109778
106899
107210
110415
110585
106442
108000
110839
111333
107619
106577
112706
113308
104101
109927
111408
112519
107824
97522.7
89488.2
144755
124024
142574
159900
88747.6
91942.4
124388
100766
89404.1
130290
112740
114295
117345
109877
109867
100797
103282
105601
106639
142747
97178.7
108542
109811
109914
106500
105538
110181
109833
106060
106154
109858
108428
108812
106260
107145
109373
108679
106589
107005
109296
108887
106555
107121
109314
109033
106682
107124
109495
109348
106661
107317
109765
109778
106900
107210
110415
110586
106444
108000
110838
111334
107621
106577
112706
113309
104104
109928
111409
112522
107829
97527.5
89507.5
145681
125007
143637
160247
88863.7
91935.7
124370
100676
89418.5
130721
113213
114982
117842
110166
109974
100784
103277
105599
106626
142744
97184
108546
109811
109913
106500
105539
110181
109833
106060
106155
109857
108428
108813
106260
107145
109373
108680
106589
107006
109295
108887
106555
107121
109314
109033
106682
107124
109495
109348
106661
107317
109766
109778
106900
107210
110415
110586
106444
108000
110838
111335
107622
106578
112706
113309
104106
109926
111409
112523
107827
97527.3
89533
144860
124208
142885
159947
88902.1
91981.6
124352
100627
89445.4
130365
112869
114504
117417
109912
109948
100818
103277
105615
106628
142715
97172.4
108534
109801
109907
106497
105536
110177
109830
106058
106153
109855
108427
108810
106259
107144
109372
108678
106588
107005
109294
108886
106555
107120
109313
109032
106682
107123
109493
109346
106661
107316
109764
109777
106899
107209
110413
110584
106443
107997
110836
111332
107619
106576
112702
113305
104103
109920
111404
112518
107820
97522.3
89562.3
145369
124598
143423
160086
88891.1
92057.7
124363
100639
89493.5
130434
113016
114739
117561
110094
109926
100837
103277
105637
106638
142720
97187.6
108550
109808
109914
106503
105543
110180
109833
106062
106157
109858
108428
108811
106261
107147
109372
108679
106590
107007
109295
108887
106556
107122
109313
109033
106683
107125
109494
109348
106662
107318
109765
109778
106901
107211
110415
110586
106446
108000
110839
111335
107623
106581
112706
113308
104112
109924
111410
112526
107827
97532.3
89625.2
145062
124396
143273
159891
88942
92038.8
124293
100515
89535.8
130301
112954
114673
117461
110036
109880
100843
103263
105635
106635
142713
97191.7
108552
109806
109912
106503
105544
110178
109831
106062
106158
109855
108428
108811
106262
107146
109371
108679
106590
107007
109294
108887
106557
107122
109313
109032
106684
107125
109494
109347
106663
107318
109765
109778
106901
107211
110414
110585
106447
108000
110838
111335
107623
106582
112704
113305
104115
109920
111409
112526
107823
97531.2
89688.2
145075
124424
143391
159825
89052
92111.7
124262
100519
89604.6
130230
112972
114700
117437
110072
109849
100865
103252
105654
106640
142696
97193.4
108554
109803
109912
106505
105547
110177
109830
106064
106160
109855
108428
108810
106263
107148
109370
108678
106591
107008
109293
108886
106558
107123
109312
109032
106684
107125
109493
109347
106663
107318
109765
109778
106902
107212
110414
110585
106448
108000
110838
111335
107624
106584
112703
113303
104120
109917
111409
112527
107819
97530.3
89769.4
145011
124430
143390
159742
89078.1
92175.8
124213
100487
89685.1
130137
112987
114720
117402
110137
109820
100890
103238
105653
106647
142692
97201.8
108561
109801
109911
106507
105551
110174
109829
106065
106163
109851
108428
108811
106264
107147
109369
108679
106591
107008
109292
108886
106559
107123
109312
109032
106685
107126
109493
109347
106664
107319
109764
109778
106902
107212
110413
110584
106449
108000
110837
111335
107624
106587
112701
113300
104126
109913
111408
112528
107813
97528.8
89864.7
144895
124408
143351
159611
89174.1
92239.9
124148
100485
89780.1
130024
112997
114715
117339
110138
109791
100920
103222
105670
106654
142670
97195.2
108553
109784
109899
106500
105546
110164
109822
106062
106160
109846
108427
108804
106262
107147
109366
108675
106590
107008
109289
108883
106558
107122
109309
109029
106684
107125
109490
109344
106663
107317
109761
109774
106900
107211
110410
110579
106447
107996
110832
111329
107619
106584
112693
113289
104123
109899
111399
112516
107790
97515.2
89959.8
144903
124512
143533
159580
89297.8
92373.1
124124
100520
89914.1
129934
113053
114765
117331
110174
109760
100974
103221
105701
106682
142663
97210.5
108568
109790
109908
106512
105560
110169
109826
106070
106169
109850
108430
108806
106268
107152
109366
108676
106594
107012
109290
108884
106561
107126
109310
109030
106687
107128
109492
109345
106666
107321
109763
109777
106904
107215
110413
110582
106453
108000
110837
111334
107625
106594
112698
113293
104141
109904
111410
112530
107796
97533.6
90116.1
144690
124407
143445
159341
89434.4
92369.9
123985
100373
90023.7
129749
113032
114747
117236
110211
109686
100990
103197
105685
106678
142653
97219.5
108576
109786
109906
106515
105565
110164
109824
106072
106172
109844
108429
108806
106269
107151
109364
108677
106594
107013
109288
108883
106562
107126
109308
109029
106688
107129
109490
109344
106667
107321
109762
109776
106905
107216
110412
110581
106455
108000
110835
111333
107625
106597
112694
113287
104151
109896
111408
112530
107784
97531.3
90269.1
144583
124419
143403
159161
89645.8
92487.6
123893
100374
90177.3
129593
113056
114751
117170
110252
109632
101030
103182
105685
106691
142635
97224.1
108579
109776
109902
106518
105571
110159
109821
106075
106177
109842
108430
108803
106272
107155
109361
108675
106596
107016
109286
108882
106564
107129
109307
109028
106690
107131
109489
109343
106668
107323
109761
109775
106906
107218
110411
110579
106457
108001
110835
111332
107625
106602
112691
113281
104162
109889
111409
112529
107768
97531.4
90444.4
144441
124431
143349
158966
89758.1
92602.8
123778
100375
90349
129415
113084
114766
117096
110295
109578
101077
103164
105676
106706
142622
97235.9
108590
109772
109901
106523
105579
110153
109818
106079
106181
109835
108430
108803
106275
107154
109358
108676
106598
107016
109283
108881
106566
107129
109305
109027
106691
107132
109487
109342
106670
107324
109759
109774
106907
107219
110409
110576
106460
108001
110833
111330
107625
106607
112686
113273
104174
109879
111406
112529
107751
97530.4
90640.6
144274
124435
143311
158733
89959.8
92724.3
123645
100378
90543
129218
113112
114765
117013
110340
109516
101126
103147
105661
106718
142603
97242.9
108595
109760
109895
106526
105586
110145
109813
106083
106188
109832
108431
108799
106279
107159
109354
108674
106600
107020
109281
108879
106569
107132
109303
109025
106694
107134
109486
109340
106671
107326
109758
109772
106909
107222
110408
110574
106464
108002
110832
111328
107624
106614
112681
113263
104189
109869
111407
112527
107730
97536.9
90862.3
144095
124453
143286
158481
90204.5
92864.9
123496
100390
90758.4
129000
113146
114766
116922
110385
109458
101183
103132
105648
106733
142586
97256.3
108608
109754
109894
106534
105597
110138
109810
106089
106194
109822
108431
108799
106282
107158
109350
108675
106602
107021
109277
108878
106571
107134
109300
109023
106696
107136
109483
109338
106674
107327
109756
109770
106911
107224
110405
110570
106468
108002
110829
111326
107624
106620
112674
113253
104206
109856
111404
112525
107706
97542.3
91106.3
143888
124466
143229
158184
90390.3
93014.3
123324
100402
90997
128764
113180
114765
116823
110432
109356
101241
103117
105636
106743
142565
97266.3
108615
109739
109885
106536
105604
110127
109803
106092
106200
109816
108432
108793
106286
107164
109345
108670
106604
107026
109273
108874
106574
107137
109297
109021
106698
107139
109481
109336
106676
107330
109754
109768
106912
107227
110403
110565
106471
108002
110827
111322
107623
106628
112666
113238
104222
109842
111401
112519
107675
97551
91375.7
143677
124503
143162
157905
90761.4
93174.4
123143
100445
91264.6
128510
113225
114790
116715
110501
109357
101297
103102
105624
106756
142543
97281.7
108630
109734
109889
106555
105627
110128
109808
106111
106220
109816
108438
108803
106301
107172
109343
108681
106615
107035
109274
108880
106584
107144
109298
109025
106707
107147
109483
109340
106685
107338
109757
109773
106922
107236
110407
110570
106486
108011
110833
111330
107637
106649
112671
113240
104265
109848
111419
112542
107675
97598
91714.4
143351
124437
143042
157415
91056.7
93301
122850
100357
91499.4
128172
113207
114770
116571
110504
109265
101355
103066
105584
106725
142522
97295.6
108641
109716
109876
106553
105630
110106
109793
106107
106218
109793
108433
108792
106296
107163
109333
108674
106609
107029
109263
108872
106581
107140
109288
109017
106704
107142
109473
109331
106681
107332
109746
109763
106917
107231
110394
110557
106482
108000
110817
111316
107624
106643
112645
113208
104267
109807
111391
112511
107607
97578.2
91994.2
143164
124575
143016
157132
91395.7
93568.2
122703
100423
91863.4
127937
113310
114825
116481
110602
109175
101456
103105
105616
106762
142495
97311.3
108653
109698
109866
106560
105643
110092
109784
106115
106229
109785
108434
108786
106304
107172
109327
108670
106614
107038
109259
108868
106586
107146
109285
109014
106708
107148
109471
109328
106685
107337
109745
109760
106920
107237
110392
110552
106490
108003
110816
111312
107624
106657
112638
113191
104295
109792
111392
112507
107571
97607
92352.7
142853
124612
142910
156696
91780.2
93778.3
122434
100453
92189.9
127606
113351
114822
116344
110633
109089
101533
103084
105592
106759
142468
97331.2
108669
109685
109862
106574
105662
110081
109779
106127
106242
109772
108436
108786
106311
107172
109320
108672
106617
107040
109253
108866
106590
107148
109279
109011
106711
107150
109466
109325
106689
107339
109739
109757
106923
107240
110386
110546
106498
108001
110810
111307
107624
106667
112623
113171
104325
109769
111384
112501
107531
97631.9
92732.1
142526
124667
142800
156225
92183.2
94006.1
122150
100507
92546.2
127266
113397
114818
116207
110680
108991
101613
103081
105578
106751
142437
97351.6
108684
109664
109848
106581
105676
110062
109767
106134
106253
109759
108435
108776
106319
107180
109311
108665
106622
107050
109246
108860
106596
107155
109274
109006
106716
107156
109462
109321
106693
107344
109736
109752
106927
107246
110381
110538
106505
108004
110806
111301
107623
106682
112612
113147
104356
109748
111382
112490
107482
97670.7
93146.2
142174
124740
142676
155731
92631.5
94255.7
121849
100552
92924.4
126900
113450
114815
116058
110719
108895
101702
103059
105550
106742
142404
97376
108702
109647
109841
106597
105698
110049
109760
106149
106269
109744
108439
108777
106330
107182
109303
108668
106628
107052
109238
108859
106601
107158
109267
109004
106721
107159
109455
109318
106698
107346
109729
109748
106931
107249
110373
110531
106515
108002
110798
111296
107625
106694
112593
113123
104393
109720
111371
112483
107435
97709.4
93584.1
141787
124821
142528
155183
93100.3
94517.5
121516
100590
93324
126519
113495
114807
115908
110758
108785
101790
103054
105533
106721
142367
97402.6
108720
109623
109826
106607
105715
110026
109745
106157
106281
109726
108437
108763
106337
107189
109290
108657
106632
107062
109228
108848
106607
107165
109259
108995
106726
107166
109448
109310
106702
107351
109724
109740
106933
107255
110366
110519
106522
108003
110792
111284
107619
106710
112577
113091
104423
109692
111365
112463
107370
97758.9
94053
141378
124934
142381
154624
93626.4
94817
121183
100674
93754.6
126123
113560
114803
115746
110804
108688
101890
103049
105525
106709
142324
97430.8
108737
109602
109817
106628
105744
110015
109741
106183
106310
109718
108446
108775
106363
107204
109286
108674
106654
107080
109228
108860
106630
107182
109260
109005
106747
107183
109451
109320
106724
107368
109729
109751
106957
107277
110373
110528
106556
108023
110802
111299
107651
106754
112584
113091
104512
109706
111395
112498
107385
97888.1
94624.7
140872
124935
142081
153900
94058.5
94987.3
120681
100700
94112.3
125597
113499
114742
115532
110735
108482
101932
103001
105448
106601
142285
97467.5
108760
109577
109800
106639
105764
109985
109722
106189
106319
109686
108442
108758
106362
107194
109267
108661
106648
107071
109208
108844
106624
107172
109240
108989
106741
107172
109429
109302
106717
107355
109706
109731
106946
107263
110344
110502
106548
107998
110769
111269
107624
106739
112528
113029
104516
109624
111335
112438
107260
97882.6
95073
140468
125182
141931
153347
94746.3
95425.2
120414
100810
94662.1
125271
113646
114788
115416
110847
108501
102081
103094
105523
106629
142238
97505.3
108781
109549
109782
106656
105788
109960
109705
106203
106337
109665
108441
108746
106376
107206
109252
108652
106657
107085
109196
108833
106635
107185
109231
108980
106750
107184
109422
109294
106725
107366
109701
109722
106953
107276
110339
110490
106562
108006
110766
111258
107624
106768
112514
112992
104565
109601
111336
112419
107197
97980.9
95645
139940
125307
141654
152643
95344.4
95738.1
119982
100904
95124.8
124793
113687
114773
115225
110871
108382
102179
103076
105486
106588
142187
97547.9
108804
109521
109766
106677
105819
109937
109691
106226
106363
109643
108446
108744
106394
107212
109241
108655
106669
107093
109185
108833
106647
107190
109220
108978
106761
107189
109411
109291
106736
107369
109689
109718
106963
107281
110324
110480
106581
108003
110750
111250
107630
106784
112482
112956
104624
109560
111314
112404
107139
98069.4
96225.2
139401
125463
141334
151893
95981.5
96083.9
119531
100995
95619
124327
113718
114745
115049
110909
108255
102280
103074
105481
106537
142130
97595
108828
109489
109744
106696
105848
109906
109670
106242
106383
109616
108442
108727
106407
107221
109220
108639
106676
107105
109167
108816
106655
107200
109205
108962
106767
107198
109399
109276
106741
107377
109679
109703
106965
107291
110312
110460
106589
108005
110739
111229
107619
106808
112456
112902
104664
109519
111301
112366
107049
98175.3
96836.1
138826
125641
141008
151138
96671.8
96476
119107
101114
96134.8
123852
113784
114730
114855
110959
108259
102399
103069
105455
106514
142064
97643.3
108849
109456
109723
106722
105884
109881
109655
106272
106417
109596
108450
108733
106439
107238
109210
108654
106705
107127
109162
108828
106687
107223
109205
108975
106799
107222
109401
109290
106776
107403
109684
109719
107003
107324
110319
110474
106644
108038
110752
111250
107673
106877
112464
112904
104800
109547
111341
112411
107093
98404.6
97574.2
138177
125696
140485
150196
97245.9
96700.1
118465
101174
96549.3
123213
113660
114604
114591
110817
108007
102421
103004
105344
106346
142005
97706.9
108879
109422
109700
106744
105917
109845
109630
106289
106438
109558
108448
108714
106448
107234
109186
108639
106704
107122
109137
108808
106686
107213
109177
108955
106795
107210
109371
109267
106768
107385
109650
109692
106990
107303
110276
110436
106633
108000
110700
111207
107634
106849
112378
112814
104802
109426
111246
112320
106925
98423.6
98122
137597
126024
140156
149444
98109.6
97278
118138
101375
97193
122866
113822
114627
114479
110946
108061
102602
103137
105465
106389
141934
97770.9
108905
109385
109673
106770
105954
109809
109604
106312
106465
109526
108446
108697
106467
107246
109162
108624
106717
107138
109116
108790
106699
107228
109160
108936
106806
107224
109356
109249
106777
107398
109637
109673
106996
107319
110262
110412
106647
108008
110689
111181
107627
106884
112349
112750
104858
109388
111234
112273
106838
98588.4
98817.6
136901
126221
139675
148561
98858.8
97716.3
117653
101527
97723.2
122338
113857
114579
114259
110964
108075
102713
103132
105441
106354
141850
97835.3
108926
109345
109645
106800
105996
109775
109583
106346
106503
109499
108453
108697
106502
107265
109149
108634
106749
107163
109107
108800
106736
107253
109156
108949
106844
107251
109356
109264
106819
107428
109641
109690
107044
107359
110267
110427
106716
108048
110702
111205
107696
106967
112355
112752
105024
109425
111277
112325
106910
98893.2
99644.7
136162
126311
138996
147493
99489.4
97984.5
116953
101602
98150
121657
113685
114413
113957
110772
107801
102719
103050
105310
106157
141776
97919.2
108960
109306
109615
106829
106037
109734
109554
106371
106531
109456
108450
108677
106517
107265
109120
108617
106753
107161
109078
108778
106738
107245
109125
108925
106841
107239
109321
109237
106813
107409
109600
109659
107030
107335
110215
110383
106704
108003
110638
111152
107651
106932
112248
112644
105024
109280
111158
112210
106723
98937.1
100235
135468
126685
138520
146638
100410
98648.9
116624
101889
98831.1
121323
113849
114426
113840
110911
107865
102910
103203
105461
106210
141689
98002.7
108987
109262
109582
106860
106082
109691
109522
106400
106566
109418
108448
108659
106543
107279
109093
108601
106771
107181
109054
108757
106757
107264
109105
108904
106858
107258
109304
109217
106828
107428
109586
109637
107043
107360
110201
110355
106726
108019
110627
111123
107650
106981
112219
112572
105100
109251
111149
112157
106653
99180.4
101006
134658
126891
137869
145639
101169
99111.9
116109
102104
99344.9
120754
113851
114341
113564
110816
107879
103004
103191
105420
106158
141595
98093.5
109016
109218
109548
106896
106131
109648
109492
106436
106605
109379
108451
108648
106575
107293
109070
108598
106796
107198
109034
108752
106783
107277
109086
108900
106882
107270
109285
109213
106853
107437
109566
109632
107068
107371
110174
110343
106765
108020
110598
111110
107673
107011
112161
112517
105204
109197
111104
112127
106619
99406.3
101755
133870
127119
137143
144574
101951
99613
115565
102304
99894.2
120243
113810
114226
113323
110831
107757
103091
103221
105402
106074
141496
98191.4
109045
109171
109509
106931
106181
109601
109457
106469
106643
109336
108446
108627
106602
107307
109037
108578
106815
107215
109004
108726
106801
107292
109059
108874
106896
107284
109260
109186
106863
107449
109542
109602
107073
107386
110147
110302
106776
108022
110572
111064
107655
107043
112107
112419
105257
109136
111064
112035
106514
99646.3
102501
133021
127324
136447
143553
102757
100158
115130
102613
100442
119737
113838
114153
113060
110856
107809
103226
103246
105398
106059
141377
98286.6
109064
109119
109468
106969
106234
109552
109423
106510
106689
109295
108449
108618
106643
107327
109013
108579
106852
107242
108986
108728
106845
107320
109047
108881
106943
107317
109253
109197
106917
107487
109540
109618
107136
107437
110148
110317
106867
108077
110583
111091
107751
107152
112108
112422
105475
109197
111115
112097
106663
100098
103408
132216
127382
135543
142315
103399
100477
114397
102703
100836
119014
113557
113881
112684
110568
107497
103162
103126
105213
105788
141278
98410.9
109103
109074
109427
107011
106291
109501
109384
106547
106730
109245
108446
108595
106670
107336
108979
108559
106868
107249
108951
108702
106857
107319
109010
108853
106948
107308
109211
109166
106915
107469
109491
109579
107125
107412
110083
110263
106855
108024
110502
111022
107697
107106
111972
112284
105472
109020
110957
111944
106467
100196
103997
131411
127636
134850
141289
104323
101233
114115
103113
101522
118748
113704
113862
112556
110722
107614
103377
103313
105424
105875
141160
98530.8
109131
109022
109382
107054
106349
109447
109343
106587
106774
109196
108442
108573
106705
107353
108942
108539
106894
107270
108918
108677
106883
107338
108981
108828
106970
107327
109184
109139
106933
107488
109465
109549
107139
107434
110055
110221
106878
108035
110474
110974
107693
107150
111913
112182
105548
108970
110915
111846
106405
100515
104746
130534
127682
134061
140166
105077
101780
113687
103450
102029
118232
113666
113742
112269
110626
107655
103475
103332
105404
105833
141020
98644.4
109147
108963
109331
107097
106408
109391
109301
106633
106825
109149
108442
108559
106750
107376
108913
108534
106935
107299
108895
108674
106930
107368
108963
108831
107020
107361
109173
109147
106992
107529
109459
109562
107209
107489
110052
110236
106980
108096
110483
111001
107800
107269
111909
112185
105786
109041
110965
111913
106601
101044
105650
129793
127578
133153
138851
105685
102118
112997
103564
102370
117528
113331
113407
111861
110301
107335
103362
103191
105186
105526
140906
98792.7
109188
108916
109285
107146
106474
109334
109257
106677
106873
109095
108437
108535
106784
107389
108875
108511
106957
107310
108857
108645
106949
107370
108923
108802
107030
107356
109128
109113
106994
107514
109404
109520
107201
107464
109981
110175
106969
108040
110393
110923
107745
107219
111759
112032
105783
108855
110792
111743
106426
101187
106204
129014
127548
132463
137714
106545
102881
112781
104011
103032
117312
113461
113356
111737
110455
107476
103575
103401
105418
105630
140768
98935.5
109214
108859
109231
107196
106540
109272
109208
106724
106924
109041
108431
108510
106825
107409
108835
108488
106989
107334
108820
108618
106980
107391
108890
108775
107056
107376
109097
109084
107016
107534
109375
109487
107220
107488
109947
110131
106997
108051
110358
110869
107744
107264
111687
111921
105865
108803
110737
111635
106396
101560
106920
128175
127278
131762
136466
107227
103439
112429
104374
103495
116833
113397
113182
111429
110298
107536
103644
103422
105407
105590
140605
99067.5
109225
108795
109171
107244
106606
109208
109159
106775
106979
108987
108427
108491
106875
107434
108800
108477
107034
107365
108792
108609
107031
107422
108868
108775
107109
107414
109081
109089
107080
107579
109364
109497
107297
107548
109941
110143
107108
108119
110364
110894
107862
107394
111681
111921
106120
108888
110790
111703
106643
102163
107797
127622
126852
131041
135048
107775
103777
111815
104503
103760
116151
113009
112789
111021
110158
107190
103493
103244
105155
105260
140478
99236.5
109266
108747
109118
107300
106680
109147
109109
106825
107034
108930
108420
108465
106914
107450
108758
108451
107061
107379
108750
108578
107053
107427
108824
108743
107120
107411
109032
109051
107084
107565
109305
109449
107288
107522
109863
110076
107096
108059
110265
110805
107800
107335
111514
111755
106106
108692
110600
111516
106494
102335
108270
126934
126420
130496
133805
108524
104527
111700
104957
104395
116003
113112
112687
110769
110112
107541
103706
103479
105419
105387
140331
99390.2
109289
108690
109060
107353
106750
109082
109057
106876
107088
108874
108411
108440
106959
107473
108717
108426
107096
107405
108713
108551
107088
107450
108790
108719
107148
107436
109001
109023
107113
107589
109275
109419
107315
107551
109831
110035
107133
108078
110233
110757
107812
107389
111448
111654
106200
108662
110557
111426
106525
102759
108904
126343
125801
129986
132533
109051
105009
111442
105286
104723
115554
112993
112421
110618
109704
107323
103739
103442
105372
105344
140181
99545.3
109310
108636
109001
107406
106821
109020
109006
106928
107144
108820
108404
108418
107005
107496
108678
108406
107135
107430
108678
108530
107127
107470
108757
108704
107181
107456
108969
109006
107150
107607
109241
109400
107353
107571
109790
110008
107185
108086
110188
110724
107844
107428
111364
111573
106320
108621
110493
111374
106617
103167
109480
125865
125138
129471
131242
109574
105480
111149
105560
105094
115181
112806
112128
110343
109846
107358
103773
103438
105360
105263
140034
99704.3
109330
108581
108942
107460
106891
108955
108953
106980
107198
108765
108393
108392
107049
107518
108636
108380
107170
107454
108640
108503
107160
107490
108722
108678
107206
107477
108935
108976
107176
107625
109207
109366
107375
107591
109750
109962
107214
108093
110144
110666
107844
107463
111281
111460
106393
108574
110430
111267
106649
103558
109988
125312
124400
129008
130049
110022
105938
110990
105890
105414
114826
112690
111870
110089
109713
107404
103831
103432
105361
105247
139882
99862.1
109348
108530
108883
107513
106962
108893
108901
107032
107254
108712
108384
108369
107096
107542
108597
108359
107209
107479
108604
108481
107198
107510
108690
108662
107238
107499
108903
108957
107211
107643
109173
109345
107410
107612
109710
109933
107263
108102
110101
110630
107875
107501
111201
111381
106504
108540
110373
111220
106762
103968
110479
124947
123669
128491
128856
110435
106351
110772
106126
105711
114482
112486
111561
109856
109624
107407
103850
103415
105346
105175
139736
100024
109366
108479
108824
107567
107033
108830
108848
107085
107308
108659
108372
108344
107140
107565
108555
108333
107244
107502
108566
108454
107230
107528
108654
108636
107262
107518
108867
108925
107235
107657
109136
109308
107428
107626
109665
109882
107285
108101
110049
110563
107866
107520
111106
111258
106555
108481
110297
111102
106796
104326
110874
124350
122900
127964
127762
110793
106767
110690
106454
106023
114196
112385
111330
109635
109595
107467
103929
103443
105381
105191
139567
100164
109361
108419
108758
107613
107096
108764
108793
107134
107359
108606
108360
108321
107186
107590
108517
108313
107286
107531
108533
108439
107275
107556
108629
108628
107307
107554
108847
108919
107293
107698
109122
109308
107496
107682
109656
109884
107383
108166
110052
110572
107970
107639
111096
111252
106773
108582
110352
111161
107096
104903
111408
124090
122229
127416
126685
111040
106985
110378
106521
106051
113675
111969
110888
109270
109258
107111
103743
103241
105108
104885
139437
100342
109392
108384
108706
107672
107172
108710
108743
107188
107415
108557
108348
108297
107229
107612
108476
108286
107318
107549
108493
108409
107298
107564
108590
108596
107319
107556
108801
108878
107297
107687
109066
109256
107485
107658
109581
109811
107361
108107
109954
110471
107900
107574
110934
111082
106730
108412
110177
110986
107027
105080
111595
123541
121562
126775
125699
111389
107481
110454
106886
106510
113629
112025
110779
109234
109430
107244
103944
103458
105393
105059
139290
100499
109399
108336
108647
107722
107238
108649
108690
107239
107466
108507
108334
108273
107273
107636
108437
108261
107353
107572
108457
108386
107330
107584
108559
108572
107347
107578
108770
108852
107327
107707
109036
109227
107511
107681
109546
109772
107396
108121
109916
110420
107915
107613
110862
110988
106805
108398
110136
110917
107138
105468
111906
123166
120972
126121
124788
111604
107767
110396
107110
106663
113323
111850
110508
108984
109312
107253
103957
103422
105343
104995
139142
100654
109406
108293
108590
107773
107305
108592
108638
107290
107518
108460
108320
108250
107316
107660
108399
108238
107390
107595
108422
108366
107362
107602
108529
108552
107376
107597
108739
108830
107358
107722
109004
109202
107540
107698
109506
109738
107434
108125
109871
110374
107934
107639
110781
110905
106889
108377
110087
110876
107283
105831
112165
122754
120471
125406
123899
111817
108054
110317
107287
106841
113068
111654
110249
108784
109227
107258
103981
103409
105329
104928
139000
100809
109411
108251
108533
107822
107369
108535
108587
107339
107568
108412
108305
108227
107358
107683
108360
108213
107424
107617
108387
108344
107390
107620
108498
108527
107400
107614
108707
108802
107382
107736
108971
109169
107559
107713
109466
109693
107457
108127
109825
110313
107933
107659
110696
110802
106940
108349
110035
110797
107382
106163
112360
122279
119976
124674
123076
111990
108328
110320
107499
106999
112832
111507
110014
108571
109142
107282
104009
103400
105321
104931
138857
100959
109412
108212
108478
107869
107433
108482
108537
107388
107617
108368
108290
108205
107400
107707
108323
108190
107459
107638
108354
108325
107418
107639
108469
108506
107428
107632
108677
108779
107410
107751
108940
109144
107584
107728
109428
109659
107491
108131
109781
110266
107950
107683
110618
110723
107017
108335
109993
110766
107536
106502
112543
121883
119568
123937
122277
112152
108577
110280
107641
107131
112599
111313
109763
108379
109043
107283
104023
103380
105295
104864
138721
101109
109413
108175
108424
107915
107493
108429
108487
107435
107664
108324
108274
108182
107440
107730
108286
108166
107492
107657
108321
108304
107443
107656
108440
108482
107451
107648
108646
108751
107433
107763
108907
109111
107601
107741
109388
109614
107511
108131
109735
110204
107948
107698
110534
110620
107063
108311
109945
110692
107644
106808
112671
121254
119188
123191
121535
112276
108813
110302
107820
107255
112381
111161
109546
108185
108949
107305
104054
103375
105280
104868
138583
101252
109410
108140
108372
107959
107553
108379
108440
107481
107710
108284
108258
108161
107479
107753
108252
108144
107525
107676
108290
108286
107468
107674
108413
108461
107477
107664
108618
108729
107459
107776
108878
109086