/*--------------------------------*- C++ -*----------------------------------*\
| =========                 |                                                 |
| \\      /  F ield         | OpenFOAM: The Open Source CFD Toolbox           |
|  \\    /   O peration     | Version:  v2012                                 |
|   \\  /    A nd           | Website:  www.openfoam.com                      |
|    \\/     M anipulation  |                                                 |
\*---------------------------------------------------------------------------*/
FoamFile
{
    version     2.0;
    format      ascii;
    class       surfaceScalarField;
    location    "1e-06";
    object      phi;
}
// * * * * * * * * * * * * * * * * * * * * * * * * * * * * * * * * * * * * * //

dimensions      [0 3 -1 0 0 0 0];
oriented        oriented;


internalField   nonuniform List<scalar> 
20302
(
2.5148e-06
8.8974e-07
2.25703e-06
2.57763e-07
2.10409e-06
1.5294e-07
1.93783e-06
1.66269e-07
1.81494e-06
1.22886e-07
1.73475e-06
8.01837e-08
1.69462e-06
4.0131e-08
1.66124e-06
3.3384e-08
1.61388e-06
4.73602e-08
1.5635e-06
5.038e-08
1.54151e-06
2.19866e-08
1.53221e-06
9.30596e-09
1.50683e-06
2.53811e-08
1.46821e-06
3.8621e-08
1.45138e-06
1.68201e-08
1.45643e-06
-5.04873e-09
1.44275e-06
1.36799e-08
1.40949e-06
3.32624e-08
1.39327e-06
1.62224e-08
1.40151e-06
-8.23885e-09
1.39395e-06
7.55938e-09
1.36293e-06
3.10186e-08
1.34539e-06
1.75433e-08
1.35214e-06
-6.75792e-09
1.34825e-06
3.89819e-09
1.32041e-06
2.78334e-08
1.30063e-06
1.97787e-08
1.30484e-06
-4.20446e-09
1.30279e-06
2.05278e-09
1.27646e-06
2.63213e-08
1.25343e-06
2.30326e-08
1.25408e-06
-6.46859e-10
1.25223e-06
1.85173e-09
1.22563e-06
2.65929e-08
1.19816e-06
2.74724e-08
1.19435e-06
3.81545e-09
1.19028e-06
4.06821e-09
1.16141e-06
2.88676e-08
1.1277e-06
3.37072e-08
1.11674e-06
1.09595e-08
1.10827e-06
8.47896e-09
1.07307e-06
3.51939e-08
1.02976e-06
4.33116e-08
1.0089e-06
2.08605e-08
9.87947e-07
2.0952e-08
9.41151e-07
4.67962e-08
8.7957e-07
6.15811e-08
8.36036e-07
4.35337e-08
7.94373e-07
4.1663e-08
7.12065e-07
8.23079e-08
6.04886e-07
1.0718e-07
4.96919e-07
1.07967e-07
3.35008e-07
1.61911e-07
3.63036e-07
-2.80282e-08
4.72643e-07
-1.09607e-07
5.80906e-07
-1.08262e-07
7.44213e-07
-1.63307e-07
8.69331e-07
-1.25118e-07
9.29895e-07
-6.05638e-08
9.83541e-07
-5.36457e-08
9.89571e-07
-6.03072e-09
9.25679e-07
6.38921e-08
9.93051e-07
-6.73724e-08
1.07365e-06
-8.06017e-08
1.12861e-06
-5.49526e-08
1.17336e-06
-4.47524e-08
1.20523e-06
-3.18772e-08
1.29205e-06
-8.68131e-08
1.33428e-06
-4.22316e-08
1.3387e-06
-4.42034e-09
1.34726e-06
-8.56553e-09
-3.19568e-08
2.77569e-06
1.67067e-06
2.53452e-06
4.98928e-07
2.37328e-06
3.14186e-07
2.17957e-06
3.59973e-07
2.05921e-06
2.43253e-07
1.99757e-06
1.41825e-07
1.948e-06
8.97007e-08
1.88492e-06
9.64586e-08
1.83811e-06
9.41668e-08
1.81138e-06
7.71166e-08
1.78442e-06
4.8941e-08
1.74487e-06
4.88552e-08
1.7184e-06
5.18516e-08
1.70527e-06
5.17571e-08
1.68775e-06
3.43364e-08
1.66384e-06
1.88664e-08
1.64655e-06
3.09691e-08
1.63786e-06
4.19475e-08
1.62427e-06
2.98154e-08
1.60788e-06
8.15217e-09
1.59409e-06
2.13452e-08
1.58415e-06
4.09603e-08
1.57222e-06
2.94723e-08
1.55774e-06
7.71982e-09
1.54508e-06
1.65601e-08
1.53526e-06
3.76558e-08
1.52355e-06
3.14896e-08
1.50931e-06
1.0031e-08
1.49616e-06
1.52018e-08
1.4852e-06
3.72902e-08
1.47231e-06
3.59143e-08
1.45672e-06
1.49419e-08
1.44172e-06
1.68518e-08
1.42808e-06
4.02418e-08
1.41216e-06
4.33835e-08
1.39394e-06
2.2038e-08
1.37487e-06
2.31404e-08
1.35693e-06
4.68076e-08
1.33599e-06
5.46455e-08
1.31137e-06
3.55857e-08
1.28638e-06
3.34658e-08
1.25973e-06
6.18466e-08
1.2286e-06
7.44406e-08
1.19561e-06
5.3848e-08
1.15647e-06
6.00956e-08
1.11654e-06
8.67244e-08
1.06786e-06
1.10259e-07
1.00903e-06
1.0236e-07
9.47804e-07
1.02893e-07
8.6657e-07
1.63542e-07
7.63852e-07
2.09898e-07
6.43678e-07
2.2814e-07
4.51401e-07
3.54188e-07
4.85448e-07
-6.20748e-08
6.16684e-07
-2.40843e-07
6.99737e-07
-1.91315e-07
8.3808e-07
-3.01651e-07
1.0076e-06
-2.94634e-07
1.11013e-06
-1.63097e-07
1.15432e-06
-9.78386e-08
1.15391e-06
-5.61584e-09
1.10266e-06
1.15135e-07
1.17667e-06
-1.41377e-07
1.24252e-06
-1.46451e-07
1.28416e-06
-9.6591e-08
1.34221e-06
-1.02811e-07
1.38677e-06
-7.64335e-08
1.47041e-06
-1.70455e-07
1.5213e-06
-9.31206e-08
1.55258e-06
-3.56977e-08
1.5753e-06
-3.12892e-08
-4.73703e-08
3.11661e-06
2.26955e-06
2.88585e-06
7.29695e-07
2.72347e-06
4.76566e-07
2.52558e-06
5.57861e-07
2.39808e-06
3.70749e-07
2.33046e-06
2.09442e-07
2.27691e-06
1.43253e-07
2.20758e-06
1.65787e-07
2.15491e-06
1.46841e-07
2.1247e-06
1.07324e-07
2.0952e-06
7.84445e-08
2.04854e-06
9.55143e-08
2.01899e-06
8.13966e-08
2.00662e-06
6.41317e-08
1.98753e-06
5.34288e-08
1.96006e-06
4.63359e-08
1.94087e-06
5.01526e-08
1.93245e-06
5.0369e-08
1.91751e-06
4.47562e-08
1.90024e-06
2.54226e-08
1.88515e-06
3.64411e-08
1.87359e-06
5.25168e-08
1.8604e-06
4.26641e-08
1.84547e-06
2.26437e-08
1.83179e-06
3.02395e-08
1.82015e-06
4.93025e-08
1.80706e-06
4.45782e-08
1.79244e-06
2.46482e-08
1.77834e-06
2.93009e-08
1.76545e-06
5.0179e-08
1.75108e-06
5.02897e-08
1.73496e-06
3.10592e-08
1.71892e-06
3.28976e-08
1.70314e-06
5.60173e-08
1.68544e-06
6.10802e-08
1.66642e-06
4.10611e-08
1.64588e-06
4.36841e-08
1.62543e-06
6.72497e-08
1.6024e-06
7.76761e-08
1.57629e-06
6.16986e-08
1.54929e-06
6.04681e-08
1.51926e-06
9.18704e-08
1.48502e-06
1.08687e-07
1.45034e-06
8.85258e-08
1.40752e-06
1.02918e-07
1.36299e-06
1.31256e-07
1.31085e-06
1.62398e-07
1.24687e-06
1.66337e-07
1.18046e-06
1.69304e-07
1.0907e-06
2.53306e-07
9.78589e-07
3.22005e-07
8.52894e-07
3.53836e-07
6.41297e-07
5.65784e-07
6.71648e-07
-9.24255e-08
8.07098e-07
-3.76292e-07
8.76931e-07
-2.61148e-07
9.41639e-07
-3.66359e-07
1.13515e-06
-4.88149e-07
1.32074e-06
-3.48687e-07
1.37582e-06
-1.52918e-07
1.39214e-06
-2.19377e-08
1.34671e-06
1.60573e-07
1.42174e-06
-2.16406e-07
1.49136e-06
-2.16079e-07
1.53696e-06
-1.42187e-07
1.59399e-06
-1.59838e-07
1.54646e-06
-2.89135e-08
1.63801e-06
-2.61997e-07
1.78762e-06
-2.42734e-07
1.82698e-06
-7.50544e-08
1.85321e-06
-5.75178e-08
-6.18002e-08
3.26898e-06
2.88204e-06
3.02908e-06
9.69589e-07
2.85948e-06
6.4617e-07
2.65292e-06
7.64418e-07
2.51906e-06
5.04606e-07
2.4475e-06
2.81008e-07
2.39142e-06
1.99328e-07
2.32106e-06
2.36149e-07
2.26567e-06
2.0223e-07
2.23164e-06
1.41361e-07
2.20071e-06
1.09369e-07
2.17097e-06
1.25257e-07
2.13962e-06
1.1275e-07
2.10766e-06
9.60908e-08
2.0876e-06
7.34842e-08
2.07197e-06
6.19687e-08
2.05162e-06
7.04971e-08
2.02979e-06
7.21989e-08
2.01405e-06
6.05004e-08
1.99913e-06
4.03432e-08
1.98331e-06
5.22598e-08
1.96801e-06
6.78171e-08
1.95406e-06
5.66163e-08
1.93995e-06
3.67466e-08
1.92574e-06
4.44509e-08
1.91197e-06
6.3073e-08
1.89805e-06
5.85031e-08
1.88373e-06
3.89703e-08
1.86922e-06
4.38109e-08
1.85468e-06
6.47154e-08
1.83929e-06
6.56829e-08
1.82315e-06
4.71904e-08
1.80678e-06
4.9269e-08
1.78945e-06
7.33485e-08
1.77041e-06
8.01198e-08
1.75112e-06
6.03491e-08
1.73027e-06
6.45432e-08
1.70815e-06
8.93661e-08
1.68331e-06
1.02513e-07
1.65653e-06
8.8478e-08
1.62916e-06
8.78378e-08
1.59705e-06
1.23984e-07
1.5602e-06
1.45534e-07
1.52448e-06
1.24246e-07
1.48074e-06
1.46661e-07
1.43341e-06
1.78586e-07
1.37765e-06
2.18155e-07
1.31123e-06
2.32755e-07
1.24295e-06
2.37585e-07
1.14825e-06
3.48006e-07
1.02956e-06
4.40703e-07
8.98986e-07
4.84406e-07
6.79271e-07
7.85498e-07
7.0802e-07
-1.21174e-07
8.46184e-07
-5.14456e-07
9.19247e-07
-3.34211e-07
1.05288e-06
-4.99988e-07
1.25435e-06
-6.89627e-07
1.38528e-06
-4.79613e-07
1.44354e-06
-2.11183e-07
1.46245e-06
-4.08489e-08
1.4154e-06
2.07633e-07
1.49189e-06
-2.92897e-07
1.56594e-06
-2.90131e-07
1.614e-06
-1.90249e-07
1.67218e-06
-2.18017e-07
1.71864e-06
-7.53737e-08
1.81721e-06
-3.60574e-07
1.8831e-06
-3.0862e-07
1.919e-06
-1.10957e-07
1.94627e-06
-8.47799e-08
-8.64889e-08
3.59759e-06
3.3393e-06
3.38161e-06
1.18557e-06
3.21472e-06
8.13065e-07
3.00456e-06
9.74574e-07
2.86166e-06
6.47511e-07
2.7844e-06
3.58267e-07
2.72353e-06
2.60195e-07
2.64511e-06
3.14574e-07
2.58347e-06
2.63869e-07
2.54676e-06
1.78064e-07
2.51282e-06
1.43313e-07
2.47075e-06
1.67332e-07
2.4359e-06
1.47594e-07
2.40893e-06
1.23059e-07
2.38705e-06
9.53691e-08
2.36401e-06
8.50104e-08
2.3414e-06
9.31004e-08
2.32302e-06
9.0583e-08
2.30585e-06
7.76744e-08
2.2885e-06
5.7689e-08
2.27096e-06
6.97975e-08
2.2551e-06
8.36762e-08
2.23994e-06
7.17776e-08
2.22432e-06
5.23703e-08
2.20864e-06
6.01287e-08
2.19377e-06
7.79402e-08
2.17868e-06
7.35991e-08
2.16309e-06
5.45553e-08
2.14713e-06
5.97691e-08
2.13126e-06
8.05859e-08
2.11466e-06
8.22904e-08
2.09726e-06
6.45907e-08
2.07928e-06
6.72475e-08
2.06033e-06
9.22961e-08
2.0399e-06
1.00546e-07
2.01916e-06
8.10933e-08
1.99624e-06
8.74629e-08
1.97208e-06
1.13529e-07
1.94557e-06
1.29022e-07
1.91681e-06
1.17237e-07
1.88674e-06
1.17903e-07
1.85176e-06
1.5897e-07
1.81248e-06
1.84816e-07
1.77426e-06
1.62459e-07
1.72637e-06
1.94552e-07
1.67489e-06
2.30066e-07
1.61581e-06
2.77239e-07
1.54451e-06
3.04058e-07
1.47014e-06
3.11953e-07
1.36775e-06
4.50389e-07
1.24141e-06
5.67048e-07
1.10318e-06
6.22633e-07
8.66185e-07
1.0225e-06
8.90364e-07
-1.45352e-07
1.03012e-06
-6.54215e-07
1.0973e-06
-4.0139e-07
1.22062e-06
-6.23303e-07
1.42248e-06
-8.91486e-07
1.56112e-06
-6.18255e-07
1.63135e-06
-2.8141e-07
1.66862e-06
-7.8129e-08
1.63209e-06
2.4417e-07
1.71412e-06
-3.7493e-07
1.79399e-06
-3.70004e-07
1.84912e-06
-2.45375e-07
1.90961e-06
-2.78512e-07
1.95728e-06
-1.23042e-07
2.05331e-06
-4.56598e-07
2.12386e-06
-3.79174e-07
2.17093e-06
-1.58025e-07
2.20444e-06
-1.18293e-07
-1.10648e-07
3.91223e-06
3.66305e-06
3.72743e-06
1.37037e-06
3.56708e-06
9.73413e-07
3.356e-06
1.18566e-06
3.20375e-06
7.99752e-07
3.12077e-06
4.41252e-07
3.05485e-06
3.26114e-07
2.96743e-06
4.01999e-07
2.89913e-06
3.3217e-07
2.86003e-06
2.17163e-07
2.82279e-06
1.80549e-07
2.76695e-06
2.23173e-07
2.72819e-06
1.86351e-07
2.70685e-06
1.44404e-07
2.68292e-06
1.19291e-07
2.65123e-06
1.16701e-07
2.62608e-06
1.18253e-07
2.61191e-06
1.04758e-07
2.59319e-06
9.63911e-08
2.57266e-06
7.82178e-08
2.55317e-06
8.92908e-08
2.53717e-06
9.96726e-08
2.52075e-06
8.81985e-08
2.50314e-06
6.99826e-08
2.48579e-06
7.74777e-08
2.47006e-06
9.36665e-08
2.4538e-06
8.98604e-08
2.43661e-06
7.17472e-08
2.41901e-06
7.73736e-08
2.40198e-06
9.76105e-08
2.38421e-06
1.00059e-07
2.36527e-06
8.35282e-08
2.34548e-06
8.70432e-08
2.32509e-06
1.12684e-07
2.3034e-06
1.22235e-07
2.28096e-06
1.03533e-07
2.25579e-06
1.12635e-07
2.22976e-06
1.39556e-07
2.20174e-06
1.57044e-07
2.17086e-06
1.48112e-07
2.13785e-06
1.50914e-07
2.10024e-06
1.96582e-07
2.05888e-06
2.26176e-07
2.0179e-06
2.03435e-07
1.96577e-06
2.46691e-07
1.91042e-06
2.85415e-07
1.8482e-06
3.39453e-07
1.77229e-06
3.79971e-07
1.69155e-06
3.92698e-07
1.58216e-06
5.59771e-07
1.44928e-06
6.99926e-07
1.30264e-06
7.69278e-07
1.04982e-06
1.27532e-06
1.06902e-06
-1.64558e-07
1.20951e-06
-7.947e-07
1.27437e-06
-4.66252e-07
1.33898e-06
-6.8791e-07
1.53329e-06
-1.0858e-06
1.71993e-06
-8.0489e-07
1.80008e-06
-3.61568e-07
1.85253e-06
-1.30571e-07
1.82663e-06
2.70061e-07
1.91524e-06
-4.63532e-07
2.00186e-06
-4.56628e-07
2.06633e-06
-3.09848e-07
2.13172e-06
-3.43897e-07
2.17984e-06
-1.71166e-07
2.27207e-06
-5.4883e-07
2.34646e-06
-4.53564e-07
2.40417e-06
-2.15734e-07
2.4438e-06
-1.57921e-07
-1.34208e-07
4.09586e-06
3.9924e-06
3.90541e-06
1.56083e-06
3.73918e-06
1.13964e-06
3.52038e-06
1.40446e-06
3.36123e-06
9.58904e-07
3.27363e-06
5.28849e-07
3.20483e-06
3.94917e-07
3.1164e-06
4.90429e-07
3.04477e-06
4.03798e-07
3.00086e-06
2.61077e-07
2.9619e-06
2.19502e-07
2.92177e-06
2.63311e-07
2.88086e-06
2.27262e-07
2.84036e-06
1.84896e-07
2.81528e-06
1.44378e-07
2.79568e-06
1.36298e-07
2.76911e-06
1.44822e-07
2.74086e-06
1.33013e-07
2.72117e-06
1.1608e-07
2.70352e-06
9.58718e-08
2.68312e-06
1.09687e-07
2.66253e-06
1.20258e-07
2.64518e-06
1.05548e-07
2.62864e-06
8.65248e-08
2.61064e-06
9.54768e-08
2.59226e-06
1.12054e-07
2.57497e-06
1.07142e-07
2.55821e-06
8.85097e-08
2.54012e-06
9.54637e-08
2.52102e-06
1.16708e-07
2.50201e-06
1.19068e-07
2.48314e-06
1.02404e-07
2.46298e-06
1.07206e-07
2.44064e-06
1.35018e-07
2.41733e-06
1.45548e-07
2.39464e-06
1.26221e-07
2.36912e-06
1.38157e-07
2.34102e-06
1.67656e-07
2.31082e-06
1.87245e-07
2.27923e-06
1.79698e-07
2.24582e-06
1.84323e-07
2.20567e-06
2.3674e-07
2.16119e-06
2.70654e-07
2.11903e-06
2.45588e-07
2.06589e-06
2.99835e-07
2.00714e-06
3.44166e-07
1.9406e-06
4.05997e-07
1.86194e-06
4.58626e-07
1.77904e-06
4.75602e-07
1.66377e-06
6.7504e-07
1.52319e-06
8.40505e-07
1.37108e-06
9.21391e-07
1.10967e-06
1.53672e-06
1.12753e-06
-1.82412e-07
1.27103e-06
-9.38204e-07
1.33822e-06
-5.33438e-07
1.45699e-06
-8.06683e-07
1.65892e-06
-1.28773e-06
1.80313e-06
-9.491e-07
1.8872e-06
-4.45636e-07
1.94358e-06
-1.86949e-07
1.91766e-06
2.95982e-07
2.00857e-06
-5.54446e-07
2.10146e-06
-5.49515e-07
2.16959e-06
-3.77979e-07
2.23485e-06
-4.09159e-07
2.2853e-06
-2.21613e-07
2.38394e-06
-6.47474e-07
2.4631e-06
-5.3272e-07
2.52101e-06
-2.7365e-07
2.56289e-06
-1.99793e-07
-1.67414e-07
4.40389e-06
4.2114e-06
4.25011e-06
1.7146e-06
4.09656e-06
1.29319e-06
3.88351e-06
1.61752e-06
3.71722e-06
1.1252e-06
3.62441e-06
6.21654e-07
3.55048e-06
4.68849e-07
3.45236e-06
5.88545e-07
3.37355e-06
4.82609e-07
3.32729e-06
3.0734e-07
3.28472e-06
2.62073e-07
3.22878e-06
3.19247e-07
3.18352e-06
2.72526e-07
3.14977e-06
2.18643e-07
3.12238e-06
1.71771e-07
3.09233e-06
1.6635e-07
3.06288e-06
1.74268e-07
3.04007e-06
1.55826e-07
3.01866e-06
1.37484e-07
2.99706e-06
1.17477e-07
2.97444e-06
1.32301e-07
2.95407e-06
1.40629e-07
2.93534e-06
1.24282e-07
2.91636e-06
1.055e-07
2.89648e-06
1.15359e-07
2.87739e-06
1.31148e-07
2.85887e-06
1.25657e-07
2.84018e-06
1.072e-07
2.82025e-06
1.15391e-07
2.8001e-06
1.3686e-07
2.77991e-06
1.39258e-07
2.75924e-06
1.23077e-07
2.73707e-06
1.29378e-07
2.7134e-06
1.58686e-07
2.68886e-06
1.70086e-07
2.66424e-06
1.50843e-07
2.63628e-06
1.66118e-07
2.60643e-06
1.97503e-07
2.57476e-06
2.18915e-07
2.5409e-06
2.13556e-07
2.50433e-06
2.20892e-07
2.46171e-06
2.79357e-07
2.41536e-06
3.17012e-07
2.37015e-06
2.90794e-07
2.31265e-06
3.57332e-07
2.25027e-06
4.06545e-07
2.18059e-06
4.75685e-07
2.09742e-06
5.41789e-07
2.00788e-06
5.65146e-07
1.88604e-06
7.96879e-07
1.73957e-06
9.86981e-07
1.57821e-06
1.08275e-06
1.3017e-06
1.81323e-06
1.31661e-06
-1.97322e-07
1.46163e-06
-1.08322e-06
1.52913e-06
-6.00939e-07
1.63972e-06
-9.1728e-07
1.82651e-06
-1.47451e-06
1.96554e-06
-1.08813e-06
2.05654e-06
-5.3664e-07
2.12294e-06
-2.53351e-07
2.10585e-06
3.1307e-07
2.20468e-06
-6.53276e-07
2.30536e-06
-6.50186e-07
2.38365e-06
-4.56277e-07
2.45782e-06
-4.83325e-07
2.50984e-06
-2.73637e-07
2.60275e-06
-7.40381e-07
2.68483e-06
-6.14806e-07
2.751e-06
-3.39814e-07
2.79747e-06
-2.46265e-07
-1.99223e-07
4.60727e-06
4.43352e-06
4.44909e-06
1.87278e-06
4.29043e-06
1.45185e-06
4.0704e-06
1.83756e-06
3.89689e-06
1.2987e-06
3.79893e-06
7.19613e-07
3.72185e-06
5.4593e-07
3.62313e-06
6.87263e-07
3.54059e-06
5.65154e-07
3.48848e-06
3.59449e-07
3.44397e-06
3.06581e-07
3.40465e-06
3.58565e-07
3.35697e-06
3.20209e-07
3.30273e-06
2.72886e-07
3.274e-06
2.00494e-07
3.25738e-06
1.82975e-07
3.22635e-06
2.05291e-07
3.18786e-06
1.9432e-07
3.16533e-06
1.60014e-07
3.14738e-06
1.35432e-07
3.12376e-06
1.55914e-07
3.09783e-06
1.66564e-07
3.07802e-06
1.44096e-07
3.0605e-06
1.23014e-07
3.03993e-06
1.35931e-07
3.0176e-06
1.53474e-07
2.9979e-06
1.45366e-07
2.97987e-06
1.25226e-07
2.95946e-06
1.35798e-07
2.93683e-06
1.59492e-07
2.91518e-06
1.60904e-07
2.89471e-06
1.4355e-07
2.87224e-06
1.51855e-07
2.84628e-06
1.8464e-07
2.81983e-06
1.96543e-07
2.79505e-06
1.7562e-07
2.76686e-06
1.94302e-07
2.73462e-06
2.29752e-07
2.70036e-06
2.53168e-07
2.66585e-06
2.48071e-07
2.62904e-06
2.57705e-07
2.58352e-06
3.24875e-07
2.53353e-06
3.66995e-07
2.48711e-06
3.37221e-07
2.42879e-06
4.15647e-07
2.3626e-06
4.72736e-07
2.28783e-06
5.50461e-07
2.20186e-06
6.27752e-07
2.1102e-06
6.56809e-07
1.98183e-06
9.25254e-07
1.82678e-06
1.14203e-06
1.65962e-06
1.2499e-06
1.37406e-06
2.09879e-06
1.38742e-06
-2.10677e-07
1.53468e-06
-1.23049e-06
1.60489e-06
-6.71147e-07
1.72e-06
-1.03239e-06
1.91496e-06
-1.66948e-06
2.05935e-06
-1.23252e-06
2.15511e-06
-6.32398e-07
2.22615e-06
-3.24393e-07
2.20976e-06
3.29465e-07
2.31169e-06
-7.55206e-07
2.41856e-06
-7.57064e-07
2.50111e-06
-5.3882e-07
2.62837e-06
-6.10585e-07
2.68126e-06
-3.26531e-07
2.7288e-06
-7.87922e-07
2.81532e-06
-7.01329e-07
2.88239e-06
-4.06881e-07
2.93157e-06
-2.95439e-07
-2.40594e-07
4.9155e-06
4.56314e-06
4.79871e-06
1.98956e-06
4.66157e-06
1.58899e-06
4.45939e-06
2.03974e-06
4.28587e-06
1.47222e-06
4.18546e-06
8.20028e-07
4.10359e-06
6.27794e-07
3.99398e-06
7.96878e-07
3.90369e-06
6.55442e-07
3.8499e-06
4.13238e-07
3.80125e-06
3.5523e-07
3.74059e-06
4.19227e-07
3.68797e-06
3.72831e-07
3.64454e-06
3.16317e-07
3.61316e-06
2.31876e-07
3.58193e-06
2.14197e-07
3.54757e-06
2.39656e-07
3.5178e-06
2.24093e-07
3.49331e-06
1.84498e-07
3.46968e-06
1.59065e-07
3.4434e-06
1.82192e-07
3.41876e-06
1.91208e-07
3.39741e-06
1.65439e-07
3.37646e-06
1.43963e-07
3.35359e-06
1.58804e-07
3.33106e-06
1.76006e-07
3.31005e-06
1.66368e-07
3.28938e-06
1.459e-07
3.2667e-06
1.58474e-07
3.24333e-06
1.82872e-07
3.22053e-06
1.83704e-07
3.19768e-06
1.66393e-07
3.17272e-06
1.76819e-07
3.14565e-06
2.11705e-07
3.1181e-06
2.24097e-07
3.09087e-06
2.02848e-07
3.0597e-06
2.2547e-07
3.0259e-06
2.63559e-07
2.99038e-06
2.88688e-07
2.95312e-06
2.85327e-07
2.91249e-06
2.98339e-07
2.86471e-06
3.72652e-07
2.81323e-06
4.18474e-07
2.76318e-06
3.87275e-07
2.69983e-06
4.78994e-07
2.63022e-06
5.42341e-07
2.55251e-06
6.28171e-07
2.46176e-06
7.18503e-07
2.36257e-06
7.56003e-07
2.22791e-06
1.05991e-06
2.06771e-06
1.30223e-06
1.89009e-06
1.42752e-06
1.58883e-06
2.40005e-06
1.6001e-06
-2.21954e-07
1.74934e-06
-1.37972e-06
1.82253e-06
-7.44333e-07
1.92525e-06
-1.13511e-06
2.10044e-06
-1.84467e-06
2.24141e-06
-1.37349e-06
2.34139e-06
-7.32375e-07
2.41728e-06
-4.0029e-07
2.40825e-06
3.38492e-07
2.51885e-06
-8.658e-07
2.63277e-06
-8.70989e-07
2.72572e-06
-6.31763e-07
2.80745e-06
-6.92321e-07
2.86362e-06
-3.82701e-07
2.95708e-06
-8.8138e-07
3.0421e-06
-7.86347e-07
3.11626e-06
-4.81044e-07
3.17353e-06
-3.52707e-07
-2.82182e-07
5.20868e-06
4.62496e-06
5.12924e-06
2.069e-06
5.01936e-06
1.69886e-06
4.84625e-06
2.21286e-06
4.68288e-06
1.63559e-06
4.5843e-06
9.1861e-07
4.49915e-06
7.12938e-07
4.37915e-06
9.16883e-07
4.28136e-06
7.53236e-07
4.22681e-06
4.67786e-07
4.17359e-06
4.0845e-07
4.08914e-06
5.03678e-07
4.0306e-06
4.31369e-07
3.99906e-06
3.47853e-07
3.96472e-06
2.66223e-07
3.91692e-06
2.61993e-07
3.87877e-06
2.77805e-07
3.85902e-06
2.43847e-07
3.83241e-06
2.11108e-07
3.80154e-06
1.89933e-07
3.77227e-06
2.11459e-07
3.75004e-06
2.13439e-07
3.72715e-06
1.8833e-07
3.70176e-06
1.69351e-07
3.67627e-06
1.84297e-07
3.6542e-06
1.98077e-07
3.63196e-06
1.88606e-07
3.60793e-06
1.69934e-07
3.58262e-06
1.83778e-07
3.55897e-06
2.06521e-07
3.53519e-06
2.07491e-07
3.50943e-06
1.9215e-07
3.48156e-06
2.04688e-07
3.45377e-06
2.39494e-07
3.42542e-06
2.52447e-07
3.39529e-06
2.32977e-07
3.36063e-06
2.60133e-07
3.32563e-06
2.98562e-07
3.2893e-06
3.25013e-07
3.24899e-06
3.25644e-07
3.20393e-06
3.43394e-07
3.15432e-06
4.22263e-07
3.102e-06
4.70797e-07
3.04792e-06
4.41357e-07
2.97896e-06
5.47948e-07
2.9064e-06
6.14904e-07
2.82659e-06
7.07976e-07
2.73082e-06
8.14278e-07
2.6234e-06
8.63417e-07
2.48329e-06
1.20002e-06
2.31915e-06
1.46637e-06
2.13074e-06
1.61594e-06
1.81482e-06
2.71597e-06
1.82379e-06
-2.30922e-07
1.9754e-06
-1.53134e-06
2.05382e-06
-8.22755e-07
2.09078e-06
-1.17207e-06
2.24646e-06
-2.00034e-06
2.43629e-06
-1.56332e-06
2.53748e-06
-8.33563e-07
2.6137e-06
-4.76513e-07
2.61008e-06
3.42109e-07
2.72741e-06
-9.83132e-07
2.84678e-06
-9.90359e-07
2.94898e-06
-7.33967e-07
3.03641e-06
-7.79749e-07
3.09599e-06
-4.4228e-07
3.18544e-06
-9.70825e-07
3.26787e-06
-8.68785e-07
3.3479e-06
-5.61073e-07
3.41176e-06
-4.16559e-07
-3.2481e-07
5.44489e-06
4.68599e-06
5.36402e-06
2.14987e-06
5.25124e-06
1.81163e-06
5.0739e-06
2.3902e-06
4.9043e-06
1.80518e-06
4.801e-06
1.02191e-06
4.71272e-06
8.01217e-07
4.5926e-06
1.03701e-06
4.4905e-06
8.55334e-07
4.42884e-06
5.29441e-07
4.37341e-06
4.63885e-07
4.30458e-06
5.72503e-07
4.24335e-06
4.92602e-07
4.19106e-06
4.00148e-07
4.15513e-06
3.0215e-07
4.12085e-06
2.96269e-07
4.08076e-06
3.17903e-07
4.04479e-06
2.7981e-07
4.01683e-06
2.39069e-07
3.99036e-06
2.16401e-07
3.95987e-06
2.41952e-07
3.93088e-06
2.42433e-07
3.90669e-06
2.12518e-07
3.88328e-06
1.92759e-07
3.85698e-06
2.10599e-07
3.83077e-06
2.24285e-07
3.80706e-06
2.12317e-07
3.78403e-06
1.92961e-07
3.75823e-06
2.09584e-07
3.73139e-06
2.33359e-07
3.7058e-06
2.3308e-07
3.68049e-06
2.1746e-07
3.65237e-06
2.32807e-07
3.62167e-06
2.70193e-07
3.59097e-06
2.83151e-07
3.56084e-06
2.631e-07
3.52606e-06
2.94916e-07
3.48802e-06
3.366e-07
3.44856e-06
3.64482e-07
3.40761e-06
3.6659e-07
3.36242e-06
3.88585e-07
3.30924e-06
4.7544e-07
3.25259e-06
5.27448e-07
3.19736e-06
4.96587e-07
3.12765e-06
6.17654e-07
3.05042e-06
6.92136e-07
2.96461e-06
7.93791e-07
2.86585e-06
9.13032e-07
2.75638e-06
9.72886e-07
2.60858e-06
1.34782e-06
2.4343e-06
1.64066e-06
2.23981e-06
1.81043e-06
1.91531e-06
3.04046e-06
1.9213e-06
-2.36913e-07
2.07442e-06
-1.68445e-06
2.15575e-06
-9.0408e-07
2.25487e-06
-1.2712e-06
2.41639e-06
-2.16186e-06
2.55466e-06
-1.70159e-06
2.66028e-06
-9.39183e-07
2.74185e-06
-5.58085e-07
2.73967e-06
3.44288e-07
2.85968e-06
-1.10314e-06
2.98668e-06
-1.11736e-06
3.09367e-06
-8.40956e-07
3.18143e-06
-8.67512e-07
3.24372e-06
-5.04568e-07
3.34017e-06
-1.06728e-06
3.42637e-06
-9.54984e-07
3.50472e-06
-6.39419e-07
3.57114e-06
-4.82982e-07
-3.78384e-07
5.73554e-06
4.70233e-06
5.68439e-06
2.20102e-06
5.60062e-06
1.89539e-06
5.46017e-06
2.53065e-06
5.3122e-06
1.95316e-06
5.21722e-06
1.11688e-06
5.12941e-06
8.89028e-07
5.00269e-06
1.16373e-06
4.89589e-06
9.62138e-07
4.83528e-06
5.90045e-07
4.77522e-06
5.23946e-07
4.68097e-06
6.66751e-07
4.61296e-06
5.60616e-07
4.57338e-06
4.3973e-07
4.53396e-06
3.41571e-07
4.48059e-06
3.49638e-07
4.43597e-06
3.62523e-07
4.41103e-06
3.04746e-07
4.38057e-06
2.69533e-07
4.34534e-06
2.51633e-07
4.31138e-06
2.75908e-07
4.28561e-06
2.68203e-07
4.25971e-06
2.38418e-07
4.23081e-06
2.21661e-07
4.20146e-06
2.39949e-07
4.17628e-06
2.49469e-07
4.15129e-06
2.373e-07
4.12416e-06
2.20089e-07
4.09535e-06
2.38397e-07
4.06865e-06
2.60058e-07
4.04214e-06
2.59592e-07
4.01333e-06
2.46267e-07
3.98187e-06
2.6427e-07
3.95079e-06
3.01276e-07
3.91947e-06
3.14467e-07
3.88591e-06
2.96662e-07
3.84713e-06
3.33693e-07
3.80828e-06
3.75445e-07
3.76829e-06
4.0448e-07
3.72387e-06
4.11005e-07
3.67378e-06
4.38676e-07
3.61912e-06
5.30096e-07
3.56196e-06
5.84612e-07
3.50218e-06
5.56365e-07
3.42633e-06
6.93503e-07
3.34661e-06
7.71857e-07
3.25911e-06
8.81292e-07
3.15492e-06
1.01722e-06
3.03648e-06
1.09132e-06
2.88379e-06
1.50051e-06
2.70634e-06
1.81811e-06
2.50024e-06
2.01653e-06
2.16122e-06
3.37948e-06
2.16754e-06
-2.43231e-07
2.32408e-06
-1.841e-06
2.41319e-06
-9.93184e-07
2.5116e-06
-1.36961e-06
2.65126e-06
-2.30153e-06
2.77582e-06
-1.82614e-06
2.87961e-06
-1.04297e-06
2.95646e-06
-6.34938e-07
2.95654e-06
3.44205e-07
3.0834e-06
-1.22999e-06
3.21413e-06
-1.24809e-06
3.32845e-06
-9.55281e-07
3.42419e-06
-9.63253e-07
3.49038e-06
-5.70759e-07
3.58244e-06
-1.15934e-06
3.66793e-06
-1.04048e-06
3.75111e-06
-7.22594e-07
3.82029e-06
-5.52162e-07
-4.30253e-07
5.99423e-06
4.71692e-06
5.94277e-06
2.25249e-06
5.85747e-06
1.98069e-06
5.71472e-06
2.6734e-06
5.56162e-06
2.10626e-06
5.46235e-06
1.21615e-06
5.37154e-06
9.79838e-07
5.24575e-06
1.28952e-06
5.13444e-06
1.07345e-06
5.06566e-06
6.58824e-07
5.00317e-06
5.86438e-07
4.92476e-06
7.45162e-07
4.85392e-06
6.31456e-07
4.79248e-06
5.01169e-07
4.75126e-06
3.82791e-07
4.71242e-06
3.88476e-07
4.66558e-06
4.09366e-07
4.62317e-06
3.47154e-07
4.59114e-06
3.01564e-07
4.5612e-06
2.81575e-07
4.52586e-06
3.11248e-07
4.49217e-06
3.01888e-07
4.46475e-06
2.65839e-07
4.4383e-06
2.48112e-07
4.40809e-06
2.70155e-07
4.37801e-06
2.79548e-07
4.35132e-06
2.63998e-07
4.32557e-06
2.45833e-07
4.2963e-06
2.67671e-07
4.26578e-06
2.90581e-07
4.23713e-06
2.88234e-07
4.20904e-06
2.74356e-07
4.17746e-06
2.95859e-07
4.14295e-06
3.35785e-07
4.10885e-06
3.48566e-07
4.07534e-06
3.30175e-07
4.03663e-06
3.72404e-07
3.99426e-06
4.1781e-07
3.9506e-06
4.48145e-07
3.9057e-06
4.55899e-07
3.85565e-06
4.88732e-07
3.79691e-06
5.88835e-07
3.73483e-06
6.46687e-07
3.67396e-06
6.17236e-07
3.5976e-06
7.69864e-07
3.51262e-06
8.56839e-07
3.41812e-06
9.75796e-07
3.31099e-06
1.12435e-06
3.19076e-06
1.21156e-06
3.02956e-06
1.66171e-06
2.84081e-06
2.00686e-06
2.62855e-06
2.2288e-06
2.28115e-06
3.72688e-06
2.28399e-06
-2.46065e-07
2.4407e-06
-1.99771e-06
2.5338e-06
-1.08629e-06
2.63569e-06
-1.4715e-06
2.78144e-06
-2.44728e-06
2.91078e-06
-1.95548e-06
3.02005e-06
-1.15225e-06
3.1025e-06
-7.17383e-07
3.10362e-06
3.43085e-07
3.23354e-06
-1.35992e-06
3.37259e-06
-1.38714e-06
3.49215e-06
-1.07484e-06
3.58756e-06
-1.05866e-06
3.6565e-06
-6.39701e-07
3.75657e-06
-1.25941e-06
3.84629e-06
-1.13019e-06
3.9268e-06
-8.0311e-07
3.99729e-06
-6.22653e-07
-4.92928e-07
6.29067e-06
4.70348e-06
6.26098e-06
2.28218e-06
6.20302e-06
2.03866e-06
6.10025e-06
2.77617e-06
5.97791e-06
2.2286e-06
5.89316e-06
1.30089e-06
5.8085e-06
1.06451e-06
5.68342e-06
1.4146e-06
5.57414e-06
1.18273e-06
5.51058e-06
7.2238e-07
5.44491e-06
6.52116e-07
5.33914e-06
8.50923e-07
5.26181e-06
7.08794e-07
5.21666e-06
5.46318e-07
5.17164e-06
4.2781e-07
5.10942e-06
4.50695e-07
5.05731e-06
4.61473e-07
5.02872e-06
3.75744e-07
4.99379e-06
3.36502e-07
4.95225e-06
3.23112e-07
4.91264e-06
3.50856e-07
4.88373e-06
3.30798e-07
4.85435e-06
2.95215e-07
4.82077e-06
2.81695e-07
4.78677e-06
3.04155e-07
4.7585e-06
3.07821e-07
4.73051e-06
2.91988e-07
4.6994e-06
2.76945e-07
4.66642e-06
3.00643e-07
4.63676e-06
3.20241e-07
4.60738e-06
3.17615e-07
4.57478e-06
3.06963e-07
4.53901e-06
3.31626e-07
4.50471e-06
3.70083e-07
4.47041e-06
3.82872e-07
4.43285e-06
3.67731e-07
4.38931e-06
4.15948e-07
4.34664e-06
4.60478e-07
4.30296e-06
4.9182e-07
4.25373e-06
5.05129e-07
4.19781e-06
5.44659e-07
4.13816e-06
6.48484e-07
4.07626e-06
7.08585e-07
4.00999e-06
6.835e-07
3.92636e-06
8.53501e-07
3.83949e-06
9.43701e-07
3.74429e-06
1.071e-06
3.63089e-06
1.23775e-06
3.50026e-06
1.34219e-06
3.33507e-06
1.82691e-06
3.14449e-06
2.19743e-06
2.91952e-06
2.45376e-06
2.55769e-06
4.08872e-06
2.56241e-06
-2.50792e-07
2.72305e-06
-2.15835e-06
2.82555e-06
-1.18878e-06
2.92911e-06
-1.57506e-06
3.05362e-06
-2.57179e-06
3.16866e-06
-2.07052e-06
3.27238e-06
-1.25596e-06
3.34501e-06
-7.90014e-07
3.34647e-06
3.41623e-07
3.483e-06
-1.49645e-06
3.62337e-06
-1.5275e-06
3.74807e-06
-1.19954e-06
3.85163e-06
-1.16222e-06
3.92462e-06
-7.12694e-07
4.01902e-06
-1.35381e-06
4.10777e-06
-1.21894e-06
4.19287e-06
-8.8821e-07
4.26422e-06
-6.94003e-07
-5.5272e-07
6.57316e-06
4.68795e-06
6.54388e-06
2.31146e-06
6.48527e-06
2.09727e-06
6.3816e-06
2.87984e-06
6.25526e-06
2.35495e-06
6.16676e-06
1.38939e-06
6.07945e-06
1.15182e-06
5.95658e-06
1.53747e-06
5.84291e-06
1.29639e-06
5.77041e-06
7.94886e-07
5.70212e-06
7.20399e-07
5.61351e-06
9.39538e-07
5.53333e-06
7.88975e-07
5.46445e-06
6.15193e-07
5.41745e-06
4.74817e-07
5.37128e-06
4.96865e-07
5.31674e-06
5.1601e-07
5.26869e-06
4.23794e-07
5.23197e-06
3.73222e-07
5.19703e-06
3.5805e-07
5.15588e-06
3.92013e-07
5.11764e-06
3.69037e-07
5.08648e-06
3.2637e-07
5.05589e-06
3.1229e-07
5.02099e-06
3.39054e-07
4.98696e-06
3.4185e-07
4.95695e-06
3.21998e-07
4.92755e-06
3.06347e-07
4.8942e-06
3.33984e-07
4.86011e-06
3.54334e-07
4.82821e-06
3.49514e-07
4.7965e-06
3.38673e-07
4.76081e-06
3.67314e-07
4.72263e-06
4.0827e-07
4.68503e-06
4.2047e-07
4.64764e-06
4.05124e-07
4.6043e-06
4.59283e-07
4.55754e-06
5.07243e-07
4.50971e-06
5.39649e-07
4.46027e-06
5.54572e-07
4.40466e-06
6.00261e-07
4.34028e-06
7.12871e-07
4.27271e-06
7.76146e-07
4.20556e-06
7.50652e-07
4.12179e-06
9.37272e-07
4.02892e-06
1.03658e-06
3.92564e-06
1.17427e-06
3.8094e-06
1.35398e-06
3.67739e-06
1.4742e-06
3.5027e-06
2.0016e-06
3.29943e-06
2.4007e-06
3.06839e-06
2.68481e-06
2.69908e-06
4.45803e-06
2.6994e-06
-2.51111e-07
2.85898e-06
-2.31793e-06
2.96667e-06
-1.29648e-06
3.07213e-06
-1.68052e-06
3.20166e-06
-2.70131e-06
3.32265e-06
-2.19152e-06
3.43221e-06
-1.36552e-06
3.51088e-06
-8.68691e-07
3.51294e-06
3.39568e-07
3.6523e-06
-1.63582e-06
3.80196e-06
-1.67716e-06
3.93234e-06
-1.32992e-06
4.03506e-06
-1.26493e-06
4.10836e-06
-7.86005e-07
4.21133e-06
-1.45678e-06
4.30699e-06
-1.3146e-06
4.38853e-06
-9.69747e-07
4.45953e-06
-7.65003e-07
-6.23251e-07
6.88242e-06
4.6561e-06
6.86738e-06
2.3265e-06
6.83067e-06
2.13398e-06
6.76365e-06
2.94686e-06
6.67168e-06
2.44691e-06
6.60118e-06
1.45989e-06
6.525e-06
1.22801e-06
6.41106e-06
1.6514e-06
6.30834e-06
1.39912e-06
6.24681e-06
8.56418e-07
6.17918e-06
7.88027e-07
6.06381e-06
1.05491e-06
5.98017e-06
8.72615e-07
5.93362e-06
6.61739e-07
5.88335e-06
5.25089e-07
5.80941e-06
5.70805e-07
5.74959e-06
5.75831e-07
5.71992e-06
4.5346e-07
5.68019e-06
4.1295e-07
5.62992e-06
4.08317e-07
5.5837e-06
4.38236e-07
5.55245e-06
4.00293e-07
5.51918e-06
3.5964e-07
5.47926e-06
3.52206e-07
5.4396e-06
3.78716e-07
5.40852e-06
3.72925e-07
5.37724e-06
3.53278e-07
5.34106e-06
3.42528e-07
5.30298e-06
3.72061e-07
5.27033e-06
3.86987e-07
5.23795e-06
3.81891e-07
5.20074e-06
3.75887e-07
5.1597e-06
4.0835e-07
5.12211e-06
4.45869e-07
5.08487e-06
4.57701e-07
5.04239e-06
4.47606e-07
4.9932e-06
5.08478e-07
4.94685e-06
5.5359e-07
4.89963e-06
5.86868e-07
4.84479e-06
6.09414e-07
4.78189e-06
6.63161e-07
4.71737e-06
7.77395e-07
4.65114e-06
8.42377e-07
4.57746e-06
8.24331e-07
4.48476e-06
1.02997e-06
4.39087e-06
1.13046e-06
4.28827e-06
1.27687e-06
4.16469e-06
1.47756e-06
4.02047e-06
1.61842e-06
3.84319e-06
2.17888e-06
3.64014e-06
2.60375e-06
3.39505e-06
2.9299e-06
3.01127e-06
4.8418e-06
3.01548e-06
-2.55322e-07
3.17971e-06
-2.48216e-06
3.29593e-06
-1.41269e-06
3.3158e-06
-1.7004e-06
3.42866e-06
-2.81417e-06
3.621e-06
-2.38386e-06
3.72242e-06
-1.46693e-06
3.78735e-06
-9.33621e-07
3.78891e-06
3.38006e-07
3.93465e-06
-1.78156e-06
4.08242e-06
-1.82493e-06
4.21511e-06
-1.46261e-06
4.32596e-06
-1.37578e-06
4.35087e-06
-8.1092e-07
4.44815e-06