/*--------------------------------*- C++ -*----------------------------------*\
| =========                 |                                                 |
| \\      /  F ield         | OpenFOAM: The Open Source CFD Toolbox           |
|  \\    /   O peration     | Version:  v2012                                 |
|   \\  /    A nd           | Website:  www.openfoam.com                      |
|    \\/     M anipulation  |                                                 |
\*---------------------------------------------------------------------------*/
FoamFile
{
    version     2.0;
    format      ascii;
    class       volScalarField;
    location    "1e-06";
    object      pMean;
}
// * * * * * * * * * * * * * * * * * * * * * * * * * * * * * * * * * * * * * //

dimensions      [1 -1 -2 0 0 0 0];


internalField   nonuniform List<scalar> 
10262
(
4.66369e+07
4.624e+07
4.5982e+07
4.57529e+07
4.54852e+07
4.51876e+07
4.49267e+07
4.47158e+07
4.44709e+07
4.42005e+07
4.39669e+07
4.37691e+07
4.35448e+07
4.33132e+07
4.30754e+07
4.28681e+07
4.26771e+07
4.24685e+07
4.22552e+07
4.20659e+07
4.18947e+07
4.17093e+07
4.15167e+07
4.13485e+07
4.11977e+07
4.10349e+07
4.08653e+07
4.07198e+07
4.05931e+07
4.04557e+07
4.03115e+07
4.01941e+07
4.00965e+07
3.99894e+07
3.98757e+07
3.9791e+07
3.97325e+07
3.96637e+07
3.95867e+07
3.95521e+07
3.9543e+07
3.95287e+07
3.95086e+07
3.9529e+07
3.96055e+07
3.96708e+07
3.97275e+07
3.9888e+07
4.0089e+07
4.03218e+07
4.05874e+07
4.09523e+07
4.15662e+07
4.25151e+07
4.29703e+07
4.31227e+07
4.27052e+07
4.15886e+07
4.08123e+07
4.03506e+07
3.9793e+07
3.94357e+07
3.94154e+07
3.91064e+07
3.87173e+07
3.82231e+07
3.75816e+07
3.69438e+07
3.62837e+07
3.57493e+07
3.52538e+07
3.47797e+07
4.66371e+07
4.62401e+07
4.59821e+07
4.57529e+07
4.54852e+07
4.51876e+07
4.49268e+07
4.47158e+07
4.44709e+07
4.42005e+07
4.39669e+07
4.37691e+07
4.35448e+07
4.33132e+07
4.30754e+07
4.28681e+07
4.26771e+07
4.24685e+07
4.22553e+07
4.2066e+07
4.18948e+07
4.17093e+07
4.15167e+07
4.13485e+07
4.11977e+07
4.10349e+07
4.08653e+07
4.07198e+07
4.05932e+07
4.04557e+07
4.03115e+07
4.01942e+07
4.00965e+07
3.99894e+07
3.98757e+07
3.97911e+07
3.97325e+07
3.96637e+07
3.95867e+07
3.95521e+07
3.9543e+07
3.95287e+07
3.95086e+07
3.9529e+07
3.96055e+07
3.96708e+07
3.97274e+07
3.9888e+07
4.0089e+07
4.03217e+07
4.05873e+07
4.09521e+07
4.15659e+07
4.25104e+07
4.2962e+07
4.3114e+07
4.26976e+07
4.15833e+07
4.08091e+07
4.0348e+07
3.97916e+07
3.94348e+07
3.941e+07
3.90994e+07
3.87094e+07
3.82147e+07
3.75754e+07
3.6938e+07
3.62818e+07
3.57483e+07
3.52538e+07
3.47797e+07
4.66371e+07
4.62402e+07
4.59823e+07
4.57529e+07
4.54852e+07
4.51877e+07
4.49268e+07
4.47159e+07
4.4471e+07
4.42005e+07
4.3967e+07
4.37691e+07
4.35448e+07
4.33132e+07
4.30754e+07
4.28681e+07
4.26771e+07
4.24685e+07
4.22553e+07
4.2066e+07
4.18948e+07
4.17093e+07
4.15167e+07
4.13486e+07
4.11977e+07
4.10349e+07
4.08653e+07
4.07199e+07
4.05932e+07
4.04557e+07
4.03115e+07
4.01942e+07
4.00965e+07
3.99894e+07
3.98757e+07
3.97911e+07
3.97326e+07
3.96637e+07
3.95867e+07
3.95521e+07
3.9543e+07
3.95287e+07
3.95086e+07
3.9529e+07
3.96055e+07
3.96708e+07
3.97274e+07
3.9888e+07
4.0089e+07
4.03216e+07
4.05871e+07
4.09519e+07
4.15656e+07
4.25079e+07
4.29564e+07
4.31076e+07
4.26904e+07
4.15784e+07
4.08056e+07
4.03452e+07
3.97892e+07
3.94338e+07
3.94059e+07
3.90939e+07
3.87031e+07
3.82078e+07
3.75697e+07
3.69326e+07
3.6279e+07
3.57469e+07
3.52538e+07
3.47797e+07
4.6637e+07
4.62404e+07
4.59825e+07
4.57529e+07
4.54852e+07
4.51877e+07
4.49269e+07
4.47159e+07
4.4471e+07
4.42005e+07
4.3967e+07
4.37691e+07
4.35448e+07
4.33133e+07
4.30754e+07
4.28681e+07
4.26771e+07
4.24685e+07
4.22553e+07
4.2066e+07
4.18948e+07
4.17093e+07
4.15167e+07
4.13486e+07
4.11977e+07
4.10349e+07
4.08653e+07
4.07199e+07
4.05932e+07
4.04557e+07
4.03115e+07
4.01942e+07
4.00966e+07
3.99894e+07
3.98757e+07
3.97911e+07
3.97326e+07
3.96637e+07
3.95867e+07
3.95521e+07
3.9543e+07
3.95287e+07
3.95085e+07
3.9529e+07
3.96055e+07
3.96707e+07
3.97273e+07
3.98879e+07
4.00889e+07
4.03215e+07
4.05869e+07
4.09516e+07
4.1565e+07
4.25032e+07
4.29481e+07
4.30984e+07
4.26819e+07
4.15731e+07
4.08021e+07
4.03421e+07
3.97867e+07
3.94327e+07
3.94005e+07
3.90869e+07
3.86951e+07
3.81993e+07
3.7563e+07
3.69267e+07
3.62782e+07
3.57456e+07
3.52538e+07
3.47798e+07
4.66368e+07
4.62405e+07
4.59826e+07
4.57529e+07
4.54851e+07
4.51877e+07
4.49269e+07
4.47159e+07
4.44709e+07
4.42005e+07
4.3967e+07
4.37691e+07
4.35448e+07
4.33132e+07
4.30754e+07
4.28682e+07
4.26771e+07
4.24685e+07
4.22553e+07
4.2066e+07
4.18948e+07
4.17093e+07
4.15167e+07
4.13486e+07
4.11978e+07
4.10349e+07
4.08653e+07
4.07199e+07
4.05932e+07
4.04557e+07
4.03115e+07
4.01942e+07
4.00966e+07
3.99894e+07
3.98757e+07
3.97911e+07
3.97326e+07
3.96637e+07
3.95867e+07
3.95521e+07
3.9543e+07
3.95286e+07
3.95085e+07
3.9529e+07
3.96055e+07
3.96706e+07
3.97272e+07
3.98878e+07
4.00888e+07
4.03213e+07
4.05866e+07
4.09512e+07
4.15643e+07
4.24988e+07
4.29398e+07
4.30892e+07
4.26729e+07
4.15671e+07
4.07985e+07
4.03389e+07
3.97841e+07
3.94313e+07
3.93949e+07
3.90798e+07
3.8687e+07
3.81907e+07
3.75563e+07
3.69205e+07
3.6277e+07
3.57443e+07
3.52539e+07
3.47798e+07
4.66366e+07
4.62407e+07
4.5983e+07
4.57528e+07
4.54851e+07
4.51877e+07
4.4927e+07
4.47159e+07
4.44709e+07
4.42005e+07
4.3967e+07
4.37691e+07
4.35448e+07
4.33133e+07
4.30754e+07
4.28682e+07
4.26771e+07
4.24685e+07
4.22553e+07
4.20661e+07
4.18948e+07
4.17093e+07
4.15167e+07
4.13487e+07
4.11978e+07
4.10349e+07
4.08653e+07
4.07199e+07
4.05932e+07
4.04557e+07
4.03115e+07
4.01943e+07
4.00966e+07
3.99894e+07
3.98757e+07
3.97911e+07
3.97326e+07
3.96637e+07
3.95867e+07
3.95521e+07
3.9543e+07
3.95286e+07
3.95085e+07
3.95289e+07
3.96054e+07
3.96706e+07
3.97272e+07
3.98877e+07
4.00886e+07
4.03211e+07
4.05862e+07
4.09507e+07
4.15635e+07
4.24926e+07
4.29292e+07
4.30776e+07
4.2662e+07
4.15608e+07
4.07943e+07
4.03352e+07
3.97811e+07
3.94297e+07
3.93884e+07
3.90717e+07
3.86779e+07
3.8181e+07
3.75488e+07
3.69138e+07
3.6274e+07
3.57418e+07
3.52534e+07
3.47798e+07
4.66364e+07
4.6241e+07
4.59833e+07
4.57528e+07
4.54851e+07
4.51878e+07
4.49271e+07
4.47159e+07
4.44709e+07
4.42005e+07
4.39671e+07
4.37691e+07
4.35448e+07
4.33133e+07
4.30755e+07
4.28682e+07
4.26771e+07
4.24686e+07
4.22553e+07
4.20661e+07
4.18949e+07
4.17093e+07
4.15167e+07
4.13487e+07
4.11978e+07
4.10349e+07
4.08653e+07
4.072e+07
4.05933e+07
4.04557e+07
4.03115e+07
4.01943e+07
4.00966e+07
3.99894e+07
3.98757e+07
3.97911e+07
3.97326e+07
3.96637e+07
3.95867e+07
3.95521e+07
3.9543e+07
3.95286e+07
3.95084e+07
3.95289e+07
3.96054e+07
3.96705e+07
3.97271e+07
3.98875e+07
4.00884e+07
4.03208e+07
4.05858e+07
4.09502e+07
4.15624e+07
4.2486e+07
4.29181e+07
4.30652e+07
4.26504e+07
4.15542e+07
4.07901e+07
4.03312e+07
3.97781e+07
3.94278e+07
3.93815e+07
3.90632e+07
3.86682e+07
3.81709e+07
3.7541e+07
3.69069e+07
3.62707e+07
3.57394e+07
3.52532e+07
3.47798e+07
4.66361e+07
4.62412e+07
4.59836e+07
4.57527e+07
4.5485e+07
4.51878e+07
4.49272e+07
4.47159e+07
4.44709e+07
4.42006e+07
4.39671e+07
4.37691e+07
4.35448e+07
4.33133e+07
4.30755e+07
4.28682e+07
4.26771e+07
4.24686e+07
4.22553e+07
4.20661e+07
4.18949e+07
4.17092e+07
4.15167e+07
4.13487e+07
4.11978e+07
4.10349e+07
4.08653e+07
4.072e+07
4.05933e+07
4.04557e+07
4.03115e+07
4.01943e+07
4.00966e+07
3.99894e+07
3.98757e+07
3.97911e+07
3.97326e+07
3.96636e+07
3.95866e+07
3.95521e+07
3.9543e+07
3.95286e+07
3.95083e+07
3.95289e+07
3.96053e+07
3.96704e+07
3.97269e+07
3.98873e+07
4.00882e+07
4.03205e+07
4.05852e+07
4.09495e+07
4.15611e+07
4.24787e+07
4.29059e+07
4.30518e+07
4.26379e+07
4.15469e+07
4.07856e+07
4.0327e+07
3.97749e+07
3.94257e+07
3.93741e+07
3.90542e+07
3.8658e+07
3.81602e+07
3.75328e+07
3.68997e+07
3.6267e+07
3.57369e+07
3.52529e+07
3.47799e+07
4.66358e+07
4.62415e+07
4.5984e+07
4.57526e+07
4.5485e+07
4.51879e+07
4.49273e+07
4.47158e+07
4.44709e+07
4.42006e+07
4.39672e+07
4.37691e+07
4.35448e+07
4.33133e+07
4.30755e+07
4.28683e+07
4.26771e+07
4.24686e+07
4.22554e+07
4.20662e+07
4.18949e+07
4.17092e+07
4.15167e+07
4.13487e+07
4.11978e+07
4.10349e+07
4.08653e+07
4.072e+07
4.05933e+07
4.04557e+07
4.03115e+07
4.01943e+07
4.00966e+07
3.99894e+07
3.98757e+07
3.97911e+07
3.97326e+07
3.96636e+07
3.95866e+07
3.9552e+07
3.9543e+07
3.95285e+07
3.95083e+07
3.95288e+07
3.96052e+07
3.96703e+07
3.97268e+07
3.9887e+07
4.00879e+07
4.03201e+07
4.05846e+07
4.09486e+07
4.15595e+07
4.24706e+07
4.28928e+07
4.30372e+07
4.26244e+07
4.15391e+07
4.07808e+07
4.03224e+07
3.97715e+07
3.94233e+07
3.93662e+07
3.90446e+07
3.86473e+07
3.8149e+07
3.7524e+07
3.68922e+07
3.62629e+07
3.57344e+07
3.52526e+07
3.47799e+07
4.66354e+07
4.62418e+07
4.59844e+07
4.57524e+07
4.54848e+07
4.51879e+07
4.49274e+07
4.47158e+07
4.44709e+07
4.42006e+07
4.39672e+07
4.37691e+07
4.35448e+07
4.33133e+07
4.30755e+07
4.28683e+07
4.26771e+07
4.24686e+07
4.22553e+07
4.20662e+07
4.18949e+07
4.17092e+07
4.15167e+07
4.13488e+07
4.11978e+07
4.10348e+07
4.08653e+07
4.072e+07
4.05933e+07
4.04557e+07
4.03115e+07
4.01943e+07
4.00966e+07
3.99894e+07
3.98757e+07
3.97911e+07
3.97326e+07
3.96636e+07
3.95866e+07
3.9552e+07
3.95429e+07
3.95284e+07
3.95082e+07
3.95287e+07
3.96051e+07
3.96701e+07
3.97266e+07
3.98867e+07
4.00876e+07
4.03196e+07
4.05838e+07
4.09476e+07
4.15576e+07
4.24619e+07
4.28789e+07
4.30218e+07
4.261e+07
4.15309e+07
4.07757e+07
4.03176e+07
3.97679e+07
3.94206e+07
3.93579e+07
3.90346e+07
3.8636e+07
3.81373e+07
3.75147e+07
3.68842e+07
3.62584e+07
3.57317e+07
3.52524e+07
3.478e+07
4.66351e+07
4.62422e+07
4.5985e+07
4.57523e+07
4.54848e+07
4.51881e+07
4.49276e+07
4.47158e+07
4.44709e+07
4.42007e+07
4.39673e+07
4.37691e+07
4.35448e+07
4.33133e+07
4.30756e+07
4.28683e+07
4.26772e+07
4.24686e+07
4.22554e+07
4.20662e+07
4.18949e+07
4.17092e+07
4.15167e+07
4.13488e+07
4.11979e+07
4.10348e+07
4.08654e+07
4.07201e+07
4.05933e+07
4.04557e+07
4.03115e+07
4.01943e+07
4.00966e+07
3.99894e+07
3.98757e+07
3.97912e+07
3.97326e+07
3.96636e+07
3.95866e+07
3.9552e+07
3.95429e+07
3.95284e+07
3.95081e+07
3.95287e+07
3.9605e+07
3.96699e+07
3.97264e+07
3.98865e+07
4.00873e+07
4.03191e+07
4.0583e+07
4.09466e+07
4.15556e+07
4.24518e+07
4.28631e+07
4.30043e+07
4.25937e+07
4.15222e+07
4.07699e+07
4.03119e+07
3.97637e+07
3.94174e+07
3.93488e+07
3.90238e+07
3.86238e+07
3.81247e+07
3.7505e+07
3.68757e+07
3.62522e+07
3.57264e+07
3.52498e+07
3.478e+07
4.66347e+07
4.62427e+07
4.59855e+07
4.57522e+07
4.54847e+07
4.51882e+07
4.49278e+07
4.47158e+07
4.44708e+07
4.42008e+07
4.39674e+07
4.37691e+07
4.35448e+07
4.33133e+07
4.30757e+07
4.28684e+07
4.26772e+07
4.24686e+07
4.22554e+07
4.20663e+07
4.18949e+07
4.17092e+07
4.15168e+07
4.13489e+07
4.11979e+07
4.10348e+07
4.08654e+07
4.07201e+07
4.05934e+07
4.04557e+07
4.03115e+07
4.01943e+07
4.00967e+07
3.99894e+07
3.98757e+07
3.97912e+07
3.97326e+07
3.96636e+07
3.95866e+07
3.9552e+07
3.95429e+07
3.95283e+07
3.9508e+07
3.95286e+07
3.96049e+07
3.96698e+07
3.97263e+07
3.98861e+07
4.00869e+07
4.03185e+07
4.05821e+07
4.09454e+07
4.15532e+07
4.2441e+07
4.28463e+07
4.29856e+07
4.25763e+07
4.15131e+07
4.07637e+07
4.03058e+07
3.97594e+07
3.94139e+07
3.93391e+07
3.90123e+07
3.8611e+07
3.81116e+07
3.74948e+07
3.68669e+07
3.62456e+07
3.57208e+07
3.5247e+07
3.47799e+07
4.66343e+07
4.62431e+07
4.59861e+07
4.57521e+07
4.54846e+07
4.51884e+07
4.49281e+07
4.47157e+07
4.44708e+07
4.42009e+07
4.39675e+07
4.37691e+07
4.35447e+07
4.33133e+07
4.30757e+07
4.28685e+07
4.26772e+07
4.24686e+07
4.22555e+07
4.20664e+07
4.1895e+07
4.17092e+07
4.15168e+07
4.13489e+07
4.11979e+07
4.10348e+07
4.08654e+07
4.07202e+07
4.05934e+07
4.04557e+07
4.03115e+07
4.01944e+07
4.00967e+07
3.99894e+07
3.98757e+07
3.97912e+07
3.97326e+07
3.96636e+07
3.95865e+07
3.95519e+07
3.95429e+07
3.95283e+07
3.95079e+07
3.95285e+07
3.96047e+07
3.96695e+07
3.97261e+07
3.98858e+07
4.00864e+07
4.03179e+07
4.0581e+07
4.09441e+07
4.15505e+07
4.24292e+07
4.28284e+07
4.29656e+07
4.25577e+07
4.15027e+07
4.07572e+07
4.02993e+07
3.97548e+07
3.94101e+07
3.9329e+07
3.90004e+07
3.85976e+07
3.80979e+07
3.7484e+07
3.68576e+07
3.62387e+07
3.57148e+07
3.52438e+07
3.47795e+07
4.66339e+07
4.62437e+07
4.59867e+07
4.57519e+07
4.54845e+07
4.51886e+07
4.49284e+07
4.47157e+07
4.44708e+07
4.4201e+07
4.39677e+07
4.37691e+07
4.35447e+07
4.33134e+07
4.30758e+07
4.28685e+07
4.26772e+07
4.24687e+07
4.22555e+07
4.20664e+07
4.1895e+07
4.17093e+07
4.15168e+07
4.1349e+07
4.1198e+07
4.10348e+07
4.08654e+07
4.07202e+07
4.05934e+07
4.04557e+07
4.03115e+07
4.01944e+07
4.00967e+07
3.99894e+07
3.98757e+07
3.97911e+07
3.97326e+07
3.96635e+07
3.95865e+07
3.95519e+07
3.95428e+07
3.95282e+07
3.95078e+07
3.95284e+07
3.96045e+07
3.96693e+07
3.97259e+07
3.98853e+07
4.00859e+07
4.03171e+07
4.05798e+07
4.09425e+07
4.15473e+07
4.24165e+07
4.28093e+07
4.29443e+07
4.25378e+07
4.14917e+07
4.07501e+07
4.02922e+07
3.97498e+07
3.94058e+07
3.93182e+07
3.89877e+07
3.85836e+07
3.80836e+07
3.74727e+07
3.68479e+07
3.62315e+07
3.57086e+07
3.52401e+07
3.47785e+07
4.66335e+07
4.62442e+07
4.59873e+07
4.57517e+07
4.54844e+07
4.51888e+07
4.49288e+07
4.47157e+07
4.44707e+07
4.42011e+07
4.39678e+07
4.3769e+07
4.35447e+07
4.33134e+07
4.30759e+07
4.28686e+07
4.26772e+07
4.24687e+07
4.22556e+07
4.20665e+07
4.1895e+07
4.17093e+07
4.15169e+07
4.1349e+07
4.1198e+07
4.10348e+07
4.08655e+07
4.07202e+07
4.05934e+07
4.04557e+07
4.03115e+07
4.01944e+07
4.00967e+07
3.99894e+07
3.98757e+07
3.97911e+07
3.97325e+07
3.96635e+07
3.95865e+07
3.95519e+07
3.95428e+07
3.95281e+07
3.95076e+07
3.95283e+07
3.96043e+07
3.9669e+07
3.97256e+07
3.98848e+07
4.00853e+07
4.03163e+07
4.05784e+07
4.09408e+07
4.15438e+07
4.24029e+07
4.2789e+07
4.29217e+07
4.25166e+07
4.148e+07
4.07425e+07
4.02846e+07
3.97445e+07
3.94012e+07
3.93069e+07
3.89745e+07
3.85688e+07
3.80687e+07
3.74609e+07
3.68377e+07
3.62239e+07
3.5702e+07
3.52356e+07
3.47769e+07
4.6633e+07
4.62448e+07
4.5988e+07
4.57516e+07
4.54842e+07
4.51891e+07
4.49291e+07
4.47156e+07
4.44707e+07
4.42013e+07
4.3968e+07
4.3769e+07
4.35447e+07
4.33134e+07
4.3076e+07
4.28686e+07
4.26771e+07
4.24688e+07
4.22557e+07
4.20666e+07
4.1895e+07
4.17093e+07
4.15169e+07
4.13491e+07
4.1198e+07
4.10348e+07
4.08655e+07
4.07203e+07
4.05935e+07
4.04557e+07
4.03115e+07
4.01945e+07
4.00967e+07
3.99894e+07
3.98757e+07
3.97911e+07
3.97325e+07
3.96635e+07
3.95865e+07
3.95518e+07
3.95427e+07
3.9528e+07
3.95075e+07
3.95282e+07
3.96041e+07
3.96687e+07
3.97253e+07
3.98843e+07
4.00847e+07
4.03153e+07
4.05769e+07
4.09388e+07
4.15397e+07
4.23882e+07
4.27674e+07
4.28976e+07
4.2494e+07
4.14673e+07
4.07342e+07
4.02763e+07
3.97388e+07
3.93961e+07
3.92948e+07
3.89605e+07
3.85534e+07
3.80531e+07
3.74484e+07
3.6827e+07
3.6216e+07
3.56951e+07
3.52303e+07
3.47742e+07
4.66326e+07
4.62455e+07
4.59886e+07
4.57514e+07
4.54841e+07
4.51894e+07
4.49296e+07
4.47155e+07
4.44706e+07
4.42015e+07
4.39682e+07
4.37689e+07
4.35446e+07
4.33135e+07
4.30761e+07
4.28687e+07
4.26771e+07
4.24689e+07
4.22558e+07
4.20667e+07
4.18951e+07
4.17094e+07
4.1517e+07
4.13492e+07
4.11981e+07
4.10348e+07
4.08655e+07
4.07204e+07
4.05935e+07
4.04557e+07
4.03115e+07
4.01945e+07
4.00967e+07
3.99893e+07
3.98756e+07
3.97911e+07
3.97325e+07
3.96634e+07
3.95864e+07
3.95517e+07
3.95426e+07
3.95278e+07
3.95073e+07
3.9528e+07
3.96038e+07
3.96684e+07
3.9725e+07
3.98837e+07
4.00839e+07
4.03142e+07
4.05751e+07
4.09365e+07
4.15352e+07
4.23724e+07
4.27446e+07
4.2872e+07
4.247e+07
4.14546e+07
4.07253e+07
4.02675e+07
3.97326e+07
3.93904e+07
3.92821e+07
3.89458e+07
3.85373e+07
3.80368e+07
3.74354e+07
3.68163e+07
3.62076e+07
3.56879e+07
3.52238e+07
3.47704e+07
4.66321e+07
4.62461e+07
4.59893e+07
4.57512e+07
4.54839e+07
4.51898e+07
4.493e+07
4.47155e+07
4.44706e+07
4.42017e+07
4.39685e+07
4.37689e+07
4.35446e+07
4.33136e+07
4.30762e+07
4.28688e+07
4.26771e+07
4.2469e+07
4.22559e+07
4.20668e+07
4.18951e+07
4.17094e+07
4.15171e+07
4.13492e+07
4.11981e+07
4.10349e+07
4.08656e+07
4.07204e+07
4.05935e+07
4.04557e+07
4.03116e+07
4.01946e+07
4.00967e+07
3.99893e+07
3.98756e+07
3.97912e+07
3.97325e+07
3.96634e+07
3.95864e+07
3.95517e+07
3.95425e+07
3.95277e+07
3.95072e+07
3.95279e+07
3.96036e+07
3.9668e+07
3.97248e+07
3.9883e+07
4.00831e+07
4.0313e+07
4.05733e+07
4.09341e+07
4.15302e+07
4.23554e+07
4.27201e+07
4.28447e+07
4.24441e+07
4.14409e+07
4.07158e+07
4.02577e+07
3.97258e+07
3.93842e+07
3.92686e+07
3.89303e+07
3.85203e+07
3.80198e+07
3.74214e+07
3.68049e+07
3.61989e+07
3.56803e+07
3.52168e+07
3.47649e+07
4.66316e+07
4.62468e+07
4.599e+07
4.57509e+07
4.54837e+07
4.51901e+07
4.49304e+07
4.47153e+07
4.44704e+07
4.42019e+07
4.39687e+07
4.37687e+07
4.35445e+07
4.33136e+07
4.30763e+07
4.28688e+07
4.26771e+07
4.2469e+07
4.22559e+07
4.20668e+07
4.18951e+07
4.17094e+07
4.15171e+07
4.13493e+07
4.11981e+07
4.10349e+07
4.08656e+07
4.07204e+07
4.05935e+07
4.04556e+07
4.03116e+07
4.01946e+07
4.00966e+07
3.99893e+07
3.98756e+07
3.97911e+07
3.97324e+07
3.96633e+07
3.95863e+07
3.95515e+07
3.95423e+07
3.95275e+07
3.95069e+07
3.95276e+07
3.96031e+07
3.96675e+07
3.97242e+07
3.98821e+07
4.0082e+07
4.03115e+07
4.05709e+07
4.0931e+07
4.15242e+07
4.23377e+07
4.26951e+07
4.28166e+07
4.24176e+07
4.14261e+07
4.07063e+07
4.02481e+07
3.9719e+07
3.93777e+07
3.9255e+07
3.89145e+07
3.8503e+07
3.80024e+07
3.74073e+07
3.6793e+07
3.61901e+07
3.56731e+07
3.52128e+07
3.47632e+07
4.66311e+07
4.62475e+07
4.59907e+07
4.57506e+07
4.54835e+07
4.51904e+07
4.49309e+07
4.47151e+07
4.44703e+07
4.42021e+07
4.39689e+07
4.37686e+07
4.35444e+07
4.33136e+07
4.30764e+07
4.28689e+07
4.26771e+07
4.2469e+07
4.2256e+07
4.20669e+07
4.18951e+07
4.17094e+07
4.15172e+07
4.13493e+07
4.11981e+07
4.10348e+07
4.08656e+07
4.07205e+07
4.05935e+07
4.04556e+07
4.03116e+07
4.01946e+07
4.00966e+07
3.99892e+07
3.98755e+07
3.97911e+07
3.97323e+07
3.96631e+07
3.95862e+07
3.95514e+07
3.95421e+07
3.95272e+07
3.95066e+07
3.95273e+07
3.96026e+07
3.96669e+07
3.97237e+07
3.98811e+07
4.00807e+07
4.03097e+07
4.05683e+07
4.09276e+07
4.15176e+07
4.23187e+07
4.26684e+07
4.27868e+07
4.23893e+07
4.14104e+07
4.06959e+07
4.02376e+07
3.97116e+07
3.93706e+07
3.92404e+07
3.88979e+07
3.84848e+07
3.79841e+07
3.73924e+07
3.67806e+07
3.61808e+07
3.56651e+07
3.52073e+07
3.47606e+07
4.66306e+07
4.62482e+07
4.59915e+07
4.57503e+07
4.54832e+07
4.51908e+07
4.49314e+07
4.47149e+07
4.44701e+07
4.42024e+07
4.39692e+07
4.37684e+07
4.35443e+07
4.33136e+07
4.30766e+07
4.2869e+07
4.2677e+07
4.24691e+07
4.22561e+07
4.2067e+07
4.1895e+07
4.17094e+07
4.15173e+07
4.13494e+07
4.1198e+07
4.10348e+07
4.08656e+07
4.07205e+07
4.05935e+07
4.04556e+07
4.03116e+07
4.01945e+07
4.00966e+07
3.99892e+07
3.98755e+07
3.9791e+07
3.97322e+07
3.9663e+07
3.95861e+07
3.95512e+07
3.95419e+07
3.95269e+07
3.95062e+07
3.9527e+07
3.96021e+07
3.96662e+07
3.97231e+07
3.98801e+07
4.00794e+07
4.03078e+07
4.05655e+07
4.09239e+07
4.15103e+07
4.22983e+07
4.26402e+07
4.27552e+07
4.23594e+07
4.13936e+07
4.06846e+07
4.02262e+07
3.97036e+07
3.93628e+07
3.9225e+07
3.88804e+07
3.84658e+07
3.79651e+07
3.73768e+07
3.67675e+07
3.61709e+07
3.56566e+07
3.52e+07
3.47562e+07
4.66301e+07
4.6249e+07
4.59922e+07
4.575e+07
4.54829e+07
4.51912e+07
4.49319e+07
4.47148e+07
4.44699e+07
4.42027e+07
4.39695e+07
4.37682e+07
4.35442e+07
4.33135e+07
4.30768e+07
4.28691e+07
4.2677e+07
4.24691e+07
4.22562e+07
4.20671e+07
4.1895e+07
4.17094e+07
4.15174e+07
4.13495e+07
4.1198e+07
4.10348e+07
4.08657e+07
4.07206e+07
4.05935e+07
4.04556e+07
4.03116e+07
4.01946e+07
4.00965e+07
3.99891e+07
3.98755e+07
3.9791e+07
3.97321e+07
3.96628e+07
3.9586e+07
3.95511e+07
3.95417e+07
3.95266e+07
3.95059e+07
3.95267e+07
3.96015e+07
3.96655e+07
3.97224e+07
3.98789e+07
4.0078e+07
4.03058e+07
4.05624e+07
4.09198e+07
4.15024e+07
4.22766e+07
4.26102e+07
4.27219e+07
4.23278e+07
4.13756e+07
4.06724e+07
4.0214e+07
3.96949e+07
3.93542e+07
3.92087e+07
3.88619e+07
3.84458e+07
3.79453e+07
3.73604e+07
3.67539e+07
3.61606e+07
3.56477e+07
3.51918e+07
3.47504e+07
4.66296e+07
4.62498e+07
4.5993e+07
4.57498e+07
4.54827e+07
4.51916e+07
4.49325e+07
4.47146e+07
4.44698e+07
4.4203e+07
4.39699e+07
4.37681e+07
4.3544e+07
4.33136e+07
4.3077e+07
4.28693e+07
4.26769e+07
4.24692e+07
4.22564e+07
4.20673e+07
4.1895e+07
4.17094e+07
4.15175e+07
4.13496e+07
4.1198e+07
4.10348e+07
4.08658e+07
4.07207e+07
4.05935e+07
4.04555e+07
4.03116e+07
4.01946e+07
4.00965e+07
3.9989e+07
3.98754e+07
3.9791e+07
3.9732e+07
3.96627e+07
3.95859e+07
3.95509e+07
3.95414e+07
3.95263e+07
3.95055e+07
3.95264e+07
3.96009e+07
3.96647e+07
3.97218e+07
3.98777e+07
4.00763e+07
4.03035e+07
4.0559e+07
4.09153e+07
4.14936e+07
4.22534e+07
4.25786e+07
4.26866e+07
4.22944e+07
4.13564e+07
4.06592e+07
4.02008e+07
3.96854e+07
3.93448e+07
3.91914e+07
3.88425e+07
3.84249e+07
3.79246e+07
3.73431e+07
3.67395e+07
3.61497e+07
3.56382e+07
3.51831e+07
3.47422e+07
4.66291e+07
4.62506e+07
4.59938e+07
4.57494e+07
4.54824e+07
4.51921e+07
4.49331e+07
4.47144e+07
4.44696e+07
4.42034e+07
4.39703e+07
4.37679e+07
4.35439e+07
4.33136e+07
4.30773e+07
4.28695e+07
4.26769e+07
4.24692e+07
4.22566e+07
4.20675e+07
4.1895e+07
4.17094e+07
4.15176e+07
4.13498e+07
4.1198e+07
4.10348e+07
4.08659e+07
4.07208e+07
4.05934e+07
4.04555e+07
4.03116e+07
4.01946e+07
4.00965e+07
3.9989e+07
3.98754e+07
3.9791e+07
3.97319e+07
3.96626e+07
3.95858e+07
3.95508e+07
3.95412e+07
3.95259e+07
3.95052e+07
3.9526e+07
3.96003e+07
3.96639e+07
3.97211e+07
3.98764e+07
4.00746e+07
4.0301e+07
4.05553e+07
4.09104e+07
4.1484e+07
4.22287e+07
4.25451e+07
4.26495e+07
4.22591e+07
4.13358e+07
4.06449e+07
4.01866e+07
3.96752e+07
3.93345e+07
3.9173e+07
3.8822e+07
3.84031e+07
3.7903e+07
3.73249e+07
3.67244e+07
3.61382e+07
3.56282e+07
3.51739e+07
3.47333e+07
4.66285e+07
4.62514e+07
4.59946e+07
4.57491e+07
4.54821e+07
4.51926e+07
4.49337e+07
4.47142e+07
4.44695e+07
4.42038e+07
4.39708e+07
4.37678e+07
4.35438e+07
4.33136e+07
4.30776e+07
4.28697e+07
4.26769e+07
4.24694e+07
4.22568e+07
4.20677e+07
4.1895e+07
4.17095e+07
4.15178e+07
4.135e+07
4.1198e+07
4.10348e+07
4.0866e+07
4.0721e+07
4.05934e+07
4.04555e+07
4.03118e+07
4.01947e+07
4.00965e+07
3.9989e+07
3.98754e+07
3.9791e+07
3.97318e+07
3.96624e+07
3.95858e+07
3.95506e+07
3.95409e+07
3.95256e+07
3.95049e+07
3.95257e+07
3.95996e+07
3.96631e+07
3.97204e+07
3.9875e+07
4.00728e+07
4.02984e+07
4.05515e+07
4.09051e+07
4.14737e+07
4.22025e+07
4.25096e+07
4.26102e+07
4.22218e+07
4.13136e+07
4.06291e+07
4.0171e+07
3.9664e+07
3.93232e+07
3.91534e+07
3.88002e+07
3.83802e+07
3.78805e+07
3.73057e+07
3.67084e+07
3.6126e+07
3.56176e+07
3.5164e+07
3.47238e+07
4.6628e+07
4.62523e+07
4.59954e+07
4.57488e+07
4.54818e+07
4.51932e+07
4.49344e+07
4.4714e+07
4.44692e+07
4.42042e+07
4.39712e+07
4.37675e+07
4.35436e+07
4.33136e+07
4.30778e+07
4.28698e+07
4.26768e+07
4.24694e+07
4.2257e+07
4.20678e+07
4.18949e+07
4.17094e+07
4.15179e+07
4.135e+07
4.11979e+07
4.10348e+07
4.08661e+07
4.0721e+07
4.05933e+07
4.04554e+07
4.03117e+07
4.01947e+07
4.00963e+07
3.99888e+07
3.98754e+07
3.97909e+07
3.97316e+07
3.96622e+07
3.95856e+07
3.95503e+07
3.95405e+07
3.95251e+07
3.95043e+07
3.95251e+07
3.95986e+07
3.96619e+07
3.97193e+07
3.98731e+07
4.00703e+07
4.0295e+07
4.05467e+07
4.08986e+07
4.14616e+07
4.2175e+07
4.24732e+07
4.25698e+07
4.21834e+07
4.1291e+07
4.06134e+07
4.01555e+07
3.96525e+07
3.93115e+07
3.91337e+07
3.87783e+07
3.83567e+07
3.78575e+07
3.72864e+07
3.66925e+07
3.61136e+07
3.5607e+07
3.51543e+07
3.47158e+07
4.66274e+07
4.62532e+07
4.59963e+07
4.57485e+07
4.54815e+07
4.51937e+07
4.4935e+07
4.47137e+07
4.4469e+07
4.42046e+07
4.39716e+07
4.37673e+07
4.35434e+07
4.33136e+07
4.30781e+07
4.287e+07
4.26767e+07
4.24694e+07
4.22572e+07
4.2068e+07
4.18948e+07
4.17094e+07
4.15181e+07
4.13502e+07
4.11979e+07
4.10348e+07
4.08662e+07
4.07211e+07
4.05933e+07
4.04554e+07
4.03117e+07
4.01947e+07
4.00962e+07
3.99887e+07
3.98753e+07
3.97908e+07
3.97314e+07
3.96619e+07
3.95854e+07
3.955e+07
3.954e+07
3.95245e+07
3.95037e+07
3.95245e+07
3.95976e+07
3.96606e+07
3.97181e+07
3.98712e+07
4.00678e+07
4.02915e+07
4.05415e+07
4.08918e+07
4.14488e+07
4.21458e+07
4.24346e+07
4.25271e+07
4.2143e+07
4.12666e+07
4.05961e+07
4.01387e+07
3.96399e+07
3.92986e+07
3.91126e+07
3.87551e+07
3.83321e+07
3.78333e+07
3.72659e+07
3.66756e+07
3.61005e+07
3.55956e+07
3.51437e+07
3.47058e+07
4.66269e+07
4.62541e+07
4.59971e+07
4.57481e+07
4.54812e+07
4.51943e+07
4.49357e+07
4.47135e+07
4.44688e+07
4.4205e+07
4.39721e+07
4.37671e+07
4.35432e+07
4.33136e+07
4.30784e+07
4.28702e+07
4.26766e+07
4.24695e+07
4.22575e+07
4.20682e+07
4.18948e+07
4.17094e+07
4.15183e+07
4.13504e+07
4.11978e+07
4.10347e+07
4.08663e+07
4.07212e+07
4.05932e+07
4.04553e+07
4.03118e+07
4.01947e+07
4.00961e+07
3.99886e+07
3.98753e+07
3.97908e+07
3.97311e+07
3.96616e+07
3.95853e+07
3.95497e+07
3.95396e+07
3.95239e+07
3.95031e+07
3.95239e+07
3.95966e+07
3.96593e+07
3.97169e+07
3.98691e+07
4.0065e+07
4.02876e+07
4.0536e+07
4.08842e+07
4.14348e+07
4.21148e+07
4.23938e+07
4.24822e+07
4.21003e+07
4.12406e+07
4.05774e+07
4.01205e+07
3.96263e+07
3.92845e+07
3.90903e+07
3.87305e+07
3.83063e+07
3.78082e+07
3.72444e+07
3.66578e+07
3.60866e+07
3.55835e+07
3.51325e+07
3.46951e+07
4.66263e+07
4.6255e+07
4.5998e+07
4.57478e+07
4.54809e+07
4.51948e+07
4.49364e+07
4.47132e+07
4.44686e+07
4.42055e+07
4.39726e+07
4.37668e+07
4.3543e+07
4.33135e+07
4.30788e+07
4.28705e+07
4.26765e+07
4.24695e+07
4.22578e+07
4.20685e+07
4.18947e+07
4.17094e+07
4.15186e+07
4.13506e+07
4.11978e+07
4.10347e+07
4.08665e+07
4.07214e+07
4.05932e+07
4.04553e+07
4.03119e+07
4.01948e+07
4.0096e+07
3.99884e+07
3.98752e+07
3.97908e+07
3.97309e+07
3.96613e+07
3.95851e+07
3.95495e+07
3.95391e+07
3.95233e+07
3.95025e+07
3.95233e+07
3.95954e+07
3.96579e+07
3.97157e+07
3.9867e+07
4.0062e+07
4.02834e+07
4.05301e+07
4.08761e+07
4.14197e+07
4.2082e+07
4.23509e+07
4.2435e+07
4.20555e+07
4.12128e+07
4.05572e+07
4.0101e+07
3.96115e+07
3.92692e+07
3.90666e+07
3.87046e+07
3.82793e+07
3.77818e+07
3.72218e+07
3.66392e+07
3.60719e+07
3.55706e+07
3.51205e+07
3.46838e+07
4.66257e+07
4.6256e+07
4.59988e+07
4.57475e+07
4.54806e+07
4.51955e+07
4.49371e+07
4.4713e+07
4.44684e+07
4.42061e+07
4.39731e+07
4.37666e+07
4.35428e+07
4.33136e+07
4.30793e+07
4.28707e+07
4.26765e+07
4.24697e+07
4.22582e+07
4.20688e+07
4.18947e+07
4.17095e+07
4.15189e+07
4.13508e+07
4.11978e+07
4.10348e+07
4.08668e+07
4.07216e+07
4.05931e+07
4.04553e+07
4.03121e+07
4.0195e+07
4.0096e+07
3.99884e+07
3.98753e+07
3.97908e+07
3.97307e+07
3.96611e+07
3.95851e+07
3.95493e+07
3.95386e+07
3.95228e+07
3.95021e+07
3.95227e+07
3.95943e+07
3.96565e+07
3.97146e+07
3.98647e+07
4.00589e+07
4.02791e+07
4.05241e+07
4.08675e+07
4.14035e+07
4.20473e+07
4.23056e+07
4.23852e+07
4.20082e+07
4.11829e+07
4.05351e+07
4.00797e+07
3.95952e+07
3.92524e+07
3.90413e+07
3.8677e+07
3.82508e+07
3.77543e+07
3.71978e+07
3.66192e+07
3.60562e+07
3.55569e+07
3.51077e+07
3.46716e+07
4.66251e+07
4.6257e+07
4.59997e+07
4.57471e+07
4.54802e+07
4.51961e+07
4.49378e+07
4.47127e+07
4.44681e+07
4.42066e+07
4.39736e+07
4.37663e+07
4.35425e+07
4.33135e+07
4.30796e+07
4.28709e+07
4.26764e+07
4.24697e+07
4.22584e+07
4.2069e+07
4.18946e+07
4.17095e+07
4.15191e+07
4.1351e+07
4.11977e+07
4.10347e+07
4.08669e+07
4.07216e+07
4.0593e+07
4.04552e+07
4.03121e+07
4.01949e+07
4.00957e+07
3.99882e+07
3.98752e+07
3.97906e+07
3.97303e+07
3.96607e+07
3.95848e+07
3.95487e+07
3.95378e+07
3.95219e+07
3.95012e+07
3.95216e+07
3.95926e+07
3.96547e+07
3.97127e+07
3.98617e+07
4.00548e+07
4.02737e+07
4.05166e+07
4.08571e+07
4.13851e+07
4.2011e+07
4.2259e+07
4.2334e+07
4.19596e+07
4.11523e+07
4.05128e+07
4.00583e+07
3.95784e+07
3.92351e+07
3.90158e+07
3.86493e+07
3.82218e+07
3.77263e+07
3.71739e+07
3.65993e+07
3.60404e+07
3.55433e+07
3.50951e+07
3.46595e+07
4.66246e+07
4.6258e+07
4.60006e+07
4.57468e+07
4.54799e+07
4.51967e+07
4.49386e+07
4.47124e+07
4.44678e+07
4.42071e+07
4.39742e+07
4.3766e+07
4.35423e+07
4.33135e+07
4.308e+07
4.28712e+07
4.26763e+07
4.24697e+07
4.22588e+07
4.20692e+07
4.18945e+07
4.17094e+07
4.15194e+07
4.13512e+07
4.11976e+07
4.10347e+07
4.08671e+07
4.07218e+07
4.05929e+07
4.04551e+07
4.03122e+07
4.01949e+07
4.00955e+07
3.99879e+07
3.98752e+07
3.97905e+07
3.97299e+07
3.96602e+07
3.95845e+07
3.95483e+07
3.9537e+07
3.9521e+07
3.95003e+07
3.95207e+07
3.95909e+07
3.96527e+07
3.97108e+07
3.98587e+07
4.00506e+07
4.02679e+07
4.05086e+07
4.08461e+07
4.13656e+07
4.19725e+07
4.22098e+07
4.22801e+07
4.19085e+07
4.11194e+07
4.04885e+07
4.00352e+07
3.95602e+07
3.92161e+07
3.89886e+07
3.86199e+07
3.81913e+07
3.76969e+07
3.71485e+07
3.65784e+07
3.60236e+07
3.55286e+07
3.50814e+07
3.46465e+07
4.6624e+07
4.6259e+07
4.60014e+07
4.57464e+07
4.54796e+07
4.51974e+07
4.49393e+07
4.47122e+07
4.44676e+07
4.42077e+07
4.39748e+07
4.37658e+07
4.3542e+07
4.33135e+07
4.30805e+07
4.28715e+07
4.26762e+07
4.24699e+07
4.22592e+07
4.20695e+07
4.18945e+07
4.17096e+07
4.15197e+07
4.13514e+07
4.11975e+07
4.10347e+07
4.08674e+07
4.0722e+07
4.05928e+07
4.0455e+07
4.03124e+07
4.01949e+07
4.00953e+07
3.99878e+07
3.98752e+07
3.97904e+07
3.97295e+07
3.96599e+07
3.95844e+07
3.95479e+07
3.95362e+07
3.95201e+07
3.94996e+07
3.95197e+07
3.95892e+07
3.96507e+07
3.97091e+07
3.98555e+07
4.00462e+07
4.02619e+07
4.05004e+07
4.08344e+07
4.13447e+07
4.1932e+07
4.2158e+07
4.22233e+07
4.18546e+07
4.10842e+07
4.04621e+07
4.001e+07
3.95402e+07
3.91954e+07
3.89596e+07
3.85885e+07
3.81593e+07
3.7666e+07
3.71215e+07
3.65558e+07
3.60056e+07
3.55128e+07
3.50666e+07
3.46325e+07
4.66235e+07
4.62601e+07
4.60023e+07
4.57461e+07
4.54793e+07
4.51981e+07
4.49401e+07
4.47119e+07
4.44674e+07
4.42082e+07
4.39753e+07
4.37654e+07
4.35417e+07
4.33134e+07
4.30809e+07
4.28718e+07
4.2676e+07
4.24698e+07
4.22595e+07
4.20697e+07
4.18943e+07
4.17095e+07
4.152e+07
4.13516e+07
4.11973e+07
4.10346e+07
4.08675e+07
4.0722e+07
4.05925e+07
4.04548e+07
4.03124e+07
4.01948e+07
4.00949e+07
3.99875e+07
3.9875e+07
3.97901e+07
3.97288e+07
3.96592e+07
3.95839e+07
3.95471e+07
3.95351e+07
3.95189e+07
3.94983e+07
3.95182e+07
3.95869e+07
3.96481e+07
3.97064e+07
3.98514e+07
4.00406e+07
4.02547e+07
4.04904e+07
4.08205e+07
4.13212e+07
4.18895e+07
4.21049e+07
4.2165e+07
4.17993e+07
4.1048e+07
4.04353e+07
3.99847e+07
3.95197e+07
3.9174e+07
3.89304e+07
3.8557e+07
3.81265e+07
3.76347e+07
3.70947e+07
3.65336e+07
3.59874e+07
3.54972e+07
3.50522e+07
3.46187e+07
4.6623e+07
4.62612e+07