/*--------------------------------*- C++ -*----------------------------------*\
| =========                 |                                                 |
| \\      /  F ield         | OpenFOAM: The Open Source CFD Toolbox           |
|  \\    /   O peration     | Version:  v2012                                 |
|   \\  /    A nd           | Website:  www.openfoam.com                      |
|    \\/     M anipulation  |                                                 |
\*---------------------------------------------------------------------------*/
FoamFile
{
    version     2.0;
    format      ascii;
    class       volScalarField;
    location    "1e-06";
    object      totalP;
}
// * * * * * * * * * * * * * * * * * * * * * * * * * * * * * * * * * * * * * //

dimensions      [1 -1 -2 0 0 0 0];


internalField   nonuniform List<scalar> 
10262
(
157986
107958
118323
117607
116606
112213
110974
115349
114775
110553
110425
114104
112587
112760
109925
110924
113158
112304
109975
110471
112839
112284
109736
110348
112626
112237
109680
110136
112589
112358
109466
110107
112620
112567
109471
109736
112988
113083
108716
110196
113031
113460
109472
108318
114422
114860
105388
111054
112353
113354
108227
97696.8
89375.7
145124
124772
143557
160663
89921.5
93812.9
126267
102858
91467.8
132656
115589
117969
121099
113829
114011
105785
108339
110729
111954
159677
109676
120257
119077
117894
113636
112521
116593
115814
111764
111792
115230
113496
113847
111169
111993
114000
113307
111131
111503
113668
113220
110823
111351
113440
113118
110705
111110
113384
113186
110432
111047
113389
113342
110373
110632
113722
113797
109549
111034
113708
114108
110209
109064
115027
115405
106014
111680
112813
113783
108629
98070.1
89633.1
144597
124219
143240
160591
90076.3
94494.7
126956
103456
92125.4
133089
116066
118227
121357
114559
114799
106745
109416
112190
113331
162091
112229
122790
121443
120132
115727
114579
118560
117686
113576
113578
116971
115122
115510
112792
113614
115544
114877
112669
113037
115176
114720
112296
112819
114891
114557
112119
112517
114777
114565
111786
112392
114719
114656
111659
111906
114978
115030
110752
112222
114864
115242
111296
110129
116062
116382
106949
112579
113626
114565
109279
98655.4
90122.8
145841
125620
144825
161360
90199.6
95345.6
127819
104358
93260.6
134625
117717
120210
123171
116249
114957
108347
111162
114043
115202
162233
112388
122946
121580
120266
115840
114691
118665
117822
113671
113673
117061
115496
115597
112875
113696
115811
114959
112746
113115
115295
114796
112369
112892
114983
114630
112188
112586
114857
114635
111851
112457
114792
114724
111720
111966
115045
115096
110808
112277
114924
115305
111345
110178
116114
116437
106991
112617
113667
114611
109305
98680
90174.1
145045
124846
144100
161081
90762.4
95422
127829
104354
93343.1
134330
117435
119825
122822
116058
116387
108527
111265
114147
115299
163999
114668
125245
123820
122368
117816
116639
120519
119576
115379
115362
118699
116965
117156
114401
115216
117215
116425
114188
114551
116691
116193
113746
114264
116329
115969
113509
113900
116151
115918
113115
113714
116028
115946
112921
113158
116214
116244
111934
113389
116007
116364
112368
111183
117086
117358
107878
113471
114450
115355
109943
99264.6
90691.4
145917
125676
145161
161675
91218.3
96113.2
128471
105126
94282.9
135348
118590
121180
124137
117459
117624
109829
112684
115716
116892
165380
116756
127381
125985
124400
119730
118527
122311
121259
117023
116989
120274
118343
118646
115860
116667
118527
117820
115560
115916
118007
117518
115053
115565
117599
117236
114760
115145
117372
117130
114312
114904
117196
117101
114060
114289
117322
117332
113005
114448
117037
117371
113348
112148
118018
118245
108739
114304
115221
116088
110590
99866.7
91251.4
146002
125926
145534
161954
91288.7
96581.1
128901
105606
95043.1
136008
119369
122066
125062
118471
118642
110897
113856
117015
118225
165448
116880
127507
126116
124541
119850
118647
122425
121418
117131
117096
120374
118727
118745
115955
116761
118821
117913
115649
116006
118149
117607
115138
115649
117708
117322
114841
115226
117467
117213
114389
114981
117283
117183
114133
114361
117402
117412
113073
114515
117110
117448
113409
112209
118083
118315
108795
114351
115275
116148
110626
99902
91354.8
146055
125986
145685
161919
91854.2
96689.8
128903
105657
95171.4
135991
119443
122184
125110
118562
118675
111034
113928
117119
118324
166366
118608
129314
128090
126438
121656
120431
124123
123005
118687
118637
121862
120001
120149
117329
118128
120029
119222
116936
117287
119373
118846
116361
116867
118891
118505
116010
116390
118606
118345
115508
116093
118373
118261
115199
115419
118437
118428
114077
115509
118076
118391
114332
113121
118960
119153
109615
115142
116015
116848
111255
100491
91937.4
146403
126451
146207
162329
92334.4
97182.9
129288
106126
95831.7
136550
120149
122995
125941
119589
119557
111953
114903
118191
119426
166410
118706
129416
128203
126569
121768
120544
124228
123167
118789
118738
121956
120388
120244
117420
118218
120332
119312
117022
117373
119521
118932
116443
116949
119002
118588
116088
116468
118701
118426
115583
116167
118460
118342
115269
115490
118518
118509
114144
115574
118150
118471
114393
113182
119025
119225
109673
115188
116071
116912
111289
100527
92078.1
146335
126465
146204
162233
92462
97281
129255
106168
95986.9
136495
120216
123076
125946
120440
119591
112081
114960
118282
119517
167006
120135
130952
130060
128453
123616
122378
125980
124796
120403
120338
123496
121648
121694
118841
119631
121533
120661
118349
118694
120763
120206
117702
118202
120209
119802
117289
117664
119863
119584
116731
117309
119572
119444
116362
116576
119575
119547
115175
116594
119138
119434
115343
114123
119924
120084
110520
116004
116839
117631
111946
101151
92718.7
146809
127083
146964
162770
93043
97872.1
129691
106696
96659
137022
120922
123860
126745
120541
120412
112922
115804
119242
120530
167367
121223
132150
131699
130238
125453
124200
127749
126424
122039
121955
125052
122882
123146
120261
121040
122700
122002
119668
120006
121974
121466
118949
119442
121390
120999
118477
118845
121002
120725
117866
118437
120665
120530
117445
117651
120617
120572
116201
117609
120122
120390
116299
115069
120828
120949
111390
116842
117632
118378
112651
101829
93444.2
147096
127522
147481
163146
93216.3
98343.5
130033
107032
97271.7
137410
121495
124491
127379
121317
121113
113626
116519
120022
121375
167377
121281
132215
131778
130352
125551
124310
127847
126604
122142
122062
125147
123269
123248
120357
121138
123012
122101
119762
120100
122142
121560
119039
119532
121518
121092
118564
118932
121112
120818
117949
118521
120766
120623
117524
117731
120710
120666
116277
117683
120207
120484
116367
115141
120905
121035
111461
116895
117701
118459
112690
101875
93660.2
147056
127581
147484
163014
93964.5
98511.2
129985
107094
97498.7
137320
121583
124593
127383
121426
121126
113787
116569
120073
121455
167540
121970
133000
133021
131849
127214
125974
129516
128158
123742
123644
126672
124465
124665
121746
122512
124124
123399
121039
121369
123295
122774
120241
120727
122644
122241
119706
120069
122199
121910
119040
119606
121810
121661
118565
118766
121708
121646
117266
118661
121150
121400
117290
116057
121774
121865
112309
117708
118473
119180
113379
102544
94417.7
147440
128162
148058
163474
94691.2
99140
130383
107581
98152.9
137680
122166
125189
127957
122165
121771
114459
117232
120769
122194
167539
122017
133053
133088
131956
127310
126085
129612
128352
123849
123759
126769
124856
124775
121848
122618
124448
123506
121139
121472
123481
122877
120339
120826
122785
122343
119801
120163
122322
122012
119131
119697
121922
121765
118653
118854
121809
121749
117349
118743
121244
121503
117365
116138
121858
121960
112390
117765
118551
119273
113419
102598
94689.3
147358
128223
148073
163301
94946
99318.1
130302
107656
98430.4
137557
122266
125295
127952
122276
121781
114639
117289
120803
122263
167600
122429
133540
133980
133160
128767
127563
131169
129848
125455
125352
128325
126055
126234
123287
124036
125563
124840
122453
122775
124638
124116
121567
122046
123918
123509
120963
121320
123415
123117
120239
120799
122974
122812
119710
119906
122818
122738
118359
119739
122201
122430
118311
117078
122744
122803
113270
118605
119349
120015
114142
103314
95533
147755
128864
148728
163770
95871.2
100049
130736
108198
99153.7
137899
122872
125866
128492
122998
122399
115286
117922
121446
122941
167589
122466
133581
134027
133247
128848
127659
131250
130039
125554
125460
128411
126451
126341
123383
124140
125895
124947
122549
122877
124834
124219
121664
122144
124064
123611
121057
121414
123540
123221
120331
120890
123086
122919
119799
119994
122922
122844
118442
119822
122298
122538
118386
117160
122831
122902
113356
118659
119431
120116
114179
103378
95861.7
147646
128938
148727
163543
96097.3
100262
130621
108293
99484
137741
122982
125978
128473
123113
122330
115479
117981
121476
122989
167599
122692
133856
134598
134122
130010
128856
132585
131382
127078
126986
129943
127617
127825
124865
125597
127010
126322
123916
124227
126005
125495
122934
123404
125216
124806
122253
122603
124653
124347
121467
122020
124157
123982
120881
121071
123945
123848
119478
120843
123271
123477
119359
118130
123735
123758
114270
119528
120255
120878
114938
104145
96797.8
148068
129661
149398
164043
96525
101083
131098
108920
100304
138091
123640
126581
129000
123863
122368
116107
118608
122108
123640
167578
122716
133883
134617
134176
130062
128917
132631
131539
127144
127056
129992
128014
127892
124926
125661
127340
126391
123974
124290
126186
125561
122993
123464
125340
124875
122310
122660
124753
124420
121523
122076
124244
124062
120937
121127
124026
123933
119536
120897
123350
123572
119415
118194
123809
123849
114353
119573
120338
120989
114975
104230
97214.4
147839
129636
149309
163599
97580.2
101247
130835
108901
100618
137806
123670
126658
128910
123893
122960
116286
118649
122149
123685
167556
122734
133902
134617
134205
130084
128947
132643
131674
127176
127093
130011
128343
127924
124961
125702
127643
126437
124010
124334
126363
125610
123033
123507
125456
124927
122352
122702
124843
124478
121563
122116
124319
124126
120973
121165
124089
123999
119572
120927
123405
123644
119440
118227
123850
123909
114392
119567
120375
121048
114942
104245
97569.4
147752
129817
149316
163368
98011.6
101549
130716
109035
101067
137626
123822
126809
128884
124018
122940
116499
118753
122246
123804
167538
122859
134053
134939
134778
130935
129840
133693
132763
128519
128455
131421
129480
129393
126448
127164
128776
127851
125430
125735
127553
126937
124364
124826
126641
126172
123604
123947
125990
125648
122751
123296
125424
125226
122106
122290
125148
125036
120655
121994
124415
124614
120458
119246
124790
124793
115364
120483
121244
121848
115755
105093
98652.3
148141
130615
150020
163773
99214.9
102507
131196
109730
102011
137968
124546
127424
129409
124763
123567
117162
119366
122863
124457
167510
122887
134082
134949
134820
130988
129903
133735
132912
128593
128536
131477
129762
129467
126526
127251
129071
127944
125508
125827
127774
127034
124449
124916
126807
126273
123690
124035
126127
125754
122836
123381
125544
125338
122186
122373
125256
125147
120735
122068
124515
124734
120529
119327
124878
124902
115460
120524
121335
121967
115776
105180
99139.8
147951
130738
149970
163388
99715.5
102799
130969
109890
102486
137713
124672
127553
129368
124870
123535
117389
119445
122882
124474
167480
122961
134167
135108
135158
131559
130518
134489
133726
129674
129642
132665
130767
130797
127920
128628
130162
129327
126926
127225
128943
128379
125818
126269
128000
127552
124994
125328
127300
126961
124077
124613
126679
126473
123370
123549
126346
126214
121869
123185
125557
125728
121595
120399
125849
125808
116487
121488
122243
122792
116639
106103
100329
148356
131652
150731
163794
101043
103884
131508
110671
103550
138103
125487
128208
129925
125677
124207
118088
120107
123550
125143
167445
122989
134193
135106
135182
131603
130572
134516
133842
129737
129713
132706
131018
130865
127990
128705
130434
129413
126999
127310
129163
128472
125899
126355
128171
127652
125077
125415
127442
127069
124161
124696
126805
126589
123451
123630
126457
126331
121951
123258
125662
125856
121666
120480
125939
125922
116589
121524
122338
122920
116656
106205
100889
148124
131816
150656
163342
101616
104213
131234
110831
104081
137809
125614
128345
129877
125777
124165
118329
120201
123597
125163
167405
123040
134245
135172
135361
131960
130965
135012
134410
130546
130547
133623
131784
131964
129190
129900
131369
130672
128327
128628
130259
129774
127251
127694
129336
128929
126402
126728
128616
128294
125441
125969
127959
127750
124681
124858
127577
127426
123135
124428
126737
126876
122786
121613
126944
126853
117676
122541
123287
123774
117571
107210
102190
148533
132862
151486
163749
103091
105445
131840
111725
105274
138266
126534
129049
130484
126670
124911
119090
120937
124373
125916
167359
123068
134266
135158
135367
131993
131008
135022
134487
130595
130600
133644
132044
132013
129245
129955
131652
130737
128383
128690
130461
129845
127312
127757
129494
129011
126466
126793
128749
128388
125507
126033
128078
127857
124749
124924
127686
127542
123213
124492
126844
127011
122861
121699
127046
126980
117807
122596
123411
123938
117631
107388
102887
148186
132929
151233
163104
103611
105653
131372
111867
105757
137802
126532
129123
130354
126628
124744
119274
120969
124352
125888
167318
123104
134292
135138
135362
132012
131037
135010
134544
130619
130627
133637
132188
132024
129265
129978
131834
130765
128403
128720
130639
129883
127339
127788
129633
129062
126495
126825
128860
128452
125538
126063
128170
127934
124777
124953
127762
127626
123244
124508
126910
127105
122873
121721
127086
127051
117850
122551
123449
124011
117550
107430
103460
147947
133242
151132
162642
104405
106132
131139
112100
106443
137545
126738
129314
130338
126769
124802
119585
121154
124474
125969
167266
123149
134327
135153
135445
132229
131283
135306
134896
131191
131227
134296
132792
132882
130233
130944
132617
131831
129560
129873
131591
131062
128600
129037
130710
130280
127792
128112
129997
129660
126831
127346
129320
129103
126047
126218
128900
128741
124486
125734
128021
128157
124058
122928
128137
128016
119024
123644
124457
124915
118546
108567
104936
148311
134405
151931
162978
106015
107484
131758
113089
107746
138025
127744
130076
130986
127742
125633
120411
121943
125297
126766
167212
123190
134353
135131
135440
132262
131328
135305
134943
131240
131280
134309
132923
132922
130287
130999
132778
131892
129616
129938
131767
131137
128666
129107
130870
130371
127864
128185
130140
129768
126908
127420
129452
129226
126124
126293
129020
128872
124572
125801
128135
128304
124128
123008
128233
128143
119147
123665
124565
125065
118557
108728
105678
147975
134658
151690
162350
106789
107898
131373
113338
108409
137656
127865
130221
130943
127839
125578
120690
122064
125366
126792
167150
123234
134378
135119
135472
132392
131482
135465
135152
131617
131682
134745
133322
133535
131015
131727
133342
132721
130546
130871
132535
132115
129742
130181
131794
131439
129032
129352
131164
130874
128124
128635
130532
130334
127357
127531
130120
129955
125807
127027
129233
129345
125332
124243
129289
129110
120362
124795
125595
125985
119596
109950
107255
148360
135973
152539
162709
108563
109432
132091
114416
109837
138248
128995
131052
131677
128959
126641
121636
122961
126312
127718
167080
123280
134401
135089
135456
132422
131525
135450
135174
131659
131729
134743
133469
133563
131064
131770
133519
132770
130596
130925
132688
132175
129801
130239
131933
131516
129098
129415
131295
130972
128197
128702
130658
130455
127438
127607
130244
130092
125907
127104
129362
129508
125431
124355
129413
129267
120546
124868
125757
126194
119699
110244
108165
147924
136114
152073
161877
109267
109697
131494
114628
110420
137683
128943
131093
131535
128846
126441
121831
123005
126253
127629
167019
123341
134432
135057
135436
132447
131563
135423
135181
131686
131759
134721
133525
133563
131085
131788
133595
132784
130612
130947
132799
132200
129822
130261
132042
131558
129120
129437
131395
131034
128221
128721
130749
130535
127460
127625
130322
130184
125936
127106
129430
129612
125433
124366
129449
129336
120594
124790
125792
126270
119588
110326
108886
147561
136530
151805
161253
110270
110322
131213
114995
111240
137419
129177
131298
131561
129010
126545
122208
123264
126430
127744
166942
123395
134452
135026
135434
132532
131668
135497
135286
131930
132024
134984
133803
133977
131608
132310
134016
133396
131327
131663
133377
132958
130692
131128
132771
132428
130108
130423
132246
131974
129297
129798
131691
131516
128597
128770
131323
131176
127119
128284
130469
130602
126621
125598
130480
130283
121841
125946
126835
127208
120687
111673
110609
147901
137970
152599
161557
112172
112001
131972
116172
112752
138055
130376
132176
132351
130210
127728
123229
124233
127472
128746
166854
123457
134475
134987
135408
132563
131715
135471
135286
131972
132071
134971
133875
133994
131655
132349
134105
133433
131375
131713
133483
133009
130749
131183
132884
132499
130172
130485
132362
132069
129371
129865
131811
131636
128682
128849
131446
131317
127231
128367
130604
130773
126735
125725
130614
130447
122060
126033
127018
127437
120827
112055
111637
147396
138155
151985
160624
112959
112315
131323
116417
113376
137459
130285
132189
132201
130052
127514
123406
124290
127399
128637
166778
123538
134509
134950
135380
132593
131760
135435
135276
132002
132106
134940
133914
133987
131680
132366
134152
133440
131392
131733
133560
133025
130769
131201
132966
132531
130191
130501
132441
132119
129391
129879
131887
131706
128700
128861
131512
131400
127257
128360
130663
130870
126732
125729
130637
130507
122110
125934
127042
127506
120708
112173
112427
146942
138622
151577
159921
114037
113032
131043
116900
114254
137221
130528
132418
132244
130233
127633
123834
124589
127612
128769
166683
123606
134526
134904
135356
132654
131841
135454
135318
132164
132284
135083
134088
134246
132038
132719
134426
133860
131912
132256
133966
133579
131438
131868
133507
133193
130981
131291
133100
132863
130283
130771
132649
132509
129674
129847
132355
132242
128313
129415
131580
131747
127832
126886
131585
131380
123331
127060
128054
128422
121838
113625
114256
147202
140131
152282
160171
116013
114813
131854
118184
115809
137881
131764
133310
133036
131380
128868
124854
125586
128689
129800
166586
123692
134554
134860
135321
132690
131894
135418
135301
132207
132334
135059
134120
134251
132084
132754
134457
133883
131956
132300
134027
133615
131490
131915
133583
133248
131037
131341
133185
132939
130345
130824
132737
132604
129742
129906
132445
132352
128401
129466
131675
131878
127910
126969
131663
131488
123501
127068
128164
128576
121891
113947
115230
146663
140479
151654
159274
116971
115385
131392
118581
116580
137487
131831
133392
132974
131455
128832
125118
125783
128750
129824
166479
123771
134567
134805
135283
132737
131961
135404
135307
132318
132457
135126
134217
134403
132323
132984
134609
134152
132312
132658
134293
133993
131973
132396
133967
133725
131631
131936
133676
133497
131036
131518
133323
133225
130517
130694
133111
133021
129266
130330
132421
132596
128832
127953
132455
132222
124580
128051
129059
129385
122930
115354
117015
146901
142026
152339
159527
118996
117294
132299
119993
118172
138249
133097
134331
133775
132726
130069
126203
126802
129876
130866
166357
123863
134587
134753
135240
132774
132016
135359
135281
132361
132507
135092
134256
134402
132370
133016
134649
134168
132359
132700
134347
134021
132030
132444
134032
133772
131696
131992
133750
133565
131113
131583
133407
133318
130608
130776
133205
133135
129391
130419
132534
132747
128968
128102
132573
132377
124852
128164
129252
129634
123160
115902
118158
146379
142211
151518
158457
119842
117657
131634
120275
118807
137620
132914
134263
133580
132471
129829
126331
126839
129745
130697
166255
123984
134626
134708
135197
132814
132074
135311
135247
132400
132552
135049
134265
134385
132402
133034
134638
134161
132382
132721
134358
134019
132053
132460
134057
133783
131716
132005
133782
133591
131130
131590
133439
133355
130622
130778
133229
133175
129411
130398
132551
132789
128955
128095
132549
132370
124902
128038
129232
129642
123049
116097
118971
145829
142596
150919
157590
120922
118473
131420
120880
119703
137461
133161
134432
133616
132671
130020
126707
127177
130024
130885
166128
124081
134635
134643
135144
132856
132136
135272
135226
132482
132646
135065
134324
134467
132568
133185
134725
134322
132625
132962
134522
134258
132391
132793
134308
134104
132147
132434
134122
133984
131649
132111
133863
133808
131221
131390
133727
133677
130098
131082
133126
133346
129701
128902
133171
132955
125830
128862
129987
130338
124005
117469
120689
145997
143936
151461
157703
122881
120347
132295
122297
121240
138175
134314
135310
134358
133766
131190
127739
128143
131084
131845
165985
124192
134651
134584
135090
132897
132198
135218
135187
132529
132699
135023
134344
134458
132617
133216
134732
134327
132673
133002
134543
134273
132448
132838
134344
134137
132211
132487
134171
134037
131725
132174
133925
133884
131315
131471
133801
133772
130229
131173
133221
133474
129845
129058
133269
133082
126120
128985
130169
130571
124288
118103
121830
145527
143973
150649
156546
123683
120733
131676
122591
121822
137573
134082
135160
134133
133478
130944
127790
128165
130924
131640
165867
124337
134692
134536
135040
132945
132264
135163
135144
132574
132750
134973
134345
134436
132653
133236
134707
134313
132700
133023
134534
134262
132474
132853
134345
134136
132232
132498
134178
134045
131743
132179
133932
133900
131328
131470
133800
133786
130247
131146
133211
133485
129826
129044
133212
133038
126167
128850
130119
130543
124202
118352
122603
144992
144064
150041
155550
124680
121556
131526
123230
122680
137469
134311
135292
134161
133682
131157
128168
128516
131228
131842
165720
124456
134697
134463
134973
132985
132326
135105
135103
132641
132827
134954
134376
134472
132772
133336
134744
134400
132865
133182
134622
134399
132703
133074
134492
134332
132525
132789
134389
134295
132105
132542
134210
134201
131757
131910
134141
134131
130757
131648
133619
133881
130385
129661
133654
133453
126903
129472
130692
131077
125002
119599
124151
145063
144879
150446
155374
126444
123292
132332
124556
124082
138091
135309
136019
134792
134593
132231
129088
129391
132171
132683
165554
124584
134709
134398
134909
133031
132393
135042
135053
132691
132884
134904
134380
134456
132823
133367
134726
134395
132914
133221
134618
134403
132760
133116
134502
134352
132588
132839
134414
134332
132182
132604
134248
134257
131852
131991
134192
134204
130892
131742
133693
133981
130535
129824
133730
133547
127204
129607
130857
131279
125337
120312
125251
144748
144548
149768
154072
127135
123674
131779
124841
124556
137512
135018
135776
134537
134509
131951
129061
129360
131977
132446
165424
124750
134750
134350
134852
133086
132467
134983
135002
132742
132940
134850
134378
134431
132864
133388
134697
134375
132944
133242
134598
134383
132788
133130
134489
134339
132607
132848
134402
134323
132197
132604
134233
134252
131860
131984
134167
134194
130902
131706
133657
133966
130504
129797
133641
133476
127235
129459
130776
131227
125276
120591
125935
144303
144206
149268
152957
128010
124473
131715
125490
125373
137472
135208
135878
134424
135361
132362
129466
129719
132309
132655
165267
124880
134750
134274
134777
133124
132526
134914
134948
132798
133004
134811
134388
134437
132951
133455
134700
134414
133060
133349
134634
134455
132944
133276
134564
134452
132803
133043
134522
134472
132445
132849
134401
134437
132160
132289
134382
134412
131270
132062
133929
134227
130914
130260
133942
133751
127810
129927
131199
131616
125948
121697
127231
144440
144466
149638
152526
129405
125906
132409
126574
126480
137930
135972
136322
135057
134976
132967
130141
130375
133019
133316
165114
125032
134771
134218
134714
133174
132597
134851
134895
132850
133062
134759
134382
134416
133000
133483
134668
134399
133101
133381
134613
134444
132989
133305
134551
134453
132845
133075
134516
134478
132493
132882
134401
134451
132213
132328
134382
134429
131344
132094
133935
134250
130976
130329
133923
133742
127974
129933
131229
131671
126123
122210
127997
144174
143900
149162
151324
130013
126419
132169
126990
127005
137655
135871
136155
134899
135149
133067
130277
130476
133066
133314
164958
125167
134769
134145
134636
133210
132653
134777
134835
132899
133117
134709
134379
134406
133067
133531
134653
134410
133185
133455
134622
134478
133099
133404
134588
134516
132979
133207
134584
134565
132664
133047
134501
134564
132418
132536
134514
134565
131601
132335
134109
134416
131260
130658
134112
133916
128404
130261
131528
131945
126655
123140
129046
144227
143858
149386
150809
131157
127639
132766
127958
127955
138028
136447
136489
135259
135704
133749
130873
131003
133648
133833
164804
125322
134786
134091
134571
133261
132724
134714
134780
132950
133173
134658
134371
134383
133113
133557
134619
134392
133225
133484
134597
134463
133140
133430
134571
134511
133016
133237
134572
134562
132708
133076
134493
134568
132466
132570
134506
134569
131666
132362
134105
134424
131314
130722
134085
133897
128553
130270
131553
131994
126846
123650
129709
144047
143210
148898
149686
131647
128077
132593
128303
128396
137764
136315
136273
135122
135644
133797
130961
131075
133677
133825
164650
125462
134783
134021
134493
133295
132777
134639
134717
132994
133221
134603
134360
134363
133168
133593
134591
134387
133289
133538
134588
134475
133221
133499
134583
134544
133112
133330
134605
134610
132830
133190
134549
134633
132611
132715
134583
134647
131850
132529
134211
134520
131513
130958
134193
133990
128878
130502
131763
132178
127282
124450
130552
143950
143003
148904
149119
132543
129106
133117
129153
129196
138047
136742
136489
135361
136141
134338
131449
131505
134161
134252
164477
125599
134779
133959
134422
133338
132840
134572
134659
133042
133274
134550
134349
134339
133214
133619
134558
134368
133332
133569
134564
134463
133268
133531
134570
134542
133161
133371
134600
134616
132892
133239
134555
134650
132687
132782
134598
134674
131959
132606
134245
134564
131635
131098
134229
134037
129129
130642
131894
132331
127657
125123
131251
143871
142407
148370
148102
132869
129333
132836
129315
129354
137582
136380
136129
135079
135814
134010
131331
131377
133913
133992
164346
125775
134810
133922
134364
133395
132916
134517
134604
133094
133330
134502
134335
134314
133257
133643
134519
134342
133364
133590
134529
134436
133293
133543
134539
134516
133175
133378
134566
134585
132901
133234
134515
134614
132683
132766
134544
134624
131949
132561
134176
134496
131584
131053
134108
133916
129119
130511
131790
132243
127664
125396
131591
143492
141824
147757
147169
133262
129845
132937
129784
129909
137598
136486
136099
135099
136003
134169
131603
131647
134230
134211
164191
125911
134797
133855
134285
133424
132963
134441
134538
133133
133372
134445
134318
134287
133302
133670
134486
134327
133415
133631
134511
134437
133357
133595
134539
134531
133252
133450
134582
134612
132999
133324
134550
134656
132799
132882
134596
134678
132102
132696
134254
134565
131753
131255
134191
133989
129409
130726
131980
132426
128110
126151
132279
143539
141738
147578
146689
133924
130614
133374
130419
130467
137728
136726
136169
135210
136280
134556
131928
131931
134520
134471
164041
126063
134803
133810
134222
133471
133029
134382
134483
133181
133423
134398
134302
134263
133345
133696
134449
134304
133452
133656
134480
134419
133390
133617
134516
134515
133283
133473
134561
134598
133034
133346
134531
134644
132835
132908
134574
134662
132150
132714
134234
134547
131791
131302
134147
133949
129527
130745
131997
132463
128330
126607
132678
143279
141346
146916
145842
134173
130916
133321
130676
130729
137527
136576
135965
135056
136210
134585
131995
131964
134537
134446
163892
126199
134789
133749
134145
133498
133073
134308
134416
133216
133459
134341
134279
134233
133383
133717
134411
134282
133493
133686
134455
134411
133437
133655
134506
134516
133341
133525
134562
134608
133106
133410
134545
134663
132920
132992
134600
134688
132263
132809
134278
134581
131912
131451
134188
133984
129754
130906
132141
132601
128716
127257
133203
143182
141287
146587
145388
134719
131592
133734
131245
131229
137660
136777
136027
135145
136451
134918
132298
132220
134810
134715
163747
126347
134790
133707
134084
133543
133136
134253
134362
133262
133508
134296
134263
134210
133424
133741
134375
134259
133528
133708
134424
134393
133466
133676
134482
134498
133370
133547
134540
134592
133139
133429
134525
134648
132952
133015
134577
134669
132306
132824
134255
134558
131945
131494
134144
133943
129863
130931
132163
132645
128943
127685
133516
142929
140986
145897
144628
134914
131852
133718
131451
131439
137472
136623
135820
134994
136362
134941
132343
132243
134807
134683
163605
126478
134772
133651
134010
133566
133175
134181
134296
133293
133539
134240
134236
134177
133456
133758
134334
134233
133561
133730
134395
134380
133502
133705
134465
134490
133416
133586
134532
134591
133195
133478
134528
134655
133019
133080
134587
134679
132397
132898
134281
134572
132042
131614
134165
133959
130059
131071
132288
132763
129305
128274
133937
142644
140998
145501
144205
135356
132433
134091
131945
131859
137580
136777
135868
135061
136551
135228
132614
132462
135033
134912
163465
126619
134769
133613
133952
133608
133234
134130
134244
133337
133585
134198
134218
134154
133494
133781
134299
134210
133594
133750
134366
134362
133528
133724
134441
134472
133443
133605
134510
134573
133224
133495
134507
134637
133046
133101
134563
134658
132435
132911
134257
134545
132073
131652
134121
133919
130161
131101
132314
132813