/*--------------------------------*- C++ -*----------------------------------*\
| =========                 |                                                 |
| \\      /  F ield         | OpenFOAM: The Open Source CFD Toolbox           |
|  \\    /   O peration     | Version:  v2012                                 |
|   \\  /    A nd           | Website:  www.openfoam.com                      |
|    \\/     M anipulation  |                                                 |
\*---------------------------------------------------------------------------*/
FoamFile
{
    version     2.0;
    format      ascii;
    class       volScalarField;
    location    "1e-06";
    object      totalPMean;
}
// * * * * * * * * * * * * * * * * * * * * * * * * * * * * * * * * * * * * * //

dimensions      [1 -1 -2 0 0 0 0];


internalField   nonuniform List<scalar> 
10262
(
4.66537e+07
4.62522e+07
4.59932e+07
4.57621e+07
4.54932e+07
4.51947e+07
4.49335e+07
4.47223e+07
4.44771e+07
4.42062e+07
4.39724e+07
4.37745e+07
4.35501e+07
4.33183e+07
4.30802e+07
4.2873e+07
4.26819e+07
4.24732e+07
4.22597e+07
4.20704e+07
4.18993e+07
4.17136e+07
4.15208e+07
4.13527e+07
4.12019e+07
4.1039e+07
4.08692e+07
4.07237e+07
4.05971e+07
4.04596e+07
4.03152e+07
4.01977e+07
4.01001e+07
3.9993e+07
3.9879e+07
3.97943e+07
3.97358e+07
3.96669e+07
3.95897e+07
3.9555e+07
3.95459e+07
3.95315e+07
3.95111e+07
3.95314e+07
3.96079e+07
3.96729e+07
3.97293e+07
3.98898e+07
4.00906e+07
4.03232e+07
4.05883e+07
4.0953e+07
4.15666e+07
4.25153e+07
4.29707e+07
4.31234e+07
4.27062e+07
4.15902e+07
4.08146e+07
4.0353e+07
3.97955e+07
3.94382e+07
3.94178e+07
3.91093e+07
3.87209e+07
3.82268e+07
3.75858e+07
3.69482e+07
3.6289e+07
3.57548e+07
3.52593e+07
3.47854e+07
4.66555e+07
4.6254e+07
4.59952e+07
4.57635e+07
4.54945e+07
4.51961e+07
4.49351e+07
4.47235e+07
4.44782e+07
4.42074e+07
4.39738e+07
4.37756e+07
4.3551e+07
4.33194e+07
4.30814e+07
4.2874e+07
4.26828e+07
4.24742e+07
4.22608e+07
4.20715e+07
4.19001e+07
4.17146e+07
4.15219e+07
4.13537e+07
4.12027e+07
4.10398e+07
4.08702e+07
4.07247e+07
4.05979e+07
4.04604e+07
4.03161e+07
4.01987e+07
4.01009e+07
3.99937e+07
3.98799e+07
3.97952e+07
3.97366e+07
3.96676e+07
3.95905e+07
3.95558e+07
3.95466e+07
3.95321e+07
3.95118e+07
3.95321e+07
3.96085e+07
3.96735e+07
3.97299e+07
3.98904e+07
4.0091e+07
4.03235e+07
4.05886e+07
4.09532e+07
4.15666e+07
4.25107e+07
4.29627e+07
4.31152e+07
4.26987e+07
4.15851e+07
4.08121e+07
4.0351e+07
3.97947e+07
3.9438e+07
3.94132e+07
3.91032e+07
3.87137e+07
3.82191e+07
3.75804e+07
3.69433e+07
3.62881e+07
3.57548e+07
3.52607e+07
3.47868e+07
4.66579e+07
4.62567e+07
4.5998e+07
4.5766e+07
4.54968e+07
4.51982e+07
4.49372e+07
4.47256e+07
4.44801e+07
4.42093e+07
4.39756e+07
4.37774e+07
4.35527e+07
4.33211e+07
4.30831e+07
4.28757e+07
4.26844e+07
4.24758e+07
4.22624e+07
4.20731e+07
4.19017e+07
4.17161e+07
4.15234e+07
4.13552e+07
4.12042e+07
4.10413e+07
4.08717e+07
4.07261e+07
4.05993e+07
4.04618e+07
4.03175e+07
4.02001e+07
4.01023e+07
3.99951e+07
3.98812e+07
3.97965e+07
3.97379e+07
3.96688e+07
3.95917e+07
3.9557e+07
3.95477e+07
3.95332e+07
3.95129e+07
3.95332e+07
3.96095e+07
3.96744e+07
3.97308e+07
3.98912e+07
4.00918e+07
4.03242e+07
4.05891e+07
4.09536e+07
4.15667e+07
4.25086e+07
4.29575e+07
4.31092e+07
4.2692e+07
4.15801e+07
4.08095e+07
4.03491e+07
3.97933e+07
3.94381e+07
3.94102e+07
3.90988e+07
3.87087e+07
3.82135e+07
3.75762e+07
3.69379e+07
3.6287e+07
3.57552e+07
3.52626e+07
3.47887e+07
4.66579e+07
4.6257e+07
4.59982e+07
4.5766e+07
4.54969e+07
4.51983e+07
4.49373e+07
4.47256e+07
4.44802e+07
4.42093e+07
4.39757e+07
4.37775e+07
4.3553e+07
4.33212e+07
4.30831e+07
4.28758e+07
4.26846e+07
4.24759e+07
4.22625e+07
4.20731e+07
4.19018e+07
4.17161e+07
4.15234e+07
4.13553e+07
4.12043e+07
4.10413e+07
4.08717e+07
4.07262e+07
4.05994e+07
4.04619e+07
4.03175e+07
4.02001e+07
4.01024e+07
3.99951e+07
3.98813e+07
3.97966e+07
3.97379e+07
3.96689e+07
3.95917e+07
3.95571e+07
3.95478e+07
3.95333e+07
3.95129e+07
3.95332e+07
3.96095e+07
3.96744e+07
3.97308e+07
3.98912e+07
4.00917e+07
4.03241e+07
4.05889e+07
4.09533e+07
4.15662e+07
4.25039e+07
4.29492e+07
4.31001e+07
4.26834e+07
4.15753e+07
4.0806e+07
4.0346e+07
3.97908e+07
3.9437e+07
3.94049e+07
3.90919e+07
3.87008e+07
3.82051e+07
3.75695e+07
3.69335e+07
3.62862e+07
3.5754e+07
3.52627e+07
3.47888e+07
4.66595e+07
4.62594e+07
4.60008e+07
4.57683e+07
4.5499e+07
4.52003e+07
4.49393e+07
4.47275e+07
4.44819e+07
4.4211e+07
4.39774e+07
4.37791e+07
4.35545e+07
4.33227e+07
4.30847e+07
4.28773e+07
4.2686e+07
4.24773e+07
4.22639e+07
4.20746e+07
4.19032e+07
4.17175e+07
4.15248e+07
4.13567e+07
4.12057e+07
4.10427e+07
4.0873e+07
4.07275e+07
4.06007e+07
4.04631e+07
4.03188e+07
4.02014e+07
4.01036e+07
3.99964e+07
3.98825e+07
3.97978e+07
3.97391e+07
3.967e+07
3.95928e+07
3.95582e+07
3.95489e+07
3.95343e+07
3.95139e+07
3.95342e+07
3.96105e+07
3.96753e+07
3.97316e+07
3.98919e+07
4.00924e+07
4.03247e+07
4.05892e+07
4.09534e+07
4.1566e+07
4.24998e+07
4.29413e+07
4.30914e+07
4.26749e+07
4.15698e+07
4.0803e+07
4.03435e+07
3.9789e+07
3.94366e+07
3.94003e+07
3.90858e+07
3.86939e+07
3.81976e+07
3.7564e+07
3.69286e+07
3.62864e+07
3.57541e+07
3.52643e+07
3.47904e+07
4.66608e+07
4.62617e+07
4.60032e+07
4.57704e+07
4.5501e+07
4.52023e+07
4.49413e+07
4.47293e+07
4.44837e+07
4.42127e+07
4.39791e+07
4.37807e+07
4.35559e+07
4.33243e+07
4.30862e+07
4.28788e+07
4.26874e+07
4.24788e+07
4.22653e+07
4.2076e+07
4.19046e+07
4.17189e+07
4.15262e+07
4.13581e+07
4.1207e+07
4.1044e+07
4.08743e+07
4.07288e+07
4.0602e+07
4.04644e+07
4.032e+07
4.02027e+07
4.01048e+07
3.99975e+07
3.98836e+07
3.9799e+07
3.97402e+07
3.96711e+07
3.95939e+07
3.95592e+07
3.95499e+07
3.95353e+07
3.95148e+07
3.95352e+07
3.96114e+07
3.96761e+07
3.97324e+07
3.98926e+07
4.0093e+07
4.03252e+07
4.05895e+07
4.09536e+07
4.15656e+07
4.2494e+07
4.29313e+07
4.30804e+07
4.26645e+07
4.15635e+07
4.07993e+07
4.03402e+07
3.97866e+07
3.94357e+07
3.93946e+07
3.90785e+07
3.86857e+07
3.8189e+07
3.75576e+07
3.6923e+07
3.62844e+07
3.57528e+07
3.52652e+07
3.47917e+07
4.66606e+07
4.62621e+07
4.60036e+07
4.57705e+07
4.55011e+07
4.52024e+07
4.49415e+07
4.47294e+07
4.44838e+07
4.42128e+07
4.39792e+07
4.37808e+07
4.35562e+07
4.33243e+07
4.30863e+07
4.28789e+07
4.26877e+07
4.24788e+07
4.22654e+07
4.20761e+07
4.19047e+07
4.17189e+07
4.15262e+07
4.13581e+07
4.12071e+07
4.1044e+07
4.08744e+07
4.07289e+07
4.06021e+07
4.04644e+07
4.03201e+07
4.02027e+07
4.01049e+07
3.99976e+07
3.98837e+07
3.9799e+07
3.97403e+07
3.96712e+07
3.9594e+07
3.95593e+07
3.955e+07
3.95353e+07
3.95148e+07
3.95352e+07
3.96114e+07
3.96761e+07
3.97323e+07
3.98925e+07
4.00929e+07
4.0325e+07
4.05891e+07
4.0953e+07
4.15646e+07
4.24875e+07
4.29201e+07
4.3068e+07
4.26529e+07
4.15575e+07
4.07951e+07
4.03363e+07
3.97836e+07
3.94338e+07
3.93877e+07
3.907e+07
3.86761e+07
3.81789e+07
3.75498e+07
3.69161e+07
3.62812e+07
3.57504e+07
3.5265e+07
3.47918e+07
4.66613e+07
4.62641e+07
4.60059e+07
4.57724e+07
4.5503e+07
4.52044e+07
4.49434e+07
4.47311e+07
4.44854e+07
4.42145e+07
4.39808e+07
4.37823e+07
4.35575e+07
4.33258e+07
4.30877e+07
4.28803e+07
4.26889e+07
4.24802e+07
4.22668e+07
4.20774e+07
4.1906e+07
4.17202e+07
4.15275e+07
4.13594e+07
4.12083e+07
4.10452e+07
4.08756e+07
4.07301e+07
4.06033e+07
4.04656e+07
4.03212e+07
4.02039e+07
4.0106e+07
3.99987e+07
3.98848e+07
3.98001e+07
3.97414e+07
3.96722e+07
3.9595e+07
3.95603e+07
3.95509e+07
3.95363e+07
3.95157e+07
3.9536e+07
3.96122e+07
3.96768e+07
3.9733e+07
3.98931e+07
4.00934e+07
4.03253e+07
4.05892e+07
4.09529e+07
4.15638e+07
4.24806e+07
4.29085e+07
4.30551e+07
4.26409e+07
4.15505e+07
4.07911e+07
4.03325e+07
3.9781e+07
3.94323e+07
3.9381e+07
3.90617e+07
3.86667e+07
3.81692e+07
3.75427e+07
3.69098e+07
3.62784e+07
3.57489e+07
3.52658e+07
3.4793e+07
4.6661e+07
4.62644e+07
4.60063e+07
4.57724e+07
4.5503e+07
4.52045e+07
4.49436e+07
4.47312e+07
4.44855e+07
4.42145e+07
4.39809e+07
4.37824e+07
4.35579e+07
4.33258e+07
4.30878e+07
4.28804e+07
4.26892e+07
4.24802e+07
4.22668e+07
4.20775e+07
4.19061e+07
4.17203e+07
4.15275e+07
4.13595e+07
4.12084e+07
4.10453e+07
4.08756e+07
4.07302e+07
4.06033e+07
4.04656e+07
4.03213e+07
4.02039e+07
4.01061e+07
3.99987e+07
3.98848e+07
3.98001e+07
3.97414e+07
3.96723e+07
3.9595e+07
3.95603e+07
3.9551e+07
3.95363e+07
3.95157e+07
3.9536e+07
3.96121e+07
3.96768e+07
3.97329e+07
3.98929e+07
4.00931e+07
4.0325e+07
4.05886e+07
4.09521e+07
4.15623e+07
4.24726e+07
4.28954e+07
4.30406e+07
4.26274e+07
4.15428e+07
4.07863e+07
4.03279e+07
3.97776e+07
3.943e+07
3.93731e+07
3.90522e+07
3.8656e+07
3.81579e+07
3.75347e+07
3.69023e+07
3.62744e+07
3.57465e+07
3.52656e+07
3.47931e+07
4.66612e+07
4.62662e+07
4.60083e+07
4.57741e+07
4.55047e+07
4.52064e+07
4.49455e+07
4.47329e+07
4.44871e+07
4.42162e+07
4.39826e+07
4.37839e+07
4.35592e+07
4.33273e+07
4.30892e+07
4.28819e+07
4.26904e+07
4.24816e+07
4.22681e+07
4.20789e+07
4.19073e+07
4.17215e+07
4.15288e+07
4.13608e+07
4.12096e+07
4.10465e+07
4.08768e+07
4.07314e+07
4.06045e+07
4.04668e+07
4.03224e+07
4.02051e+07
4.01072e+07
3.99998e+07
3.98859e+07
3.98012e+07
3.97425e+07
3.96733e+07
3.9596e+07
3.95613e+07
3.95519e+07
3.95372e+07
3.95165e+07
3.95369e+07
3.96129e+07
3.96775e+07
3.97336e+07
3.98934e+07
4.00936e+07
4.03252e+07
4.05885e+07
4.09518e+07
4.15609e+07
4.24644e+07
4.28819e+07
4.30257e+07
4.26136e+07
4.15351e+07
4.07817e+07
4.03236e+07
3.97745e+07
3.94278e+07
3.93654e+07
3.90429e+07
3.86455e+07
3.81471e+07
3.75255e+07
3.68952e+07
3.62708e+07
3.57447e+07
3.52663e+07
3.47942e+07
4.66612e+07
4.62677e+07
4.601e+07
4.57756e+07
4.55065e+07
4.52084e+07
4.49476e+07
4.47347e+07
4.44887e+07
4.42179e+07
4.39843e+07
4.37855e+07
4.35604e+07
4.33288e+07
4.30907e+07
4.28834e+07
4.26916e+07
4.2483e+07
4.22695e+07
4.20803e+07
4.19086e+07
4.17228e+07
4.15301e+07
4.13621e+07
4.12109e+07
4.10477e+07
4.0878e+07
4.07327e+07
4.06057e+07
4.0468e+07
4.03236e+07
4.02062e+07
4.01083e+07
4.00009e+07
3.9887e+07
3.98023e+07
3.97435e+07
3.96743e+07
3.9597e+07
3.95623e+07
3.95529e+07
3.95381e+07
3.95174e+07
3.95378e+07
3.96137e+07
3.96782e+07
3.97343e+07
3.9894e+07
4.00941e+07
4.03255e+07
4.05884e+07
4.09515e+07
4.15595e+07
4.24547e+07
4.28667e+07
4.30088e+07
4.2598e+07
4.15264e+07
4.07763e+07
4.03184e+07
3.97708e+07
3.94251e+07
3.93569e+07
3.90326e+07
3.86339e+07
3.81353e+07
3.75165e+07
3.68875e+07
3.62652e+07
3.57401e+07
3.52645e+07
3.47951e+07
4.66609e+07
4.62681e+07
4.60106e+07
4.57756e+07
4.55065e+07
4.52086e+07
4.49479e+07
4.47347e+07
4.44889e+07
4.42181e+07
4.39845e+07
4.37856e+07
4.35608e+07
4.33289e+07
4.30908e+07
4.28835e+07
4.26919e+07
4.24831e+07
4.22696e+07
4.20804e+07
4.19088e+07
4.17229e+07
4.15302e+07
4.13622e+07
4.1211e+07
4.10478e+07
4.08781e+07
4.07328e+07
4.06058e+07
4.0468e+07
4.03236e+07
4.02063e+07
4.01084e+07
4.0001e+07
3.9887e+07
3.98024e+07
3.97436e+07
3.96744e+07
3.95971e+07
3.95623e+07
3.95529e+07
3.95381e+07
3.95174e+07
3.95377e+07
3.96137e+07
3.96781e+07
3.97342e+07
3.98937e+07
4.00937e+07
4.0325e+07
4.05875e+07
4.09503e+07
4.15572e+07
4.2444e+07
4.28499e+07
4.29902e+07
4.25806e+07
4.15178e+07
4.07702e+07
4.03123e+07
3.97665e+07
3.94217e+07
3.93473e+07
3.90213e+07
3.86212e+07
3.81222e+07
3.75063e+07
3.68787e+07
3.62587e+07
3.57346e+07
3.52618e+07
3.4795e+07
4.66607e+07
4.62693e+07
4.60119e+07
4.57767e+07
4.55079e+07
4.52105e+07
4.49499e+07
4.47364e+07
4.44904e+07
4.42198e+07
4.39862e+07
4.37871e+07
4.3562e+07
4.33304e+07
4.30923e+07
4.28849e+07
4.2693e+07
4.24844e+07
4.2271e+07
4.20818e+07
4.191e+07
4.17241e+07
4.15314e+07
4.13635e+07
4.12122e+07
4.1049e+07
4.08793e+07
4.0734e+07
4.0607e+07
4.04691e+07
4.03247e+07
4.02075e+07
4.01095e+07
4.00021e+07
3.98881e+07
3.98035e+07
3.97446e+07
3.96753e+07
3.9598e+07
3.95633e+07
3.95539e+07
3.9539e+07
3.95182e+07
3.95386e+07
3.96144e+07
3.96787e+07
3.97348e+07
3.98942e+07
4.00941e+07
4.03251e+07
4.05871e+07
4.09496e+07
4.1555e+07
4.24328e+07
4.28326e+07
4.29709e+07
4.25627e+07
4.1508e+07
4.07642e+07
4.03063e+07
3.97624e+07
3.94184e+07
3.93377e+07
3.90098e+07
3.86085e+07
3.81092e+07
3.74963e+07
3.68702e+07
3.62525e+07
3.57293e+07
3.52593e+07
3.47954e+07
4.66603e+07
4.62699e+07
4.60126e+07
4.57766e+07
4.55079e+07
4.52107e+07
4.49502e+07
4.47364e+07
4.44905e+07
4.422e+07
4.39864e+07
4.37872e+07
4.35623e+07
4.33305e+07
4.30925e+07
4.28851e+07
4.26933e+07
4.24846e+07
4.22711e+07
4.20819e+07
4.19102e+07
4.17242e+07
4.15315e+07
4.13636e+07
4.12123e+07
4.1049e+07
4.08794e+07
4.07341e+07
4.06071e+07
4.04692e+07
4.03248e+07
4.02076e+07
4.01096e+07
4.00021e+07
3.98881e+07
3.98035e+07
3.97447e+07
3.96754e+07
3.95981e+07
3.95633e+07
3.95539e+07
3.9539e+07
3.95181e+07
3.95385e+07
3.96143e+07
3.96786e+07
3.97346e+07
3.98938e+07
4.00936e+07
4.03244e+07
4.0586e+07
4.09481e+07
4.15519e+07
4.24202e+07
4.28136e+07
4.29496e+07
4.25428e+07
4.14971e+07
4.07571e+07
4.02993e+07
3.97575e+07
3.94142e+07
3.9327e+07
3.89973e+07
3.85945e+07
3.80949e+07
3.7485e+07
3.68605e+07
3.62454e+07
3.57231e+07
3.52556e+07
3.47944e+07
4.66599e+07
4.62708e+07
4.60137e+07
4.57774e+07
4.5509e+07
4.52124e+07
4.49521e+07
4.4738e+07
4.4492e+07
4.42218e+07
4.39882e+07
4.37887e+07
4.35635e+07
4.3332e+07
4.3094e+07
4.28866e+07
4.26945e+07
4.2486e+07
4.22725e+07
4.20833e+07
4.19114e+07
4.17255e+07
4.15329e+07
4.13649e+07
4.12135e+07
4.10502e+07
4.08806e+07
4.07353e+07
4.06082e+07
4.04703e+07
4.03259e+07
4.02087e+07
4.01107e+07
4.00032e+07
3.98892e+07
3.98046e+07
3.97457e+07
3.96764e+07
3.95991e+07
3.95643e+07
3.95548e+07
3.95398e+07
3.9519e+07
3.95394e+07
3.9615e+07
3.96792e+07
3.97353e+07
3.98942e+07
4.00939e+07
4.03243e+07
4.05853e+07
4.09471e+07
4.1549e+07
4.24071e+07
4.2794e+07
4.29277e+07
4.25223e+07
4.14861e+07
4.07501e+07
4.02923e+07
3.97527e+07
3.941e+07
3.93162e+07
3.89846e+07
3.85804e+07
3.80806e+07
3.74739e+07
3.68511e+07
3.62384e+07
3.57172e+07
3.52518e+07
3.47935e+07
4.66595e+07
4.62715e+07
4.60143e+07
4.57772e+07
4.55089e+07
4.52128e+07
4.49525e+07
4.4738e+07
4.44921e+07
4.4222e+07
4.39885e+07
4.37887e+07
4.35638e+07
4.33321e+07
4.30942e+07
4.28867e+07
4.26948e+07
4.24861e+07
4.22726e+07
4.20834e+07
4.19116e+07
4.17256e+07
4.1533e+07
4.1365e+07
4.12137e+07
4.10503e+07
4.08807e+07
4.07354e+07
4.06084e+07
4.04704e+07
4.0326e+07
4.02088e+07
4.01108e+07
4.00032e+07
3.98893e+07
3.98046e+07
3.97458e+07
3.96764e+07
3.95991e+07
3.95643e+07
3.95548e+07
3.95398e+07
3.95189e+07
3.95393e+07
3.96149e+07
3.9679e+07
3.97351e+07
3.98937e+07
4.00933e+07
4.03234e+07
4.05838e+07
4.09451e+07
4.1545e+07
4.23925e+07
4.27724e+07
4.29036e+07
4.24997e+07
4.14735e+07
4.07419e+07
4.02841e+07
3.9747e+07
3.9405e+07
3.93043e+07
3.89707e+07
3.8565e+07
3.80651e+07
3.74615e+07
3.68404e+07
3.62306e+07
3.57104e+07
3.52465e+07
3.47908e+07
4.6659e+07
4.62723e+07
4.60153e+07
4.57776e+07
4.55097e+07
4.52142e+07
4.49541e+07
4.47393e+07
4.44935e+07
4.42237e+07
4.39903e+07
4.37903e+07
4.3565e+07
4.33337e+07
4.30958e+07
4.28883e+07
4.26959e+07
4.24876e+07
4.22741e+07
4.20849e+07
4.19128e+07
4.1727e+07
4.15343e+07
4.13664e+07
4.12149e+07
4.10515e+07
4.0882e+07
4.07367e+07
4.06095e+07
4.04715e+07
4.03272e+07
4.021e+07
4.01119e+07
4.00043e+07
3.98904e+07
3.98057e+07
3.97468e+07
3.96774e+07
3.96001e+07
3.95653e+07
3.95557e+07
3.95406e+07
3.95197e+07
3.95402e+07
3.96155e+07
3.96795e+07
3.97357e+07
3.9894e+07
4.00934e+07
4.03231e+07
4.05829e+07
4.09437e+07
4.15412e+07
4.23774e+07
4.27502e+07
4.28787e+07
4.24766e+07
4.14608e+07
4.07337e+07
4.02759e+07
3.97415e+07
3.93999e+07
3.92922e+07
3.89566e+07
3.85495e+07
3.80495e+07
3.74491e+07
3.68297e+07
3.62228e+07
3.57038e+07
3.52407e+07
3.47876e+07
4.66586e+07
4.6273e+07
4.6016e+07
4.57775e+07
4.55096e+07
4.52146e+07
4.49546e+07
4.47393e+07
4.44936e+07
4.4224e+07
4.39906e+07
4.37902e+07
4.35653e+07
4.33338e+07
4.3096e+07
4.28884e+07
4.26962e+07
4.24877e+07
4.22743e+07
4.2085e+07
4.1913e+07
4.17271e+07
4.15345e+07
4.13665e+07
4.12151e+07
4.10516e+07
4.08821e+07
4.07368e+07
4.06097e+07
4.04716e+07
4.03272e+07
4.02101e+07
4.01119e+07
4.00044e+07
3.98904e+07
3.98058e+07
3.97468e+07
3.96774e+07
3.96002e+07
3.95653e+07
3.95557e+07
3.95406e+07
3.95196e+07
3.95401e+07
3.96153e+07
3.96792e+07
3.97354e+07
3.98934e+07
4.00926e+07
4.0322e+07
4.05811e+07
4.09412e+07
4.15363e+07
4.23604e+07
4.27258e+07
4.28515e+07
4.24507e+07
4.14478e+07
4.07242e+07
4.02662e+07
3.97348e+07
3.93937e+07
3.92787e+07
3.89411e+07
3.85326e+07
3.80325e+07
3.74352e+07
3.6819e+07
3.62142e+07
3.56963e+07
3.52337e+07
3.47822e+07
4.66581e+07
4.62737e+07
4.60167e+07
4.57772e+07
4.55094e+07
4.52149e+07
4.49551e+07
4.47391e+07
4.44935e+07
4.42242e+07
4.39908e+07
4.37901e+07
4.35656e+07
4.33338e+07
4.30961e+07
4.28884e+07
4.26965e+07
4.24878e+07
4.22743e+07
4.20851e+07
4.19132e+07
4.17271e+07
4.15345e+07
4.13666e+07
4.12152e+07
4.10517e+07
4.08821e+07
4.07368e+07
4.06097e+07
4.04716e+07
4.03273e+07
4.02101e+07
4.0112e+07
4.00044e+07
3.98904e+07
3.98058e+07
3.97468e+07
3.96774e+07
3.96001e+07
3.95651e+07
3.95556e+07
3.95404e+07
3.95193e+07
3.95398e+07
3.96149e+07
3.96787e+07
3.97349e+07
3.98924e+07
4.00915e+07
4.03205e+07
4.05788e+07
4.09381e+07
4.15303e+07
4.23428e+07
4.27008e+07
4.28234e+07
4.24242e+07
4.14331e+07
4.07147e+07
4.02566e+07
3.9728e+07
3.93874e+07
3.92651e+07
3.89254e+07
3.85154e+07
3.80151e+07
3.74211e+07
3.68071e+07
3.62055e+07
3.56891e+07
3.52298e+07
3.47806e+07
4.66576e+07
4.62745e+07
4.60176e+07
4.57773e+07
4.55097e+07
4.52161e+07
4.49564e+07
4.474e+07
4.44945e+07
4.42258e+07
4.39924e+07
4.37914e+07
4.35666e+07
4.33353e+07
4.30977e+07
4.289e+07
4.26976e+07
4.24893e+07
4.22759e+07
4.20866e+07
4.19144e+07
4.17285e+07
4.15359e+07
4.1368e+07
4.12164e+07
4.10529e+07
4.08834e+07
4.07382e+07
4.06109e+07
4.04728e+07
4.03285e+07
4.02113e+07
4.01131e+07
4.00055e+07
3.98915e+07
3.98069e+07
3.97478e+07
3.96783e+07
3.96011e+07
3.95661e+07
3.95564e+07
3.95411e+07
3.952e+07
3.95406e+07
3.96154e+07
3.96791e+07
3.97353e+07
3.98924e+07
4.00912e+07
4.03196e+07
4.0577e+07
4.09356e+07
4.15245e+07
4.23245e+07
4.26749e+07
4.27944e+07
4.23968e+07
4.14183e+07
4.07051e+07
4.02468e+07
3.97213e+07
3.93809e+07
3.92512e+07
3.89095e+07
3.84978e+07
3.79976e+07
3.74069e+07
3.67954e+07
3.61968e+07
3.56817e+07
3.52249e+07
3.47786e+07
4.66571e+07
4.62752e+07
4.60183e+07
4.5777e+07
4.55095e+07
4.52165e+07
4.4957e+07
4.47399e+07
4.44945e+07
4.42261e+07
4.39927e+07
4.37913e+07
4.35668e+07
4.33354e+07
4.30979e+07
4.28902e+07
4.26978e+07
4.24894e+07
4.2276e+07
4.20868e+07
4.19146e+07
4.17285e+07
4.15361e+07
4.13681e+07
4.12165e+07
4.1053e+07
4.08835e+07
4.07383e+07
4.0611e+07
4.04728e+07
4.03285e+07
4.02114e+07
4.01131e+07
4.00055e+07
3.98915e+07
3.98069e+07
3.97478e+07
3.96783e+07
3.9601e+07
3.9566e+07
3.95563e+07
3.9541e+07
3.95198e+07
3.95403e+07
3.9615e+07
3.96785e+07
3.97348e+07
3.98914e+07
4.00899e+07
4.03179e+07
4.05742e+07
4.09319e+07
4.15173e+07
4.23043e+07
4.26467e+07
4.27629e+07
4.2367e+07
4.14015e+07
4.06939e+07
4.02355e+07
3.97134e+07
3.93732e+07
3.92359e+07
3.8892e+07
3.84789e+07
3.79787e+07
3.73913e+07
3.67824e+07
3.61871e+07
3.56733e+07
3.52177e+07
3.47743e+07
4.66566e+07
4.6276e+07
4.60192e+07
4.57769e+07
4.55096e+07
4.52175e+07
4.49581e+07
4.47405e+07
4.44952e+07
4.42274e+07
4.39942e+07
4.37924e+07
4.35677e+07
4.33367e+07
4.30995e+07
4.28917e+07
4.26989e+07
4.24908e+07
4.22776e+07
4.20883e+07
4.19157e+07
4.17299e+07
4.15376e+07
4.13696e+07
4.12177e+07
4.10543e+07
4.08849e+07
4.07397e+07
4.06122e+07
4.04741e+07
4.03298e+07
4.02126e+07
4.01143e+07
4.00066e+07
3.98927e+07
3.98081e+07
3.97488e+07
3.96792e+07
3.96021e+07
3.9567e+07
3.95571e+07
3.95417e+07
3.95205e+07
3.95411e+07
3.96154e+07
3.96787e+07
3.97352e+07
3.98913e+07
4.00894e+07
4.03166e+07
4.0572e+07
4.09288e+07
4.15101e+07
4.22833e+07
4.26177e+07
4.27304e+07
4.23363e+07
4.13845e+07
4.06825e+07
4.02241e+07
3.97054e+07
3.93653e+07
3.92203e+07
3.88744e+07
3.84596e+07
3.79595e+07
3.73757e+07
3.67696e+07
3.61774e+07
3.56651e+07
3.52102e+07
3.47692e+07
4.66561e+07
4.62768e+07
4.60199e+07
4.57766e+07
4.55094e+07
4.5218e+07
4.49587e+07
4.47403e+07
4.44951e+07
4.42278e+07
4.39946e+07
4.37922e+07
4.35678e+07
4.33368e+07
4.30998e+07
4.28919e+07
4.26992e+07
4.2491e+07
4.22778e+07
4.20885e+07
4.19159e+07
4.17299e+07
4.15377e+07
4.13698e+07
4.12178e+07
4.10543e+07
4.0885e+07
4.07398e+07
4.06123e+07
4.04741e+07
4.03298e+07
4.02127e+07
4.01144e+07
4.00066e+07
3.98927e+07
3.98081e+07
3.97488e+07
3.96792e+07
3.9602e+07
3.95668e+07
3.9557e+07
3.95415e+07
3.95202e+07
3.95408e+07
3.96149e+07
3.96781e+07
3.97345e+07
3.98901e+07
4.00879e+07
4.03145e+07
4.05687e+07
4.09243e+07
4.15015e+07
4.22603e+07
4.25861e+07
4.26953e+07
4.23029e+07
4.13653e+07
4.06693e+07
4.02109e+07
3.96961e+07
3.9356e+07
3.92031e+07
3.8855e+07
3.84389e+07
3.7939e+07
3.73585e+07
3.67552e+07
3.61666e+07
3.56557e+07
3.52015e+07
3.4761e+07
4.66555e+07
4.62777e+07
4.60208e+07
4.57764e+07
4.55093e+07
4.52188e+07
4.49597e+07
4.47407e+07
4.44955e+07
4.4229e+07
4.39958e+07
4.3793e+07
4.35684e+07
4.33379e+07
4.31012e+07
4.28933e+07
4.27001e+07
4.24923e+07
4.22793e+07
4.20901e+07
4.1917e+07
4.17313e+07
4.15392e+07
4.13713e+07
4.1219e+07
4.10556e+07
4.08864e+07
4.07413e+07
4.06135e+07
4.04753e+07
4.03312e+07
4.02141e+07
4.01155e+07
4.00078e+07
3.98939e+07
3.98094e+07
3.97499e+07
3.96802e+07
3.96031e+07
3.95679e+07
3.95578e+07
3.95422e+07
3.9521e+07
3.95416e+07
3.96153e+07
3.96783e+07
3.97349e+07
3.98898e+07
4.00871e+07
4.03129e+07
4.0566e+07
4.09204e+07
4.14927e+07
4.22364e+07
4.25535e+07
4.26591e+07
4.22687e+07
4.13457e+07
4.0656e+07
4.01977e+07
3.96867e+07
3.93465e+07
3.91856e+07
3.88354e+07
3.84178e+07
3.79182e+07
3.73412e+07
3.6741e+07
3.61558e+07
3.56465e+07
3.51931e+07
3.47529e+07
4.6655e+07
4.62785e+07
4.60216e+07
4.57761e+07
4.5509e+07
4.52193e+07
4.49603e+07
4.47405e+07
4.44955e+07
4.42294e+07
4.39963e+07
4.37929e+07
4.35686e+07
4.3338e+07
4.31016e+07
4.28935e+07
4.27003e+07
4.24925e+07
4.22796e+07
4.20903e+07
4.19172e+07
4.17314e+07
4.15395e+07
4.13715e+07
4.12191e+07
4.10557e+07
4.08866e+07
4.07414e+07
4.06136e+07
4.04754e+07
4.03314e+07
4.02142e+07
4.01156e+07
4.00078e+07
3.9894e+07
3.98094e+07
3.97499e+07
3.96802e+07
3.96032e+07
3.95678e+07
3.95577e+07
3.9542e+07
3.95207e+07
3.95413e+07
3.96147e+07
3.96775e+07
3.97343e+07
3.98885e+07
4.00853e+07
4.03104e+07
4.05622e+07
4.09151e+07
4.14825e+07
4.22103e+07
4.25181e+07
4.26198e+07
4.22314e+07
4.13236e+07
4.06403e+07
4.01822e+07
3.96756e+07
3.93353e+07
3.91661e+07
3.88137e+07
3.83949e+07
3.78957e+07
3.7322e+07
3.67251e+07
3.61437e+07
3.56359e+07
3.51833e+07
3.47434e+07
4.66544e+07
4.62794e+07
4.60224e+07
4.57758e+07
4.55088e+07
4.52199e+07
4.4961e+07
4.47403e+07
4.44953e+07
4.42298e+07
4.39967e+07
4.37927e+07
4.35685e+07
4.3338e+07
4.31018e+07
4.28937e+07
4.27004e+07
4.24926e+07
4.22798e+07
4.20905e+07
4.19173e+07
4.17314e+07
4.15396e+07
4.13716e+07
4.12192e+07
4.10558e+07
4.08867e+07
4.07415e+07
4.06136e+07
4.04754e+07
4.03314e+07
4.02142e+07
4.01156e+07
4.00078e+07
3.98939e+07
3.98093e+07
3.97497e+07
3.968e+07
3.9603e+07
3.95675e+07
3.95573e+07
3.95415e+07
3.95201e+07
3.95407e+07
3.96138e+07
3.96765e+07
3.97332e+07
3.98866e+07
4.0083e+07
4.03071e+07
4.05575e+07
4.09087e+07
4.14706e+07
4.2183e+07
4.24818e+07
4.25795e+07
4.21931e+07
4.1301e+07
4.06246e+07
4.01667e+07
3.96641e+07
3.93237e+07
3.91464e+07
3.87918e+07
3.83716e+07
3.78728e+07
3.73027e+07
3.67091e+07
3.61314e+07
3.56254e+07
3.51735e+07
3.47354e+07
4.66539e+07
4.62803e+07
4.60232e+07
4.57755e+07
4.55085e+07
4.52206e+07
4.49618e+07
4.47403e+07
4.44955e+07
4.42308e+07
4.39977e+07
4.37931e+07
4.35689e+07
4.33389e+07
4.31031e+07
4.28948e+07
4.27012e+07
4.24937e+07
4.22812e+07
4.20918e+07
4.19182e+07
4.17326e+07
4.1541e+07
4.1373e+07
4.12203e+07
4.1057e+07
4.08881e+07
4.07429e+07
4.06147e+07
4.04766e+07
4.03327e+07
4.02155e+07
4.01166e+07
4.00088e+07
3.98951e+07
3.98105e+07
3.97507e+07
3.96808e+07
3.9604e+07
3.95685e+07
3.9558e+07
3.95421e+07
3.95208e+07
3.95413e+07
3.96139e+07
3.96763e+07
3.97332e+07
3.98858e+07
4.00815e+07
4.03045e+07
4.05534e+07
4.09029e+07
4.14586e+07
4.21547e+07
4.24442e+07
4.25379e+07
4.21537e+07
4.12777e+07
4.06084e+07
4.01509e+07
3.96525e+07
3.93117e+07
3.91263e+07
3.87695e+07
3.83478e+07
3.78495e+07
3.72832e+07
3.66932e+07
3.61191e+07
3.56148e+07
3.51639e+07
3.47263e+07
4.66533e+07
4.62812e+07
4.60241e+07
4.57751e+07
4.55082e+07
4.52212e+07
4.49625e+07
4.47401e+07
4.44953e+07
4.42313e+07
4.39982e+07
4.37929e+07
4.35688e+07
4.33389e+07
4.31035e+07
4.28951e+07
4.27013e+07
4.24938e+07
4.22815e+07
4.20921e+07
4.19184e+07
4.17327e+07
4.15413e+07
4.13732e+07
4.12204e+07
4.1057e+07
4.08883e+07
4.07431e+07
4.06148e+07
4.04766e+07
4.03328e+07
4.02156e+07
4.01167e+07
4.00088e+07
3.98952e+07
3.98105e+07
3.97506e+07
3.96807e+07
3.96039e+07
3.95682e+07
3.95576e+07
3.95416e+07
3.95202e+07
3.95407e+07
3.96129e+07
3.96751e+07
3.9732e+07
3.98838e+07
4.00788e+07
4.03008e+07
4.0548e+07
4.08954e+07
4.14448e+07
4.21239e+07
4.24035e+07
4.24931e+07
4.21112e+07
4.12518e+07
4.05897e+07
4.01328e+07
3.9639e+07
3.92977e+07
3.91041e+07
3.8745e+07
3.83221e+07
3.78244e+07
3.72617e+07
3.66755e+07
3.61053e+07
3.56029e+07
3.51528e+07
3.47157e+07
4.66528e+07
4.62821e+07
4.60249e+07
4.57748e+07
4.5508e+07
4.52219e+07
4.49633e+07
4.47401e+07
4.44953e+07
4.42321e+07
4.39991e+07
4.37932e+07
4.3569e+07
4.33395e+07
4.31046e+07
4.28961e+07
4.27018e+07
4.24947e+07
4.22827e+07
4.20933e+07
4.19191e+07
4.17337e+07
4.15426e+07
4.13745e+07
4.12213e+07
4.10581e+07
4.08897e+07
4.07444e+07
4.06158e+07
4.04777e+07
4.03341e+07
4.02169e+07
4.01177e+07
4.00098e+07
3.98964e+07
3.98118e+07
3.97515e+07
3.96815e+07
3.9605e+07
3.95692e+07
3.95583e+07
3.95421e+07
3.95209e+07
3.95414e+07
3.96129e+07
3.96747e+07
3.9732e+07
3.98828e+07
4.00769e+07
4.02976e+07
4.05432e+07
4.08884e+07
4.14307e+07
4.20921e+07
4.23618e+07
4.24471e+07
4.20675e+07
4.12251e+07
4.05707e+07
4.01145e+07
3.96252e+07
3.92834e+07
3.90814e+07
3.87203e+07
3.8296e+07
3.7799e+07
3.72402e+07
3.66579e+07
3.60915e+07
3.55909e+07
3.51418e+07
3.47054e+07
4.66521e+07
4.6283e+07
4.60258e+07
4.57745e+07
4.55077e+07
4.52225e+07
4.49641e+07
4.47398e+07
4.44951e+07
4.42327e+07
4.39997e+07
4.3793e+07
4.3569e+07
4.33396e+07
4.3105e+07
4.28964e+07
4.27019e+07
4.24949e+07
4.22831e+07
4.20936e+07
4.19192e+07
4.17339e+07
4.1543e+07
4.13748e+07
4.12214e+07
4.10582e+07
4.089e+07
4.07446e+07
4.06159e+07
4.04778e+07
4.03344e+07
4.02171e+07
4.01177e+07
4.00099e+07
3.98965e+07
3.98118e+07
3.97514e+07
3.96814e+07
3.9605e+07
3.9569e+07
3.95579e+07
3.95417e+07
3.95205e+07
3.95408e+07
3.96118e+07
3.96735e+07
3.97309e+07
3.98806e+07
4.00738e+07
4.02934e+07
4.05372e+07
4.08798e+07
4.14147e+07
4.20575e+07
4.23165e+07
4.23973e+07
4.20203e+07
4.11953e+07
4.05486e+07
4.00932e+07
3.9609e+07
3.92668e+07
3.90562e+07
3.86927e+07
3.82677e+07
3.77716e+07
3.72162e+07
3.6638e+07
3.6076e+07
3.55773e+07
3.51289e+07
3.46932e+07
4.66516e+07
4.6284e+07
4.60267e+07
4.57742e+07
4.55073e+07
4.52231e+07
4.49648e+07
4.47396e+07
4.44949e+07
4.42332e+07
4.40002e+07
4.37927e+07
4.35688e+07
4.33395e+07
4.31054e+07
4.28966e+07
4.27019e+07
4.24949e+07
4.22834e+07
4.20938e+07
4.19193e+07
4.17339e+07
4.15432e+07
4.13749e+07
4.12214e+07
4.10582e+07
4.08901e+07
4.07447e+07
4.06159e+07
4.04778e+07
4.03344e+07
4.0217e+07
4.01176e+07
4.00098e+07
3.98964e+07
3.98116e+07
3.9751e+07
3.96811e+07
3.96048e+07
3.95685e+07
3.95572e+07
3.95409e+07
3.95196e+07
3.95398e+07
3.96103e+07
3.96718e+07
3.97291e+07
3.98776e+07
4.00699e+07
4.02882e+07
4.05297e+07
4.08695e+07
4.13964e+07
4.20215e+07
4.227e+07
4.23461e+07
4.19718e+07
4.11649e+07
4.05264e+07
4.00718e+07
3.95925e+07
3.92496e+07
3.90308e+07
3.8665e+07
3.82389e+07
3.77438e+07
3.71923e+07
3.66182e+07
3.60604e+07
3.55638e+07
3.51164e+07
3.46811e+07
4.6651e+07
4.6285e+07
4.60275e+07
4.57738e+07
4.5507e+07
4.52238e+07
4.49656e+07
4.47394e+07
4.44948e+07
4.4234e+07
4.4001e+07
4.37927e+07
4.35688e+07
4.33399e+07
4.31063e+07
4.28974e+07
4.27022e+07
4.24956e+07
4.22844e+07
4.20948e+07
4.19198e+07
4.17346e+07
4.15443e+07
4.1376e+07
4.12221e+07
4.10591e+07
4.08913e+07
4.07459e+07
4.06166e+07
4.04786e+07
4.03356e+07
4.02181e+07
4.01183e+07
4.00106e+07
3.98975e+07
3.98127e+07
3.97517e+07
3.96817e+07
3.96057e+07
3.95693e+07
3.95575e+07
3.95411e+07
3.952e+07
3.954e+07
3.96097e+07
3.96708e+07
3.97284e+07
3.98758e+07
4.00668e+07
4.02834e+07
4.0523e+07
4.08597e+07
4.13779e+07
4.1984e+07
4.22221e+07
4.22936e+07
4.19219e+07
4.11332e+07
4.05033e+07
4.005e+07
3.95753e+07
3.92316e+07
3.90048e+07
3.86368e+07
3.82094e+07
3.77153e+07
3.71681e+07
3.65984e+07
3.60445e+07
3.55501e+07
3.51038e+07
3.46693e+07
4.66504e+07
4.6286e+07
4.60284e+07
4.57735e+07
4.55067e+07
4.52245e+07
4.49663e+07
4.47392e+07
4.44946e+07
4.42346e+07
4.40015e+07
4.37924e+07
4.35686e+07
4.33399e+07
4.31068e+07
4.28977e+07
4.27022e+07
4.24957e+07
4.22849e+07
4.20951e+07
4.19198e+07
4.17347e+07
4.15447e+07
4.13763e+07
4.12221e+07
4.10591e+07
4.08916e+07
4.07461e+07
4.06166e+07
4.04787e+07
4.03358e+07
4.02182e+07
4.01183e+07
4.00105e+07
3.98976e+07
3.98126e+07
3.97514e+07
3.96815e+07
3.96056e+07
3.95689e+07
3.95568e+07
3.95404e+07
3.95193e+07
3.95391e+07
3.96081e+07
3.9669e+07
3.97267e+07
3.98727e+07
4.00625e+07
4.02776e+07
4.05149e+07
4.08481e+07
4.13573e+07
4.19437e+07
4.21703e+07
4.22368e+07
4.18682e+07
4.10981e+07
4.04769e+07
4.00248e+07
3.95555e+07
3.92111e+07
3.89758e+07
3.86055e+07
3.81774e+07
3.76847e+07
3.71412e+07
3.65759e+07
3.60266e+07
3.55344e+07
3.50891e+07
3.46553e+07
4.66499e+07
4.62871e+07
4.60293e+07
4.57732e+07
4.55064e+07
4.52252e+07
4.49671e+07
4.47389e+07
4.44943e+07
4.42351e+07
4.40021e+07
4.37921e+07
4.35684e+07
4.33398e+07
4.31072e+07
4.2898e+07
4.27021e+07
4.24957e+07
4.22852e+07
4.20953e+07
4.19198e+07
4.17347e+07
4.1545e+07
4.13764e+07
4.12221e+07
4.10591e+07
4.08917e+07
4.07461e+07
4.06165e+07
4.04786e+07
4.03358e+07
4.02181e+07
4.0118e+07
4.00103e+07
3.98974e+07
3.98123e+07
3.97508e+07
3.9681e+07
3.96051e+07
3.95681e+07
3.95558e+07
3.95393e+07
3.9518e+07
3.95376e+07
3.96059e+07
3.96665e+07
3.97241e+07
3.98686e+07
4.00571e+07
4.02705e+07
4.05049e+07
4.08343e+07
4.1334e+07
4.19015e+07
4.21173e+07
4.21786e+07
4.1813e+07
4.1062e+07
4.04501e+07
3.99996e+07
3.95351e+07
3.91899e+07
3.89468e+07
3.85741e+07
3.81449e+07
3.76535e+07
3.71144e+07
3.65537e+07
3.60087e+07
3.5519e+07
3.50747e+07
3.46416e+07
4.66494e+07