/*--------------------------------*- C++ -*----------------------------------*\
| =========                 |                                                 |
| \\      /  F ield         | OpenFOAM: The Open Source CFD Toolbox           |
|  \\    /   O peration     | Version:  v2012                                 |
|   \\  /    A nd           | Website:  www.openfoam.com                      |
|    \\/     M anipulation  |                                                 |
\*---------------------------------------------------------------------------*/
FoamFile
{
    version     2.0;
    format      ascii;
    class       volScalarField;
    location    "1e-06";
    object      totalPPrime2Mean;
}
// * * * * * * * * * * * * * * * * * * * * * * * * * * * * * * * * * * * * * //

dimensions      [2 -2 -4 0 0 0 0];


internalField   nonuniform List<scalar> 
10262
(
1.40454e+16
1.38346e+16
1.36678e+16
1.35245e+16
1.33602e+16
1.31816e+16
1.30241e+16
1.28932e+16
1.27465e+16
1.25884e+16
1.24499e+16
1.23303e+16
1.21997e+16
1.20646e+16
1.19286e+16
1.18083e+16
1.16969e+16
1.15783e+16
1.14586e+16
1.13511e+16
1.12529e+16
1.11491e+16
1.10432e+16
1.09493e+16
1.0864e+16
1.07743e+16
1.06828e+16
1.06028e+16
1.05318e+16
1.04572e+16
1.03809e+16
1.0317e+16
1.02625e+16
1.02049e+16
1.01459e+16
1.01002e+16
1.00665e+16
1.00296e+16
9.99132e+15
9.97164e+15
9.96444e+15
9.95626e+15
9.94797e+15
9.95905e+15
9.99489e+15
1.00289e+16
1.00648e+16
1.01461e+16
1.02518e+16
1.0376e+16
1.05232e+16
1.07306e+16
1.10743e+16
1.15612e+16
1.18334e+16
1.19055e+16
1.16545e+16
1.10836e+16
1.06532e+16
1.03785e+16
1.00957e+16
9.91332e+15
9.87195e+15
9.71984e+15
9.51667e+15
9.26082e+15
8.94183e+15
8.62551e+15
8.30956e+15
8.05169e+15
7.81583e+15
7.59439e+15
1.40454e+16
1.38347e+16
1.36679e+16
1.35246e+16
1.33602e+16
1.31816e+16
1.30242e+16
1.28932e+16
1.27466e+16
1.25884e+16
1.24499e+16
1.23303e+16
1.21997e+16
1.20646e+16
1.19286e+16
1.18083e+16
1.16969e+16
1.15783e+16
1.14586e+16
1.13511e+16
1.12529e+16
1.11491e+16
1.10432e+16
1.09493e+16
1.0864e+16
1.07743e+16
1.06828e+16
1.06028e+16
1.05318e+16
1.04572e+16
1.03809e+16
1.0317e+16
1.02625e+16
1.02049e+16
1.01459e+16
1.01002e+16
1.00665e+16
1.00296e+16
9.99132e+15
9.97165e+15
9.96444e+15
9.95626e+15
9.94796e+15
9.95905e+15
9.99489e+15
1.00289e+16
1.00648e+16
1.01461e+16
1.02518e+16
1.03759e+16
1.05232e+16
1.07305e+16
1.10741e+16
1.15598e+16
1.18305e+16
1.19021e+16
1.16509e+16
1.10809e+16
1.06515e+16
1.03771e+16
1.00949e+16
9.91287e+15
9.86995e+15
9.71708e+15
9.51349e+15
9.25741e+15
8.93906e+15
8.62291e+15
8.30866e+15
8.05119e+15
7.81583e+15
7.59439e+15
1.40454e+16
1.38348e+16
1.3668e+16
1.35246e+16
1.33602e+16
1.31816e+16
1.30242e+16
1.28932e+16
1.27466e+16
1.25884e+16
1.24499e+16
1.23303e+16
1.21997e+16
1.20646e+16
1.19286e+16
1.18083e+16
1.16969e+16
1.15783e+16
1.14586e+16
1.13512e+16
1.12529e+16
1.11491e+16
1.10432e+16
1.09493e+16
1.0864e+16
1.07743e+16
1.06828e+16
1.06028e+16
1.05319e+16
1.04572e+16
1.03809e+16
1.0317e+16
1.02625e+16
1.02049e+16
1.01459e+16
1.01003e+16
1.00665e+16
1.00296e+16
9.99132e+15
9.97165e+15
9.96445e+15
9.95626e+15
9.94796e+15
9.95905e+15
9.9949e+15
1.00288e+16
1.00648e+16
1.0146e+16
1.02518e+16
1.03759e+16
1.05231e+16
1.07304e+16
1.10739e+16
1.15578e+16
1.18265e+16
1.18976e+16
1.16466e+16
1.1078e+16
1.06496e+16
1.03756e+16
1.00937e+16
9.91233e+15
9.86747e+15
9.71382e+15
9.50979e+15
9.2535e+15
8.93602e+15
8.62017e+15
8.30734e+15
8.05053e+15
7.81582e+15
7.5944e+15
1.40454e+16
1.38349e+16
1.36681e+16
1.35246e+16
1.33602e+16
1.31816e+16
1.30242e+16
1.28932e+16
1.27466e+16
1.25884e+16
1.24499e+16
1.23303e+16
1.21997e+16
1.20646e+16
1.19286e+16
1.18083e+16
1.16969e+16
1.15783e+16
1.14586e+16
1.13512e+16
1.12529e+16
1.11491e+16
1.10432e+16
1.09493e+16
1.0864e+16
1.07743e+16
1.06828e+16
1.06028e+16
1.05319e+16
1.04572e+16
1.03809e+16
1.0317e+16
1.02625e+16
1.02049e+16
1.01459e+16
1.01003e+16
1.00665e+16
1.00296e+16
9.99132e+15
9.97165e+15
9.96445e+15
9.95625e+15
9.94794e+15
9.95904e+15
9.99488e+15
1.00288e+16
1.00647e+16
1.0146e+16
1.02517e+16
1.03758e+16
1.0523e+16
1.07302e+16
1.10735e+16
1.15555e+16
1.18221e+16
1.18926e+16
1.16418e+16
1.1075e+16
1.06477e+16
1.0374e+16
1.00924e+16
9.91169e+15
9.86478e+15
9.71032e+15
9.50584e+15
9.24935e+15
8.93278e+15
8.61732e+15
8.3069e+15
8.04993e+15
7.81581e+15
7.5944e+15
1.40453e+16
1.3835e+16
1.36682e+16
1.35245e+16
1.33602e+16
1.31816e+16
1.30242e+16
1.28932e+16
1.27466e+16
1.25884e+16
1.24499e+16
1.23303e+16
1.21997e+16
1.20646e+16
1.19286e+16
1.18083e+16
1.16969e+16
1.15783e+16
1.14586e+16
1.13512e+16
1.12529e+16
1.11491e+16
1.10432e+16
1.09493e+16
1.0864e+16
1.07743e+16
1.06828e+16
1.06028e+16
1.05319e+16
1.04572e+16
1.03809e+16
1.0317e+16
1.02625e+16
1.02049e+16
1.01459e+16
1.01003e+16
1.00665e+16
1.00296e+16
9.99131e+15
9.97165e+15
9.96445e+15
9.95624e+15
9.94792e+15
9.95903e+15
9.99486e+15
1.00288e+16
1.00647e+16
1.01459e+16
1.02516e+16
1.03757e+16
1.05228e+16
1.07299e+16
1.10731e+16
1.15528e+16
1.18171e+16
1.1887e+16
1.16366e+16
1.10717e+16
1.06456e+16
1.03722e+16
1.0091e+16
9.91094e+15
9.86185e+15
9.70654e+15
9.50158e+15
9.24491e+15
8.92934e+15
8.61428e+15
8.30633e+15
8.0493e+15
7.81581e+15
7.59441e+15
1.40452e+16
1.38351e+16
1.36684e+16
1.35245e+16
1.33602e+16
1.31817e+16
1.30243e+16
1.28932e+16
1.27466e+16
1.25884e+16
1.245e+16
1.23303e+16
1.21997e+16
1.20646e+16
1.19286e+16
1.18084e+16
1.16969e+16
1.15783e+16
1.14586e+16
1.13512e+16
1.12529e+16
1.11491e+16
1.10433e+16
1.09493e+16
1.08641e+16
1.07743e+16
1.06828e+16
1.06028e+16
1.05319e+16
1.04572e+16
1.03809e+16
1.0317e+16
1.02625e+16
1.02049e+16
1.01459e+16
1.01003e+16
1.00666e+16
1.00296e+16
9.99131e+15
9.97165e+15
9.96445e+15
9.95624e+15
9.94791e+15
9.95902e+15
9.99484e+15
1.00288e+16
1.00646e+16
1.01459e+16
1.02516e+16
1.03756e+16
1.05226e+16
1.07297e+16
1.10725e+16
1.15495e+16
1.18112e+16
1.18805e+16
1.16306e+16
1.10681e+16
1.06434e+16
1.03703e+16
1.00895e+16
9.91004e+15
9.85854e+15
9.70237e+15
9.49691e+15
9.24007e+15
8.92563e+15
8.61104e+15
8.30486e+15
8.04812e+15
7.81562e+15
7.59442e+15
1.4045e+16
1.38352e+16
1.36686e+16
1.35245e+16
1.33602e+16
1.31817e+16
1.30243e+16
1.28932e+16
1.27466e+16
1.25884e+16
1.245e+16
1.23303e+16
1.21997e+16
1.20646e+16
1.19286e+16
1.18084e+16
1.16969e+16
1.15783e+16
1.14587e+16
1.13512e+16
1.12529e+16
1.11491e+16
1.10433e+16
1.09494e+16
1.08641e+16
1.07743e+16
1.06828e+16
1.06029e+16
1.05319e+16
1.04572e+16
1.03809e+16
1.0317e+16
1.02626e+16
1.02049e+16
1.01459e+16
1.01003e+16
1.00666e+16
1.00296e+16
9.9913e+15
9.97164e+15
9.96445e+15
9.95622e+15
9.94788e+15
9.95899e+15
9.99481e+15
1.00287e+16
1.00646e+16
1.01458e+16
1.02515e+16
1.03754e+16
1.05224e+16
1.07294e+16
1.10718e+16
1.15458e+16
1.18047e+16
1.18734e+16
1.16241e+16
1.10644e+16
1.0641e+16
1.03682e+16
1.00879e+16
9.909e+15
9.85497e+15
9.69792e+15
9.49193e+15
9.23494e+15
8.92171e+15
8.60766e+15
8.30324e+15
8.04698e+15
7.81548e+15
7.59443e+15
1.40449e+16
1.38354e+16
1.36688e+16
1.35244e+16
1.33602e+16
1.31817e+16
1.30244e+16
1.28932e+16
1.27465e+16
1.25884e+16
1.245e+16
1.23303e+16
1.21997e+16
1.20646e+16
1.19286e+16
1.18084e+16
1.16969e+16
1.15783e+16
1.14587e+16
1.13512e+16
1.1253e+16
1.11491e+16
1.10433e+16
1.09494e+16
1.08641e+16
1.07743e+16
1.06828e+16
1.06029e+16
1.05319e+16
1.04572e+16
1.03809e+16
1.0317e+16
1.02626e+16
1.02049e+16
1.01459e+16
1.01003e+16
1.00666e+16
1.00296e+16
9.9913e+15
9.97164e+15
9.96444e+15
9.9562e+15
9.94785e+15
9.95897e+15
9.99478e+15
1.00287e+16
1.00645e+16
1.01457e+16
1.02513e+16
1.03752e+16
1.05221e+16
1.0729e+16
1.1071e+16
1.15417e+16
1.17978e+16
1.18656e+16
1.16171e+16
1.10602e+16
1.06385e+16
1.03659e+16
1.00862e+16
9.90781e+15
9.85116e+15
9.69322e+15
9.48668e+15
9.22954e+15
8.9176e+15
8.60414e+15
8.30145e+15
8.04579e+15
7.81534e+15
7.59445e+15
1.40447e+16
1.38356e+16
1.36691e+16
1.35244e+16
1.33601e+16
1.31818e+16
1.30245e+16
1.28932e+16
1.27465e+16
1.25884e+16
1.245e+16
1.23303e+16
1.21997e+16
1.20646e+16
1.19286e+16
1.18084e+16
1.16969e+16
1.15783e+16
1.14587e+16
1.13512e+16
1.1253e+16
1.11491e+16
1.10433e+16
1.09494e+16
1.08641e+16
1.07743e+16
1.06828e+16
1.06029e+16
1.05319e+16
1.04572e+16
1.03809e+16
1.0317e+16
1.02626e+16
1.02049e+16
1.01459e+16
1.01003e+16
1.00665e+16
1.00296e+16
9.99128e+15
9.97162e+15
9.96443e+15
9.95617e+15
9.9478e+15
9.95893e+15
9.99472e+15
1.00286e+16
1.00644e+16
1.01455e+16
1.02512e+16
1.0375e+16
1.05217e+16
1.07285e+16
1.107e+16
1.15373e+16
1.17903e+16
1.18573e+16
1.16095e+16
1.10558e+16
1.06358e+16
1.03635e+16
1.00844e+16
9.90647e+15
9.8471e+15
9.68825e+15
9.48113e+15
9.22385e+15
8.91318e+15
8.60047e+15
8.29946e+15
8.04462e+15
7.81521e+15
7.59447e+15
1.40444e+16
1.38358e+16
1.36693e+16
1.35243e+16
1.336e+16
1.31818e+16
1.30245e+16
1.28932e+16
1.27465e+16
1.25885e+16
1.245e+16
1.23303e+16
1.21997e+16
1.20646e+16
1.19287e+16
1.18084e+16
1.16969e+16
1.15783e+16
1.14587e+16
1.13513e+16
1.1253e+16
1.11491e+16
1.10433e+16
1.09494e+16
1.08641e+16
1.07743e+16
1.06828e+16
1.06029e+16
1.05319e+16
1.04572e+16
1.03809e+16
1.0317e+16
1.02626e+16
1.02049e+16
1.01459e+16
1.01003e+16
1.00665e+16
1.00296e+16
9.99126e+15
9.9716e+15
9.96441e+15
9.95614e+15
9.94775e+15
9.95888e+15
9.99466e+15
1.00285e+16
1.00643e+16
1.01454e+16
1.0251e+16
1.03748e+16
1.05213e+16
1.0728e+16
1.10689e+16
1.15324e+16
1.17822e+16
1.18482e+16
1.16013e+16
1.10511e+16
1.06329e+16
1.03609e+16
1.00825e+16
9.90494e+15
9.84281e+15
9.68301e+15
9.47527e+15
9.21793e+15
8.90853e+15
8.59661e+15
8.29728e+15
8.04337e+15
7.81506e+15
7.59449e+15
1.40442e+16
1.3836e+16
1.36696e+16
1.35242e+16
1.336e+16
1.31819e+16
1.30247e+16
1.28932e+16
1.27465e+16
1.25885e+16
1.24501e+16
1.23303e+16
1.21997e+16
1.20646e+16
1.19287e+16
1.18084e+16
1.16969e+16
1.15783e+16
1.14587e+16
1.13513e+16
1.1253e+16
1.11491e+16
1.10433e+16
1.09494e+16
1.08641e+16
1.07743e+16
1.06828e+16
1.06029e+16
1.05319e+16
1.04572e+16
1.03809e+16
1.03171e+16
1.02626e+16
1.02049e+16
1.01459e+16
1.01003e+16
1.00665e+16
1.00296e+16
9.99126e+15
9.97159e+15
9.9644e+15
9.95612e+15
9.94771e+15
9.95885e+15
9.99461e+15
1.00284e+16
1.00642e+16
1.01452e+16
1.02508e+16
1.03745e+16
1.05209e+16
1.07274e+16
1.10676e+16
1.15268e+16
1.17732e+16
1.18382e+16
1.15923e+16
1.10461e+16
1.06297e+16
1.03579e+16
1.00804e+16
9.90316e+15
9.83814e+15
9.67737e+15
9.46901e+15
9.21162e+15
8.90364e+15
8.59249e+15
8.29424e+15
8.04086e+15
7.81388e+15
7.5945e+15
1.4044e+16
1.38363e+16
1.36699e+16
1.35242e+16
1.336e+16
1.3182e+16
1.30248e+16
1.28932e+16
1.27465e+16
1.25885e+16
1.24502e+16
1.23303e+16
1.21997e+16
1.20646e+16
1.19287e+16
1.18085e+16
1.16969e+16
1.15783e+16
1.14587e+16
1.13513e+16
1.1253e+16
1.11491e+16
1.10433e+16
1.09495e+16
1.08641e+16
1.07743e+16
1.06828e+16
1.06029e+16
1.0532e+16
1.04572e+16
1.03809e+16
1.03171e+16
1.02626e+16
1.02049e+16
1.01459e+16
1.01003e+16
1.00665e+16
1.00295e+16
9.99124e+15
9.97158e+15
9.96438e+15
9.95608e+15
9.94766e+15
9.95881e+15
9.99454e+15
1.00283e+16
1.00641e+16
1.01451e+16
1.02506e+16
1.03742e+16
1.05204e+16
1.07267e+16
1.10661e+16
1.15208e+16
1.17636e+16
1.18275e+16
1.15826e+16
1.10408e+16
1.06263e+16
1.03548e+16
1.00781e+16
9.90119e+15
9.83322e+15
9.67142e+15
9.46244e+15
9.20502e+15
8.89851e+15
8.58817e+15
8.29105e+15
8.03823e+15
7.81259e+15
7.59443e+15
1.40438e+16
1.38366e+16
1.36703e+16
1.35241e+16
1.33599e+16
1.31821e+16
1.30249e+16
1.28932e+16
1.27465e+16
1.25886e+16
1.24502e+16
1.23303e+16
1.21997e+16
1.20646e+16
1.19287e+16
1.18085e+16
1.16969e+16
1.15783e+16
1.14587e+16
1.13514e+16
1.1253e+16
1.11491e+16
1.10433e+16
1.09495e+16
1.08641e+16
1.07743e+16
1.06829e+16
1.0603e+16
1.0532e+16
1.04572e+16
1.03809e+16
1.03171e+16
1.02626e+16
1.02049e+16
1.01459e+16
1.01003e+16
1.00665e+16
1.00295e+16
9.99123e+15
9.97156e+15
9.96437e+15
9.95605e+15
9.9476e+15
9.95876e+15
9.99447e+15
1.00282e+16
1.0064e+16
1.01449e+16
1.02504e+16
1.03738e+16
1.05198e+16
1.0726e+16
1.10644e+16
1.15143e+16
1.17533e+16
1.18161e+16
1.15722e+16
1.10348e+16
1.06226e+16
1.03513e+16
1.00756e+16
9.89903e+15
9.82802e+15
9.66517e+15
9.45555e+15
9.19812e+15
8.89312e+15
8.58367e+15
8.28771e+15
8.03539e+15
7.81109e+15
7.59423e+15
1.40435e+16
1.38369e+16
1.36707e+16
1.3524e+16
1.33598e+16
1.31822e+16
1.30251e+16
1.28931e+16
1.27465e+16
1.25887e+16
1.24503e+16
1.23303e+16
1.21997e+16
1.20646e+16
1.19288e+16
1.18085e+16
1.16969e+16
1.15784e+16
1.14588e+16
1.13514e+16
1.1253e+16
1.11491e+16
1.10433e+16
1.09495e+16
1.08642e+16
1.07743e+16
1.06829e+16
1.0603e+16
1.0532e+16
1.04572e+16
1.03809e+16
1.03171e+16
1.02626e+16
1.02049e+16
1.01459e+16
1.01003e+16
1.00665e+16
1.00295e+16
9.99122e+15
9.97154e+15
9.96434e+15
9.956e+15
9.94753e+15
9.95871e+15
9.99438e+15
1.00281e+16
1.00639e+16
1.01447e+16
1.02501e+16
1.03734e+16
1.05192e+16
1.07251e+16
1.10624e+16
1.15073e+16
1.17424e+16
1.18039e+16
1.15611e+16
1.10285e+16
1.06186e+16
1.03476e+16
1.0073e+16
9.89663e+15
9.82253e+15
9.65859e+15
9.44832e+15
9.19092e+15
8.88747e+15
8.57895e+15
8.2842e+15
8.03243e+15
7.80936e+15
7.59377e+15
1.40433e+16
1.38372e+16
1.3671e+16
1.35239e+16
1.33598e+16
1.31823e+16
1.30253e+16
1.28931e+16
1.27464e+16
1.25887e+16
1.24504e+16
1.23303e+16
1.21997e+16
1.20647e+16
1.19288e+16
1.18086e+16
1.16969e+16
1.15784e+16
1.14588e+16
1.13514e+16
1.1253e+16
1.11491e+16
1.10434e+16
1.09495e+16
1.08642e+16
1.07743e+16
1.06829e+16
1.0603e+16
1.0532e+16
1.04572e+16
1.03809e+16
1.03171e+16
1.02626e+16
1.02049e+16
1.01459e+16
1.01003e+16
1.00665e+16
1.00295e+16
9.9912e+15
9.97151e+15
9.96431e+15
9.95595e+15
9.94746e+15
9.95865e+15
9.99428e+15
1.0028e+16
1.00638e+16
1.01444e+16
1.02498e+16
1.0373e+16
1.05184e+16
1.07241e+16
1.10602e+16
1.14997e+16
1.17308e+16
1.17909e+16
1.15493e+16
1.10218e+16
1.06143e+16
1.03436e+16
1.00701e+16
9.89401e+15
9.81674e+15
9.65168e+15
9.44076e+15
9.18341e+15
8.88153e+15
8.57403e+15
8.28051e+15
8.02933e+15
7.80729e+15
7.59302e+15
1.4043e+16
1.38376e+16
1.36714e+16
1.35238e+16
1.33597e+16
1.31825e+16
1.30255e+16
1.28931e+16
1.27464e+16
1.25888e+16
1.24505e+16
1.23303e+16
1.21996e+16
1.20647e+16
1.19289e+16
1.18086e+16
1.16969e+16
1.15784e+16
1.14588e+16
1.13515e+16
1.12531e+16
1.11492e+16
1.10434e+16
1.09496e+16
1.08642e+16
1.07743e+16
1.06829e+16
1.0603e+16
1.0532e+16
1.04572e+16
1.03809e+16
1.03171e+16
1.02626e+16
1.02049e+16
1.01459e+16
1.01003e+16
1.00665e+16
1.00295e+16
9.99118e+15
9.97148e+15
9.96427e+15
9.95589e+15
9.94738e+15
9.95857e+15
9.99415e+15
1.00278e+16
1.00636e+16
1.01441e+16
1.02495e+16
1.03725e+16
1.05176e+16
1.0723e+16
1.10577e+16
1.14916e+16
1.17184e+16
1.17771e+16
1.15368e+16
1.10145e+16
1.06097e+16
1.03393e+16
1.00671e+16
9.89111e+15
9.81062e+15
9.64441e+15
9.43283e+15
9.17557e+15
8.87529e+15
8.56886e+15
8.27664e+15
8.02609e+15
7.80483e+15
7.59175e+15
1.40427e+16
1.3838e+16
1.36718e+16
1.35237e+16
1.33596e+16
1.31827e+16
1.30258e+16
1.2893e+16
1.27464e+16
1.25889e+16
1.24506e+16
1.23303e+16
1.21996e+16
1.20647e+16
1.19289e+16
1.18087e+16
1.16969e+16
1.15785e+16
1.14589e+16
1.13515e+16
1.12531e+16
1.11492e+16
1.10434e+16
1.09496e+16
1.08642e+16
1.07743e+16
1.06829e+16
1.06031e+16
1.0532e+16
1.04572e+16
1.03809e+16
1.03172e+16
1.02626e+16
1.02049e+16
1.01459e+16
1.01003e+16
1.00665e+16
1.00295e+16
9.99117e+15
9.97146e+15
9.96423e+15
9.95583e+15
9.9473e+15
9.9585e+15
9.99402e+15
1.00276e+16
1.00634e+16
1.01438e+16
1.02491e+16
1.03719e+16
1.05167e+16
1.07217e+16
1.10549e+16
1.14828e+16
1.17053e+16
1.17625e+16
1.15234e+16
1.10071e+16
1.06047e+16
1.03347e+16
1.00638e+16
9.88794e+15
9.80416e+15
9.63676e+15
9.42454e+15
9.1674e+15
8.86875e+15
8.5636e+15
8.27258e+15
8.02269e+15
7.8018e+15
7.58999e+15
1.40424e+16
1.38384e+16
1.36723e+16
1.35236e+16
1.33595e+16
1.31829e+16
1.30261e+16
1.2893e+16
1.27464e+16
1.25891e+16
1.24508e+16
1.23302e+16
1.21996e+16
1.20648e+16
1.1929e+16
1.18087e+16
1.16969e+16
1.15785e+16
1.14589e+16
1.13516e+16
1.12531e+16
1.11492e+16
1.10435e+16
1.09497e+16
1.08642e+16
1.07744e+16
1.0683e+16
1.06031e+16
1.05321e+16
1.04572e+16
1.03809e+16
1.03172e+16
1.02626e+16
1.02048e+16
1.01459e+16
1.01003e+16
1.00665e+16
1.00294e+16
9.99115e+15
9.97142e+15
9.96418e+15
9.95575e+15
9.94721e+15
9.95841e+15
9.99387e+15
1.00274e+16
1.00633e+16
1.01435e+16
1.02486e+16
1.03712e+16
1.05157e+16
1.07203e+16
1.10518e+16
1.14735e+16
1.16914e+16
1.1747e+16
1.15092e+16
1.09992e+16
1.05994e+16
1.03297e+16
1.00602e+16
9.88445e+15
9.79733e+15
9.62871e+15
9.41586e+15
9.15889e+15
8.86182e+15
8.55809e+15
8.26835e+15
8.01912e+15
7.79854e+15
7.58747e+15
1.40422e+16
1.38388e+16
1.36727e+16
1.35234e+16
1.33594e+16
1.3183e+16
1.30263e+16
1.28929e+16
1.27463e+16
1.25892e+16
1.24509e+16
1.23302e+16
1.21995e+16
1.20648e+16
1.19291e+16
1.18087e+16
1.16969e+16
1.15785e+16
1.1459e+16
1.13516e+16
1.12531e+16
1.11492e+16
1.10435e+16
1.09497e+16
1.08642e+16
1.07743e+16
1.0683e+16
1.06031e+16
1.05321e+16
1.04572e+16
1.03809e+16
1.03172e+16
1.02626e+16
1.02048e+16
1.01458e+16
1.01002e+16
1.00665e+16
1.00294e+16
9.9911e+15
9.97134e+15
9.96408e+15
9.95563e+15
9.94706e+15
9.95826e+15
9.99364e+15
1.00272e+16
1.0063e+16
1.0143e+16
1.0248e+16
1.03704e+16
1.05144e+16
1.07186e+16
1.10482e+16
1.14637e+16
1.1677e+16
1.17309e+16
1.14944e+16
1.09907e+16
1.0594e+16
1.03246e+16
1.00565e+16
9.88079e+15
9.79035e+15
9.62048e+15
9.40693e+15
9.15013e+15
8.85473e+15
8.55232e+15
8.26404e+15
8.01565e+15
7.79668e+15
7.58669e+15
1.40419e+16
1.38392e+16
1.36731e+16
1.35233e+16
1.33592e+16
1.31832e+16
1.30266e+16
1.28928e+16
1.27462e+16
1.25893e+16
1.2451e+16
1.23301e+16
1.21995e+16
1.20648e+16
1.19291e+16
1.18087e+16
1.16969e+16
1.15786e+16
1.1459e+16
1.13516e+16
1.12531e+16
1.11492e+16
1.10435e+16
1.09497e+16
1.08642e+16
1.07743e+16
1.0683e+16
1.06031e+16
1.05321e+16
1.04572e+16
1.03809e+16
1.03172e+16
1.02626e+16
1.02048e+16
1.01458e+16
1.01002e+16
1.00664e+16
1.00293e+16
9.99104e+15
9.97127e+15
9.96398e+15
9.9555e+15
9.9469e+15
9.9581e+15
9.9934e+15
1.00269e+16
1.00627e+16
1.01425e+16
1.02474e+16
1.03695e+16
1.05131e+16
1.07167e+16
1.10442e+16
1.14532e+16
1.16618e+16
1.1714e+16
1.14788e+16
1.09816e+16
1.05882e+16
1.03191e+16
1.00525e+16
9.87678e+15
9.78297e+15
9.61183e+15
9.3976e+15
9.14101e+15
8.84729e+15
8.54629e+15
8.2595e+15
8.01186e+15
7.79409e+15
7.58547e+15
1.40416e+16
1.38397e+16
1.36736e+16
1.35231e+16
1.33591e+16
1.31835e+16
1.30269e+16
1.28927e+16
1.27461e+16
1.25894e+16
1.24512e+16
1.233e+16
1.21994e+16
1.20648e+16
1.19292e+16
1.18088e+16
1.16969e+16
1.15786e+16
1.14591e+16
1.13517e+16
1.12531e+16
1.11492e+16
1.10435e+16
1.09497e+16
1.08642e+16
1.07743e+16
1.0683e+16
1.06031e+16
1.0532e+16
1.04571e+16
1.03809e+16
1.03172e+16
1.02626e+16
1.02048e+16
1.01458e+16
1.01002e+16
1.00664e+16
1.00293e+16
9.99098e+15
9.97118e+15
9.96387e+15
9.95535e+15
9.94672e+15
9.95793e+15
9.99313e+15
1.00265e+16
1.00623e+16
1.01419e+16
1.02466e+16
1.03685e+16
1.05115e+16
1.07146e+16
1.10398e+16
1.14419e+16
1.16456e+16
1.1696e+16
1.14623e+16
1.09719e+16
1.05818e+16
1.03132e+16
1.00482e+16
9.87238e+15
9.77515e+15
9.60273e+15
9.38783e+15
9.13149e+15
8.83948e+15
8.53997e+15
8.25473e+15
8.00786e+15
7.79071e+15
7.58347e+15
1.40413e+16
1.38401e+16
1.3674e+16
1.35229e+16
1.33589e+16
1.31837e+16
1.30272e+16
1.28926e+16
1.2746e+16
1.25896e+16
1.24514e+16
1.23299e+16
1.21994e+16
1.20648e+16
1.19293e+16
1.18089e+16
1.16969e+16
1.15786e+16
1.14591e+16
1.13518e+16
1.12531e+16
1.11492e+16
1.10436e+16
1.09498e+16
1.08642e+16
1.07743e+16
1.0683e+16
1.06032e+16
1.0532e+16
1.04571e+16
1.03809e+16
1.03172e+16
1.02625e+16
1.02047e+16
1.01458e+16
1.01002e+16
1.00663e+16
1.00292e+16
9.99092e+15
9.9711e+15
9.96376e+15
9.95519e+15
9.94654e+15
9.95776e+15
9.99285e+15
1.00262e+16
1.0062e+16
1.01413e+16
1.02459e+16
1.03673e+16
1.05099e+16
1.07123e+16
1.1035e+16
1.143e+16
1.16285e+16
1.16771e+16
1.14449e+16
1.09615e+16
1.0575e+16
1.03069e+16
1.00436e+16
9.86758e+15
9.76688e+15
9.59316e+15
9.37763e+15
9.12157e+15
8.83129e+15
8.53335e+15
8.2497e+15
8.00363e+15
7.7869e+15
7.58082e+15
1.4041e+16
1.38406e+16
1.36745e+16
1.35228e+16
1.33588e+16
1.3184e+16
1.30275e+16
1.28925e+16
1.27459e+16
1.25898e+16
1.24516e+16
1.23298e+16
1.21993e+16
1.20648e+16
1.19294e+16
1.18089e+16
1.16969e+16
1.15786e+16
1.14592e+16
1.13518e+16
1.12531e+16
1.11492e+16
1.10437e+16
1.09499e+16
1.08642e+16
1.07743e+16
1.0683e+16
1.06032e+16
1.0532e+16
1.04571e+16
1.03809e+16
1.03172e+16
1.02625e+16
1.02047e+16
1.01457e+16
1.01002e+16
1.00663e+16
1.00291e+16
9.99086e+15
9.97102e+15
9.96364e+15
9.95502e+15
9.94635e+15
9.95757e+15
9.99254e+15
1.00258e+16
1.00616e+16
1.01407e+16
1.0245e+16
1.03661e+16
1.05081e+16
1.07098e+16
1.10297e+16
1.14172e+16
1.16105e+16
1.16572e+16
1.14265e+16
1.09504e+16
1.05675e+16
1.03e+16
1.00385e+16
9.86233e+15
9.75811e+15
9.58307e+15
9.36694e+15
9.11124e+15
8.82267e+15
8.52639e+15
8.2444e+15
7.99917e+15
7.78286e+15
7.57705e+15
1.40407e+16
1.38411e+16
1.3675e+16
1.35226e+16
1.33586e+16
1.31842e+16
1.30278e+16
1.28924e+16
1.27458e+16
1.259e+16
1.24518e+16
1.23298e+16
1.21992e+16
1.20648e+16
1.19296e+16
1.1809e+16
1.16969e+16
1.15787e+16
1.14593e+16
1.13519e+16
1.12531e+16
1.11492e+16
1.10437e+16
1.09499e+16
1.08642e+16
1.07743e+16
1.06831e+16
1.06033e+16
1.0532e+16
1.04571e+16
1.0381e+16
1.03172e+16
1.02625e+16
1.02047e+16
1.01457e+16
1.01002e+16
1.00662e+16
1.0029e+16
9.99081e+15
9.97094e+15
9.96351e+15
9.95485e+15
9.94616e+15
9.95738e+15
9.99222e+15
1.00253e+16
1.00612e+16
1.014e+16
1.02441e+16
1.03648e+16
1.05061e+16
1.0707e+16
1.1024e+16
1.14036e+16
1.15914e+16
1.16362e+16
1.14071e+16
1.09385e+16
1.05595e+16
1.02927e+16
1.0033e+16
9.85661e+15
9.74881e+15
9.57245e+15
9.35577e+15
9.10045e+15
8.81363e+15
8.51909e+15
8.23881e+15
7.99444e+15
7.77857e+15
7.57297e+15
1.40403e+16
1.38416e+16
1.36754e+16
1.35224e+16
1.33585e+16
1.31845e+16
1.30282e+16
1.28923e+16
1.27457e+16
1.25902e+16
1.2452e+16
1.23297e+16
1.21991e+16
1.20648e+16
1.19297e+16
1.18092e+16
1.16968e+16
1.15788e+16
1.14594e+16
1.1352e+16
1.12531e+16
1.11492e+16
1.10438e+16
1.095e+16
1.08642e+16
1.07743e+16
1.06832e+16
1.06034e+16
1.0532e+16
1.04571e+16
1.0381e+16
1.03173e+16
1.02625e+16
1.02047e+16
1.01457e+16
1.01002e+16
1.00662e+16
1.0029e+16
9.99078e+15
9.97086e+15
9.96337e+15
9.95467e+15
9.94598e+15
9.95718e+15
9.99186e+15
1.00249e+16
1.00608e+16
1.01393e+16
1.02431e+16
1.03633e+16
1.0504e+16
1.0704e+16
1.10177e+16
1.13892e+16
1.15712e+16
1.1614e+16
1.13866e+16
1.09259e+16
1.05508e+16
1.02847e+16
1.0027e+16
9.85037e+15
9.73895e+15
9.56124e+15
9.34407e+15
9.08922e+15
8.80413e+15
8.5114e+15
8.2329e+15
7.98943e+15
7.774e+15
7.56864e+15
1.404e+16
1.38421e+16
1.36759e+16
1.35222e+16
1.33583e+16
1.31848e+16
1.30286e+16
1.28922e+16
1.27456e+16
1.25905e+16
1.24522e+16
1.23296e+16
1.2199e+16
1.20648e+16
1.19299e+16
1.18092e+16
1.16968e+16
1.15788e+16
1.14595e+16
1.13521e+16
1.1253e+16
1.11492e+16
1.10439e+16
1.09501e+16
1.08642e+16
1.07743e+16
1.06832e+16
1.06034e+16
1.0532e+16
1.04571e+16
1.0381e+16
1.03172e+16
1.02624e+16
1.02046e+16
1.01457e+16
1.01001e+16
1.00661e+16
1.00288e+16
9.99067e+15
9.9707e+15
9.96314e+15
9.9544e+15
9.94568e+15
9.95685e+15
9.99136e+15
1.00243e+16
1.00602e+16
1.01383e+16
1.02418e+16
1.03616e+16
1.05015e+16
1.07004e+16
1.10106e+16
1.1374e+16
1.15503e+16
1.15912e+16
1.13655e+16
1.09127e+16
1.05418e+16
1.02765e+16
1.00208e+16
9.84382e+15
9.7289e+15
9.54982e+15
9.33205e+15
9.0777e+15
8.79447e+15
8.5036e+15
8.22687e+15
7.98436e+15
7.76941e+15
7.56493e+15
1.40397e+16
1.38426e+16
1.36764e+16
1.35221e+16
1.33581e+16
1.31851e+16
1.30289e+16
1.28921e+16
1.27455e+16
1.25907e+16
1.24525e+16
1.23294e+16
1.21989e+16
1.20648e+16
1.193e+16
1.18093e+16
1.16968e+16
1.15788e+16
1.14597e+16
1.13522e+16
1.1253e+16
1.11492e+16
1.1044e+16
1.09501e+16
1.08642e+16
1.07743e+16
1.06832e+16
1.06034e+16
1.0532e+16
1.0457e+16
1.0381e+16
1.03172e+16
1.02624e+16
1.02045e+16
1.01456e+16
1.01001e+16
1.0066e+16
1.00287e+16
9.99056e+15
9.97055e+15
9.96292e+15
9.95411e+15
9.94537e+15
9.95653e+15
9.99085e+15
1.00237e+16
1.00595e+16
1.01373e+16
1.02404e+16
1.03597e+16
1.04988e+16
1.06965e+16
1.1003e+16
1.1358e+16
1.15284e+16
1.15673e+16
1.13433e+16
1.08988e+16
1.05322e+16
1.02678e+16
1.00141e+16
9.83668e+15
9.71822e+15
9.53781e+15
9.3195e+15
9.06567e+15
8.78431e+15
8.49543e+15
8.22051e+15
7.97898e+15
7.76452e+15
7.56037e+15
1.40394e+16
1.38431e+16
1.36769e+16
1.35219e+16
1.33579e+16
1.31855e+16
1.30293e+16
1.2892e+16
1.27454e+16
1.25909e+16
1.24527e+16
1.23293e+16
1.21988e+16
1.20648e+16
1.19302e+16
1.18095e+16
1.16967e+16
1.15788e+16
1.14598e+16
1.13523e+16
1.1253e+16
1.11492e+16
1.10441e+16
1.09502e+16
1.08641e+16
1.07743e+16
1.06833e+16
1.06035e+16
1.05319e+16
1.0457e+16
1.0381e+16
1.03172e+16
1.02623e+16
1.02045e+16
1.01456e+16
1.01e+16
1.00658e+16
1.00286e+16
9.99046e+15
9.97039e+15
9.96267e+15
9.95381e+15
9.94507e+15
9.95619e+15
9.9903e+15
1.0023e+16
1.00588e+16
1.01362e+16
1.0239e+16
1.03576e+16
1.04958e+16
1.06923e+16
1.09947e+16
1.1341e+16
1.15052e+16
1.15421e+16
1.132e+16
1.08838e+16
1.05217e+16
1.02583e+16
1.00068e+16
9.82893e+15
9.7069e+15
9.52512e+15
9.30635e+15
9.05312e+15
8.77364e+15
8.48681e+15
8.21378e+15
7.97326e+15
7.75931e+15
7.55551e+15
1.40391e+16
1.38437e+16
1.36774e+16
1.35217e+16
1.33578e+16
1.31858e+16
1.30297e+16
1.28918e+16
1.27453e+16
1.25912e+16
1.2453e+16
1.23292e+16
1.21987e+16
1.20648e+16
1.19304e+16
1.18096e+16
1.16967e+16
1.15789e+16
1.146e+16
1.13525e+16
1.1253e+16
1.11492e+16
1.10442e+16
1.09503e+16
1.08641e+16
1.07743e+16
1.06834e+16
1.06036e+16
1.05319e+16
1.0457e+16
1.03811e+16
1.03173e+16
1.02623e+16
1.02044e+16
1.01456e+16
1.01e+16
1.00657e+16
1.00284e+16
9.99038e+15
9.97026e+15
9.96243e+15
9.9535e+15
9.94476e+15
9.95585e+15
9.98973e+15
1.00223e+16
1.00581e+16
1.01351e+16
1.02374e+16
1.03554e+16
1.04927e+16
1.06877e+16
1.09858e+16
1.13229e+16
1.14808e+16
1.15156e+16
1.12954e+16
1.08679e+16
1.05104e+16
1.02482e+16
9.99882e+15
9.82052e+15
9.69487e+15
9.51177e+15
9.29261e+15
9.04001e+15
8.76241e+15
8.47774e+15
8.20668e+15
7.96719e+15
7.75376e+15
7.55034e+15
1.40388e+16
1.38442e+16
1.36779e+16
1.35215e+16
1.33576e+16
1.31862e+16
1.30301e+16
1.28917e+16
1.27452e+16
1.25915e+16
1.24533e+16
1.23291e+16
1.21985e+16
1.20648e+16
1.19307e+16
1.18097e+16
1.16967e+16
1.1579e+16
1.14602e+16
1.13526e+16
1.1253e+16
1.11493e+16
1.10444e+16
1.09505e+16
1.08641e+16
1.07743e+16
1.06835e+16
1.06037e+16
1.05319e+16
1.0457e+16
1.03812e+16
1.03173e+16
1.02623e+16
1.02044e+16
1.01456e+16
1.01e+16
1.00656e+16
1.00283e+16
9.99033e+15
9.97012e+15
9.96216e+15
9.9532e+15
9.94448e+15
9.95549e+15
9.9891e+15
1.00216e+16
1.00574e+16
1.01339e+16
1.02357e+16
1.0353e+16
1.04893e+16
1.06828e+16
1.09763e+16
1.13039e+16
1.14551e+16
1.14878e+16
1.12696e+16
1.08509e+16
1.04982e+16
1.02372e+16
9.99014e+15
9.81142e+15
9.68211e+15
9.49764e+15
9.2782e+15
9.02635e+15
8.75063e+15
8.46814e+15
8.19914e+15
7.96075e+15
7.74783e+15
7.5448e+15
1.40385e+16
1.38448e+16
1.36784e+16
1.35213e+16
1.33574e+16
1.31865e+16
1.30305e+16
1.28916e+16
1.2745e+16
1.25918e+16
1.24536e+16
1.23289e+16
1.21984e+16
1.20648e+16
1.19309e+16
1.18099e+16
1.16966e+16
1.1579e+16
1.14603e+16
1.13527e+16
1.12529e+16
1.11493e+16
1.10445e+16
1.09505e+16
1.08641e+16
1.07743e+16
1.06836e+16
1.06037e+16
1.05318e+16
1.04569e+16
1.03812e+16
1.03173e+16
1.02621e+16
1.02043e+16
1.01456e+16
1.00999e+16
1.00654e+16
1.00281e+16
9.99017e+15
9.96986e+15
9.96177e+15
9.95277e+15
9.94404e+15
9.95495e+15
9.98827e+15
1.00206e+16
1.00565e+16
1.01323e+16
1.02336e+16
1.03502e+16
1.04854e+16
1.0677e+16
1.09656e+16
1.1284e+16
1.14286e+16
1.14592e+16
1.1243e+16
1.08334e+16
1.04856e+16
1.0226e+16
9.98108e+15
9.80187e+15
9.66911e+15
9.48326e+15
9.2634e+15
9.01237e+15
8.7387e+15
8.45844e+15
8.19145e+15
7.95423e+15
7.74188e+15
7.53922e+15
1.40382e+16
1.38453e+16
1.36789e+16
1.35212e+16
1.33572e+16
1.31869e+16
1.30309e+16
1.28915e+16
1.27449e+16
1.25921e+16
1.24539e+16
1.23288e+16
1.21983e+16
1.20648e+16
1.19311e+16
1.181e+16
1.16966e+16
1.1579e+16
1.14605e+16
1.13529e+16
1.12529e+16
1.11493e+16
1.10446e+16
1.09506e+16
1.0864e+16
1.07743e+16
1.06837e+16
1.06038e+16
1.05318e+16
1.04569e+16
1.03812e+16
1.03173e+16
1.0262e+16
1.02042e+16
1.01455e+16
1.00998e+16
1.00652e+16
1.00279e+16
9.99002e+15
9.96962e+15
9.96137e+15
9.9523e+15
9.94358e+15
9.95441e+15
9.98742e+15
1.00196e+16
1.00554e+16
1.01307e+16
1.02313e+16
1.03471e+16
1.04811e+16
1.06708e+16
1.09542e+16
1.12629e+16
1.14007e+16
1.14292e+16
1.12151e+16
1.08147e+16
1.04721e+16
1.02139e+16
9.9713e+15
9.79152e+15
9.65531e+15
9.46813e+15
9.24795e+15
8.99773e+15
8.72614e+15
8.44825e+15
8.18332e+15
7.94728e+15
7.73553e+15
7.53332e+15
1.40379e+16
1.38459e+16
1.36795e+16
1.3521e+16
1.33571e+16
1.31873e+16
1.30313e+16
1.28913e+16
1.27448e+16
1.25924e+16
1.24542e+16
1.23287e+16
1.21981e+16
1.20648e+16
1.19313e+16
1.18102e+16
1.16965e+16
1.15791e+16
1.14607e+16
1.1353e+16
1.12529e+16
1.11493e+16
1.10448e+16
1.09508e+16
1.0864e+16
1.07743e+16
1.06838e+16
1.06039e+16
1.05317e+16
1.04569e+16
1.03813e+16
1.03173e+16
1.02619e+16
1.02041e+16
1.01455e+16
1.00998e+16
1.0065e+16
1.00277e+16
9.98991e+15
9.96937e+15
9.96095e+15
9.95184e+15
9.94315e+15
9.95385e+15
9.98651e+15
1.00186e+16
1.00544e+16
1.0129e+16
1.02289e+16
1.03438e+16
1.04766e+16
1.06641e+16
1.0942e+16
1.12407e+16
1.13715e+16
1.13978e+16
1.11858e+16
1.07948e+16
1.04574e+16
1.02009e+16
9.96065e+15
9.78036e+15
9.64065e+15
9.45213e+15
9.23174e+15
8.98246e+15
8.71295e+15
8.43745e+15
8.17469e+15
7.9399e+15
7.72874e+15
7.52699e+15
1.40377e+16
1.38465e+16
1.368e+16
1.35208e+16
1.33569e+16
1.31877e+16
1.30318e+16
1.28912e+16
1.27446e+16
1.25927e+16
1.24545e+16
1.23285e+16
1.21979e+16
1.20647e+16
1.19315e+16
1.18103e+16
1.16965e+16
1.15791e+16
1.14609e+16
1.13531e+16
1.12528e+16
1.11493e+16
1.10449e+16
1.09508e+16
1.08639e+16
1.07743e+16
1.06839e+16
1.06039e+16
1.05316e+16
1.04568e+16
1.03813e+16
1.03173e+16
1.02618e+16
1.02039e+16
1.01454e+16
1.00996e+16
1.00647e+16
1.00274e+16
9.98965e+15
9.96898e+15
9.96038e+15
9.95122e+15
9.94251e+15
9.95306e+15
9.98535e+15
1.00172e+16
1.0053e+16
1.01269e+16
1.0226e+16
1.034e+16
1.04713e+16
1.06564e+16
1.09285e+16
1.12175e+16
1.13413e+16
1.13654e+16
1.11557e+16
1.07742e+16
1.04424e+16
1.01876e+16
9.94953e+15
9.76865e+15
9.62574e+15
9.43587e+15
9.21513e+15
8.96685e+15
8.69964e+15
8.42657e+15
8.16589e+15
7.93242e+15
7.72195e+15
7.52064e+15
1.40374e+16