/*--------------------------------*- C++ -*----------------------------------*\
| =========                 |                                                 |
| \\      /  F ield         | OpenFOAM: The Open Source CFD Toolbox           |
|  \\    /   O peration     | Version:  v2012                                 |
|   \\  /    A nd           | Website:  www.openfoam.com                      |
|    \\/     M anipulation  |                                                 |
\*---------------------------------------------------------------------------*/
FoamFile
{
    version     2.0;
    format      ascii;
    class       volVectorField;
    location    "1e-06";
    object      U;
}
// * * * * * * * * * * * * * * * * * * * * * * * * * * * * * * * * * * * * * //

dimensions      [0 1 -1 0 0 0 0];


internalField   nonuniform List<vector> 
10262
(
(5.7938 0.0127217 0)
(4.95237 0.00423379 0)
(4.73995 0.0027935 0)
(4.29261 0.00222903 9.43196e-34)
(4.01948 0.00167403 -2.34239e-33)
(3.75995 0.00114738 1.5046e-43)
(3.67856 0.000665383 0)
(3.59739 0.000479548 -6.29989e-33)
(3.52662 0.000699718 6.25892e-33)
(3.38935 0.000721241 0)
(3.31615 0.000355465 1.85123e-43)
(3.30104 9.59356e-05 -7.09145e-33)
(3.26783 0.00040282 3.3344e-33)
(3.19488 0.000589895 7.23609e-33)
(3.09805 0.000271598 5.49436e-33)
(3.12728 -0.0001052 0)
(3.12237 0.000246767 1.37318e-43)
(3.06386 0.000540029 0)
(2.97793 0.00027057 0)
(2.99736 -0.000142144 0)
(3.01666 0.00015163 0)
(2.96083 0.000525967 0)
(2.88059 0.000302945 0)
(2.88969 -0.000129569 0)
(2.91249 8.06156e-05 0)
(2.86911 0.000505191 0)
(2.78978 0.000359376 0)
(2.78844 -9.86863e-05 0)
(2.8112 3.69654e-05 0)
(2.77553 0.000513349 0)
(2.69412 0.000445269 0)
(2.68212 -4.96009e-05 6.0559e-44)
(2.70012 2.76933e-05 -2.25696e-32)
(2.66991 0.000559046 2.72545e-32)
(2.58112 0.000563886 2.43643e-32)
(2.55752 5.61222e-05 -6.9158e-32)
(2.57013 8.07007e-05 -3.32845e-32)
(2.53442 0.000653557 0)
(2.43816 0.000741843 2.61176e-32)
(2.40096 0.000240179 -4.62147e-32)
(2.3934 0.000199046 -3.53743e-32)
(2.35987 0.000862279 1.90756e-37)
(2.23444 0.00100963 -5.23747e-32)
(2.17852 0.000508973 -5.79916e-32)
(2.16078 0.000546569 -7.66308e-32)
(2.07667 0.00121338 1.01435e-31)
(1.93795 0.0015372 2.74387e-37)
(1.84741 0.00108271 8.79068e-32)
(1.73973 0.00110551 0)
(1.66745 0.00221565 -4.55566e-32)
(1.3755 0.00265294 -1.92071e-31)
(1.19014 0.00263042 0)
(0.91435 0.00402498 0)
(0.628658 0.0588773 1.56561e-26)
(0.885485 0.16112 1.57749e-25)
(1.20889 0.244702 -5.95359e-31)
(1.35158 0.29601 7.74236e-31)
(1.71672 0.412521 0)
(2.09409 0.509799 0)
(2.09189 0.509815 0)
(2.18543 0.535218 5.47107e-31)
(2.17149 0.533953 1.81097e-28)
(2.09867 0.646036 -7.60427e-31)
(2.30555 0.719931 1.72833e-26)
(2.55803 0.801011 1.37029e-31)
(2.59559 0.817009 -2.27177e-26)
(2.73547 0.880574 -5.39232e-27)
(2.82836 0.912114 8.37925e-32)
(3.11492 1.01387 5.66496e-29)
(3.12972 1.02129 4.44706e-32)
(3.15437 1.02722 8.77615e-29)
(3.20727 1.03827 1.87191e-32)
(6.07016 0.0181891 0)
(5.28634 0.00474358 -1.11523e-32)
(5.13051 0.0027069 4.22455e-33)
(4.6216 0.00374468 0)
(4.32773 0.00272905 0)
(4.12127 0.00167452 -6.19782e-33)
(4.07767 0.000860447 5.41034e-33)
(3.92807 0.000859516 0)
(3.80995 0.00111583 6.23865e-33)
(3.73017 0.00108633 5.57503e-33)
(3.70574 0.000531207 0)
(3.62637 0.000314554 7.06542e-33)
(3.53508 0.000658887 -3.32626e-33)
(3.51934 0.00086604 0)
(3.47711 0.000438485 0)
(3.45282 -6.47187e-05 0)
(3.38167 0.000381779 5.22443e-33)
(3.37612 0.000791205 -9.22961e-39)
(3.34425 0.000441478 1.18536e-32)
(3.32415 -0.000162172 1.40828e-38)
(3.28051 0.00023306 6.91204e-33)
(3.26263 0.000807977 0)
(3.23657 0.000500516 0)
(3.21841 -0.000136886 2.17957e-32)
(3.18029 0.000138131 1.51015e-32)
(3.16187 0.000783705 -2.15871e-32)
(3.13643 0.000598808 -1.56061e-32)
(3.11851 -7.50441e-05 0)
(3.0817 9.05553e-05 0)
(3.05983 0.000805893 0)
(3.03218 0.000747167 0)
(3.01278 2.85594e-05 0)
(2.97181 9.80937e-05 -2.2493e-32)
(2.94643 0.000891392 5.43444e-32)
(2.91049 0.000965904 2.42786e-32)
(2.88692 0.000208736 0)
(2.84149 0.000206587 0)
(2.80257 0.00106563 -4.046e-32)
(2.75929 0.00128601 -2.60251e-32)
(2.72796 0.000544823 0)
(2.66098 0.000432068 -3.52609e-32)
(2.62027 0.0014398 3.52866e-32)
(2.54317 0.00182571 -5.21931e-32)
(2.49715 0.0010458 5.78452e-32)
(2.42392 0.00107361 0)
(2.32426 0.0021284 0)
(2.23748 0.00283913 0)
(2.15927 0.00231548 0)
(1.98527 0.00226918 0)
(1.90609 0.00420199 -4.54287e-32)
(1.64036 0.00569205 -1.91513e-31)
(1.46667 0.00612575 -4.74682e-31)
(1.14976 0.00951685 1.27349e-30)
(0.818635 0.155327 4.77385e-27)
(1.13091 0.316876 -1.52294e-26)
(1.4652 0.39475 -4.90652e-31)
(1.47909 0.378724 8.03036e-31)
(1.84135 0.446172 -1.48631e-27)
(2.38376 0.582843 -5.40566e-31)
(2.3862 0.583628 -1.33519e-31)
(2.42948 0.596654 0)
(2.43724 0.602734 5.14548e-28)
(2.4098 0.79551 0)
(2.59389 0.866454 0)
(2.79337 0.934583 -7.12021e-27)
(2.817 0.940478 1.79603e-27)
(3.02592 0.994028 1.76161e-27)
(3.10003 1.0102 7.43631e-29)
(3.38176 1.1019 -2.74053e-28)
(3.42864 1.11864 2.97784e-28)
(3.54583 1.1533 -1.13188e-29)
(3.57281 1.15284 0)
(6.45879 0.0333162 0)
(5.74944 0.0114032 0)
(5.60295 0.00778397 0)
(5.10847 0.0084176 0)
(4.81787 0.00568991 4.66945e-33)
(4.60139 0.00338545 6.19322e-33)
(4.55507 0.00240311 -5.40352e-33)
(4.40121 0.00264691 -1.25356e-32)
(4.27393 0.00240459 -6.23253e-33)
(4.18846 0.00187104 -1.11392e-32)
(4.16073 0.00138141 0)
(4.07933 0.00159741 0)
(3.96926 0.00139024 3.32191e-33)
(3.96459 0.00123245 1.51647e-37)
(3.91676 0.00100207 -1.09377e-32)
(3.89484 0.000826761 1.06324e-32)
(3.81167 0.000932742 0)
(3.81359 0.00104704 0)
(3.77694 0.000900733 0)
(3.75862 0.000488583 0)
(3.71264 0.000736803 0)
(3.69438 0.00114098 -2.08832e-32)
(3.66415 0.000922228 -1.34169e-32)
(3.64721 0.000468187 0)
(3.60865 0.000655009 0)
(3.58892 0.00114187 -2.15575e-32)
(3.5594 0.00103396 -1.56027e-32)
(3.54214 0.000550484 0)
(3.50564 0.000678409 0)
(3.48208 0.0012384 0)
(3.45056 0.00125125 0)
(3.43135 0.00075142 0)
(3.39082 0.000814065 -2.2485e-32)
(3.36357 0.00147136 2.7132e-32)
(3.32358 0.00162376 0)
(3.29978 0.00106885 -3.44261e-32)
(3.2546 0.00115739 -3.31527e-32)
(3.21304 0.00187856 0)
(3.16578 0.00221111 0)
(3.1338 0.00172543 4.60145e-32)
(3.06593 0.00171378 3.52326e-32)
(3.02261 0.00273018 3.52284e-32)
(2.93961 0.00328379 5.21458e-32)
(2.89264 0.00267025 5.77622e-32)
(2.81943 0.00313734 7.63255e-32)
(2.71227 0.00413855 2.02073e-31)
(2.6219 0.00527196 7.68962e-32)
(2.54212 0.0053166 -1.75117e-31)
(2.35986 0.00549213 -1.27195e-31)
(2.27927 0.00844395 9.07159e-32)
(1.9958 0.0108162 0)
(1.82058 0.0120348 0)
(1.50474 0.019188 0)
(1.14369 0.151716 -1.10211e-30)
(1.45606 0.310569 -1.99763e-26)
(1.7861 0.398183 8.09982e-27)
(1.73884 0.393191 0)
(1.84753 0.436659 -7.22903e-30)
(2.70542 0.648995 0)
(2.71445 0.657371 -1.33434e-31)
(2.78975 0.682581 5.33521e-31)
(2.83848 0.701847 -9.30751e-28)
(2.80795 0.878208 3.77078e-31)
(2.99034 0.94847 -7.24856e-27)
(3.19943 1.01843 -1.91284e-26)
(3.22534 1.02741 1.00068e-31)
(3.42461 1.10727 2.81874e-31)
(3.11804 1.00431 -2.1155e-27)
(3.79235 1.22659 4.87711e-28)
(3.86466 1.25648 6.71026e-28)
(3.99247 1.29578 2.22409e-29)
(4.02305 1.29776 0)
(6.48135 0.0387893 0)
(5.77624 0.0124422 0)
(5.63004 0.00806679 0)
(5.13534 0.0102522 0)
(4.84563 0.0068851 4.67118e-33)
(4.62578 0.00384258 6.19321e-33)
(4.57932 0.00265602 0)
(4.42511 0.00328462 0)
(4.30586 0.00292845 0)
(4.21115 0.00210861 0)
(4.18326 0.00158755 0)
(4.10163 0.00196077 -7.05384e-33)
(4.06262 0.00178726 -7.45798e-38)
(3.98632 0.00144127 -1.44031e-32)
(3.9379 0.00116565 -5.47363e-33)
(3.91616 0.00101946 0)
(3.88152 0.00117398 0)
(3.83463 0.0011925 1.9722e-32)
(3.79734 0.00104832 1.18571e-32)
(3.77915 0.000639988 0)
(3.74468 0.000910398 -1.3819e-32)
(3.71493 0.00128562 2.08809e-32)
(3.68395 0.00107141 0)
(3.66712 0.000623004 2.17605e-32)
(3.63399 0.000817323 1.50955e-32)
(3.60922 0.00129194 -2.15546e-32)
(3.57867 0.00120203 -1.56006e-32)
(3.56149 0.00072555 0)
(3.52845 0.000857222 0)
(3.5023 0.00141798 2.49485e-32)
(3.46933 0.00145773 -2.35309e-38)
(3.45015 0.000971517 5.64814e-32)
(3.41221 0.00103734 4.496e-32)
(3.38386 0.00171292 -2.71258e-32)
(3.34179 0.0019103 0)
(3.31798 0.00136647 0)
(3.27498 0.00147652 0)
(3.23352 0.002226 -4.03928e-32)
(3.18333 0.00261824 1.29749e-38)
(3.15132 0.00219265 -4.59917e-32)
(3.08535 0.00219018 0)
(3.04328 0.0032954 0)
(2.95626 0.0039723 0)
(2.90926 0.00335736 0)
(2.83795 0.00398774 0)
(2.73262 0.00509937 0)
(2.63746 0.00637489 0)
(2.55754 0.00682149 0)
(2.37698 0.00707483 0)
(2.29879 0.0107001 -9.08033e-32)
(2.00951 0.0139735 -3.82684e-31)
(1.83413 0.0156878 0)
(1.52172 0.02589 0)
(1.16008 0.185774 1.26636e-31)
(1.46258 0.356788 3.64246e-26)
(1.79085 0.44207 -3.60777e-30)
(1.74464 0.419124 0)
(2.10141 0.488886 7.65652e-30)
(2.71671 0.649076 0)
(2.72374 0.661211 0)
(2.80478 0.68664 0)
(2.85614 0.709531 -1.61436e-27)
(2.82195 0.903119 -1.34897e-26)
(3.00247 0.97443 9.14828e-27)
(3.21823 1.05023 2.65972e-26)
(3.24012 1.05515 1.31385e-26)
(3.43758 1.12383 -1.79458e-27)
(3.51778 1.12929 1.05362e-27)
(3.82856 1.23333 0)
(3.88913 1.26341 2.75517e-28)
(4.01285 1.30144 -2.55367e-28)
(4.04486 1.30353 7.65454e-32)
(6.75299 0.0501241 -1.49273e-32)
(6.16099 0.0174779 -1.11398e-32)
(6.02731 0.0120051 -8.44699e-33)
(5.55697 0.0144122 -9.34983e-34)
(5.26346 0.00968919 4.66123e-33)
(5.03638 0.00545451 1.23741e-32)
(4.98812 0.00396731 -5.40139e-33)
(4.82749 0.00485291 0)
(4.69701 0.00419577 0)
(4.59987 0.00292834 1.11258e-32)
(4.57028 0.00233987 2.20909e-37)
(4.48445 0.00272443 7.05291e-33)
(4.41032 0.0025261 3.31388e-33)
(4.36105 0.00219485 1.43955e-32)
(4.309 0.0016861 -5.46125e-33)
(4.28748 0.00145151 -4.09529e-37)
(4.22866 0.00170059 -1.80056e-37)
(4.20073 0.00175134 -1.97049e-32)
(4.16059 0.00148189 0)
(4.1426 0.00105707 0)
(4.10164 0.00135767 0)
(4.07467 0.00172553 -2.08588e-32)
(4.04142 0.00148156 -2.06335e-37)
(4.02471 0.00103826 9.59677e-38)
(3.98827 0.00124813 1.50844e-32)
(3.9638 0.00172098 0)
(3.93125 0.00163855 0)
(3.91406 0.00117389 0)
(3.87878 0.00132709 0)
(3.85199 0.00190318 2.49224e-32)
(3.81723 0.00197289 3.55497e-32)
(3.79791 0.00150993 4.04093e-38)
(3.75813 0.00160347 2.24611e-32)
(3.72848 0.00232922 -2.70989e-32)
(3.68471 0.00258924 -7.27094e-32)
(3.66062 0.00205436 -6.37397e-38)
(3.61575 0.00224633 -1.80898e-37)
(3.57213 0.00306482 -1.94068e-37)
(3.52031 0.00356403 1.03943e-31)
(3.48785 0.00321123 -9.19011e-32)
(3.41951 0.00326973 7.03893e-32)
(3.37453 0.0045887 -1.40737e-31)
(3.28527 0.00546645 -1.04159e-31)
(3.23764 0.00481139 0)
(3.16368 0.00583021 -1.52383e-31)
(3.05316 0.00712753 2.01757e-31)
(2.95587 0.00879654 0)
(2.87494 0.00970016 0)
(2.68858 0.0101047 0)
(2.60522 0.0149648 0)
(2.30867 0.0192438 3.82169e-31)
(2.13199 0.0215237 9.43152e-31)
(1.81471 0.0358112 1.54464e-35)
(1.43681 0.211434 4.27798e-27)
(1.73009 0.395302 -8.28109e-27)
(2.05383 0.483363 -8.90185e-27)
(1.98037 0.457957 -1.8939e-27)
(2.30543 0.524991 -3.19225e-27)
(2.92496 0.691979 0)
(2.93596 0.707941 0)
(3.05067 0.74483 -5.331e-31)
(3.13689 0.779603 1.87309e-27)
(3.11617 0.983896 -2.71211e-27)
(3.29691 1.05582 3.92208e-27)
(3.52386 1.13482 1.0525e-30)
(3.55674 1.14394 -2.36759e-27)
(3.74819 1.21395 2.91955e-27)
(3.83024 1.226 -9.6623e-31)
(4.12267 1.32433 5.69624e-28)
(4.20793 1.36369 -9.04964e-32)
(4.34904 1.40781 -2.3582e-29)
(4.38621 1.41145 3.76112e-32)
(6.9541 0.056532 0)
(6.48931 0.0217282 0)
(6.37013 0.0157196 8.43956e-33)
(5.9333 0.0188622 9.28385e-34)
(5.63587 0.0128795 4.65663e-33)
(5.40258 0.00737402 6.17815e-33)
(5.35262 0.00561092 0)
(5.1856 0.00678609 0)
(5.04269 0.00571128 0)
(4.94445 0.00389784 0)
(4.91331 0.00329751 -1.18874e-32)
(4.82288 0.00398339 -4.01559e-38)
(4.71273 0.00336875 -3.31603e-33)
(4.69079 0.00280997 0)
(4.63524 0.00232417 -1.08928e-32)
(4.61349 0.00224073 -3.41703e-37)
(4.52884 0.0023144 -2.08176e-32)
(4.52106 0.00219765 2.24987e-37)
(4.47834 0.00201484 -1.18106e-32)
(4.46021 0.00162636 -1.98448e-32)
(4.41112 0.00189828 -1.37795e-32)
(4.38816 0.00221073 -2.08163e-32)
(4.35296 0.00197627 -1.33744e-32)
(4.33614 0.00156533 0)
(4.29537 0.00177028 0)
(4.27187 0.00222109 -2.14887e-32)
(4.23774 0.00215975 -1.55541e-32)
(4.22039 0.00172547 0)
(4.18212 0.00189603 1.88378e-32)
(4.15511 0.00247616 -1.63812e-37)
(4.11908 0.00257975 1.77393e-32)
(4.09953 0.00216048 -5.63363e-32)
(4.05735 0.00228698 -4.48493e-32)
(4.02662 0.0030581 -5.40946e-32)
(3.98193 0.00337642 -4.83804e-32)
(3.95751 0.00287799 6.86543e-32)
(3.91028 0.00317794 -1.79009e-37)
(3.86482 0.00405056 8.05441e-32)
(3.8122 0.00465341 0)
(3.77931 0.00442407 -9.17621e-32)
(3.70853 0.00456551 -7.03057e-32)
(3.66049 0.00610366 0)
(3.57067 0.00715929 0)
(3.52245 0.00653047 0)
(3.44532 0.00801146 1.52108e-31)
(3.33081 0.00945944 -2.01314e-31)
(3.23222 0.0115625 0)
(3.15062 0.0130021 0)
(2.96014 0.0136191 6.36388e-32)
(2.87038 0.0198144 -9.05265e-32)
(2.57185 0.0251435 0)
(2.39412 0.0280575 0)
(2.07082 0.0468822 0)
(1.68243 0.249825 9.17898e-31)
(1.96381 0.443787 -7.33579e-32)
(2.2831 0.534973 8.84193e-27)
(2.19729 0.50258 -1.01543e-26)
(2.31354 0.52642 -6.30567e-27)
(3.08115 0.718701 -4.11085e-28)
(3.09434 0.7399 -2.5518e-31)
(3.23335 0.785312 1.01346e-34)
(3.3462 0.830375 2.17938e-27)
(3.34156 1.05016 -8.5211e-27)
(3.52259 1.12316 -1.8421e-27)
(3.76205 1.20835 -3.18241e-27)
(3.81031 1.22188 0)
(3.99933 1.29314 0)
(4.07692 1.29781 -1.50261e-27)
(4.35194 1.39258 1.20261e-27)
(4.4575 1.43988 0)
(4.61343 1.48976 1.17772e-28)
(4.65543 1.49518 0)
(6.96488 0.0591276 -1.49313e-32)
(6.5077 0.0222354 -3.34036e-32)
(6.38959 0.0159686 -8.4358e-33)
(5.95582 0.0204333 -1.85099e-33)
(5.66109 0.0140391 0)
(5.42479 0.00769129 -1.23428e-32)
(5.37481 0.00568484 2.15344e-32)
(5.20796 0.00743659 1.24838e-32)
(5.07442 0.00627187 1.24177e-32)
(4.96609 0.00407879 2.04855e-37)
(4.9348 0.00342544 1.18671e-32)
(4.8443 0.00436093 0)
(4.79377 0.00386876 0)
(4.71188 0.0030192 0)
(4.65574 0.00245345 -1.08939e-32)
(4.63424 0.0024086 2.11734e-32)
(4.59352 0.00261107 0)
(4.54165 0.00234563 0)
(4.49827 0.00213565 -1.18063e-32)
(4.48033 0.00176121 1.98189e-32)
(4.44344 0.00208576 1.3765e-32)
(4.40841 0.00235618 -2.0791e-32)
(4.37241 0.00210668 0)
(4.35572 0.00170718 0)
(4.32087 0.00193946 0)
(4.29198 0.00237218 0)
(4.25676 0.00231152 0)
(4.23951 0.00188867 -4.75059e-32)
(4.20504 0.00208152 -7.52678e-32)
(4.17529 0.00265771 -8.20179e-38)
(4.13769 0.00277116 -3.51479e-37)
(4.1182 0.00236825 -5.62663e-32)
(4.07891 0.00251928 -4.48017e-32)
(4.04705 0.00330361 5.40332e-32)
(4.00012 0.00364762 0)
(3.97572 0.0031595 -6.85748e-32)
(3.93091 0.00350466 -1.3207e-31)
(3.88563 0.00440798 -3.20109e-38)
(3.82989 0.00504153 -6.12578e-37)
(3.79699 0.00486354 -9.16309e-32)
(3.72839 0.00505255 0)
(3.68175 0.0066969 0)
(3.58775 0.00784076 0)
(3.53947 0.0071737 0)
(3.46446 0.00889752 1.51891e-31)
(3.35224 0.0105024 -2.01036e-31)
(3.24846 0.0126048 0)
(3.16672 0.0145255 0)
(2.97857 0.0153233 0)
(2.89124 0.0222561 0)
(2.58706 0.0284662 0)
(2.40925 0.0318869 0)
(2.09014 0.0543573 0)
(1.70452 0.260178 0)
(1.9772 0.456344 0)
(2.29419 0.548707 3.35934e-30)
(2.20822 0.51642 1.59516e-30)
(2.49635 0.557477 0)
(3.09235 0.720552 4.69296e-30)
(3.10374 0.744496 -2.44098e-31)
(3.24701 0.789126 -1.37496e-28)
(3.36215 0.83783 -9.63663e-31)
(3.35594 1.05654 -6.49715e-27)
(3.5364 1.1295 -1.32371e-27)
(3.78305 1.21714 0)
(3.82698 1.22924 8.37757e-32)
(4.01183 1.29738 -2.0456e-35)
(4.09151 1.30167 1.05803e-27)
(4.37619 1.39879 9.67771e-28)
(4.47481 1.44414 8.90775e-32)
(4.63054 1.4943 -3.13211e-32)
(4.67397 1.50071 5.77429e-36)
(7.09808 0.065992 0)
(6.7683 0.0276286 0)
(6.66653 0.0211927 0)
(6.27952 0.0262698 0)
(5.98755 0.0185059 0)
(5.74842 0.0106055 -1.2333e-32)
(5.69718 0.0082418 1.0759e-32)
(5.5251 0.0101787 -1.24723e-32)
(5.37876 0.00847702 1.24093e-32)
(5.27054 0.0056145 1.1082e-32)
(5.23793 0.0048921 -1.18623e-32)
(5.14284 0.00591629 0)
(5.05299 0.00503775 0)
(5.00181 0.00424399 -1.43418e-32)
(4.9423 0.00341812 -1.08683e-32)
(4.92039 0.00333435 0)
(4.85006 0.00348533 1.0387e-32)
(4.822 0.00326003 -1.96228e-32)
(4.77622 0.00293041 0)
(4.75801 0.0025328 0)
(4.71148 0.00287835 -1.37501e-32)
(4.68183 0.00314993 4.15499e-32)
(4.6441 0.00283713 1.33499e-32)
(4.62721 0.0024383 2.16574e-32)
(4.58724 0.00270181 4.50817e-32)
(4.56 0.00315012 -4.28954e-32)
(4.52353 0.0030742 0)
(4.50606 0.00265614 -4.74769e-32)
(4.4681 0.00290224 -3.29252e-37)
(4.43856 0.0035239 -9.93199e-32)
(4.40014 0.00365289 -3.5418e-32)
(4.38041 0.00327059 -5.62349e-32)
(4.33836 0.0034903 -2.81892e-37)
(4.30574 0.00437856 -1.08001e-31)
(4.25851 0.0047816 -4.49685e-37)
(4.23382 0.00429811 -6.85411e-32)
(4.1864 0.00480914 -6.59887e-32)
(4.13962 0.00583784 -4.31199e-39)
(4.08382 0.0066016 -5.17862e-32)
(4.05058 0.00652676 -9.15744e-32)
(3.97962 0.00685786 -2.48017e-37)
(3.93008 0.00883645 -1.40223e-31)
(3.83685 0.0102262 -1.03743e-31)
(3.78816 0.00954315 0)
(3.70983 0.0118868 0)
(3.59468 0.0137489 0)
(3.49067 0.0165036 -7.67149e-32)
(3.40852 0.0189696 1.74003e-31)
(3.2177 0.020066 0)
(3.12376 0.0288078 0)
(2.82155 0.0362182 3.81219e-31)
(2.64303 0.0403518 9.29817e-31)
(2.31766 0.0682604 -2.54689e-30)
(1.92858 0.28235 -9.12471e-31)
(2.19197 0.483573 -5.28812e-28)
(2.50555 0.579033 -3.36834e-27)
(2.4156 0.543762 1.58376e-30)
(2.66639 0.585527 -4.35952e-27)
(3.22446 0.737722 1.87453e-27)
(3.23648 0.764618 0)
(3.39161 0.816669 -2.43664e-30)
(3.52186 0.874256 -9.61087e-31)
(3.53204 1.0997 7.78082e-27)
(3.71369 1.17332 -9.85646e-28)
(3.97184 1.26664 -7.35783e-32)
(4.0301 1.28414 3.64823e-27)
(4.22535 1.36096 0)
(4.29234 1.35531 9.11092e-28)
(4.5606 1.44952 -2.38283e-36)
(4.67328 1.50108 8.60188e-28)
(4.83795 1.55548 0)
(4.88366 1.56308 2.81398e-28)
(7.10484 0.0673569 0)
(6.78155 0.0277687 0)
(6.68092 0.0213777 0)
(6.29793 0.0277321 1.83926e-33)
(6.00967 0.0196996 -4.64661e-33)
(5.76748 0.0109009 0)
(5.71625 0.00828278 -1.07601e-32)
(5.54465 0.0108646 -1.24749e-32)
(5.40915 0.00910154 1.2414e-32)
(5.28961 0.00581632 1.10862e-32)
(5.25683 0.00501523 0)
(5.16182 0.00618756 0)
(5.12914 0.00561334 0)
(5.02061 0.00463278 -1.43563e-32)
(4.96052 0.0035445 -1.08922e-32)
(4.93889 0.003402 -2.11673e-32)
(4.91255 0.00383374 -1.04027e-32)
(4.84048 0.00354148 0)
(4.79398 0.00305624 0)
(4.77601 0.00263439 1.98167e-32)
(4.74307 0.00309013 1.37578e-32)
(4.70009 0.00335357 -2.07902e-32)
(4.66149 0.00297402 1.33642e-32)
(4.64477 0.00256413 -4.33358e-32)
(4.61155 0.00288686 0)
(4.57825 0.00334242 0)
(4.54058 0.00323693 -3.10795e-32)
(4.52323 0.002811 4.75043e-32)
(4.48964 0.0031 0)
(4.45703 0.00374205 4.9696e-32)
(4.41687 0.00385957 3.54515e-32)
(4.39721 0.00347601 5.62661e-32)
(4.35848 0.00373357 9.72246e-37)
(4.32463 0.00466172 5.40366e-32)
(4.2749 0.0050731 0)
(4.25024 0.00458453 0)
(4.20565 0.00515022 0)
(4.15913 0.00623788 0)
(4.09983 0.00702005 -5.18351e-32)
(4.06659 0.0069846 9.159e-32)
(3.99822 0.00735559 0)
(3.95025 0.00949643 0)
(3.85243 0.0109564 -1.03827e-31)
(3.80365 0.010209 1.14966e-31)
(3.72786 0.0128098 0)
(3.61538 0.0148872 0)
(3.50559 0.017628 0)
(3.42332 0.0205468 0)
(3.23536 0.021866 6.37517e-32)
(3.14419 0.0314485 -9.09703e-32)
(2.83585 0.0397473 -3.81799e-31)
(2.65731 0.0443976 -9.25701e-31)
(2.337 0.0762036 -2.94926e-35)
(1.95153 0.29493 1.84056e-27)
(2.20509 0.497015 2.69674e-27)
(2.51601 0.593993 -9.85219e-29)
(2.4272 0.55722 -5.52341e-27)
(2.67745 0.589372 -7.56918e-27)
(3.23424 0.741147 0)
(3.24492 0.769345 0)
(3.40384 0.820213 6.25875e-28)
(3.53719 0.881329 -3.93958e-27)
(3.54636 1.10594 7.41449e-27)
(3.72694 1.17906 -5.10901e-31)
(3.99101 1.27453 1.40331e-31)
(4.04543 1.28889 -1.19876e-30)
(4.40575 1.41386 1.32061e-31)
(4.3053 1.36016 3.31793e-31)
(4.58062 1.4543 2.3548e-31)
(4.68764 1.50423 5.83687e-28)
(4.85212 1.55909 2.4613e-28)
(4.89942 1.56748 3.35826e-31)
(7.1913 0.0713748 0)
(6.99052 0.0313314 -2.22786e-32)
(6.90843 0.0251237 -8.43556e-33)
(6.58917 0.0323693 -5.7541e-37)
(6.31783 0.0234511 4.63914e-33)
(6.08115 0.0132132 1.23357e-32)
(6.03005 0.0102246 0)
(5.85449 0.0131441 0)
(5.70425 0.0110226 -1.24064e-32)
(5.58752 0.00709449 -1.10844e-32)
(5.55388 0.00616041 0)
(5.45356 0.00731887 0)
(5.36989 0.00672698 -6.60363e-33)
(5.30339 0.00586419 -1.43675e-32)
(5.23997 0.00433466 0)
(5.21768 0.00397993 -2.1181e-32)
(5.15225 0.00463447 -1.03871e-32)
(5.11296 0.00448238 0)
(5.06419 0.003708 1.17902e-32)
(5.04576 0.00319459 -1.98216e-32)
(4.99927 0.00377563 0)
(4.96498 0.00408771 0)
(4.92485 0.00358223 -2.67052e-32)
(4.90781 0.00312409 -6.52062e-37)
(4.86728 0.00353176 -3.00644e-32)
(4.8372 0.0040343 0)
(4.79862 0.00387765 0)
(4.78101 0.00341573 -4.75074e-32)
(4.74239 0.00378564 -3.76224e-32)
(4.71081 0.00449992 -4.96922e-32)
(4.67037 0.00460775 -7.08773e-32)
(4.65047 0.00420159 5.62754e-32)
(4.60781 0.00454201 4.47995e-32)
(4.57355 0.00559437 -5.4042e-32)
(4.52434 0.00604593 0)
(4.49943 0.00551609 6.85917e-32)
(4.45123 0.00623111 6.60055e-32)
(4.40329 0.00748033 8.04377e-32)
(4.34504 0.00836656 1.03673e-31)
(4.31154 0.00836188 -9.1601e-32)
(4.23999 0.00887556 -7.02524e-32)
(4.18887 0.0113627 7.01837e-32)
(4.09347 0.0130288 0)
(4.04447 0.0122066 0)
(3.96443 0.0153557 0)
(3.84913 0.0177633 2.00753e-31)
(3.74075 0.0209896 7.69477e-32)
(3.65827 0.0244029 1.73901e-31)
(3.46784 0.0260604 6.3931e-32)
(3.36917 0.0373369 -9.12388e-32)
(3.06649 0.0467912 3.05066e-36)
(2.88751 0.0521493 4.59764e-31)
(2.55981 0.0892934 0)
(2.17372 0.323691 6.36377e-27)
(2.41962 0.534646 0)
(2.72765 0.634896 -2.97038e-27)
(2.64252 0.596523 -8.60638e-27)
(2.83922 0.609075 -8.60942e-27)
(3.36811 0.763615 1.25616e-34)
(3.37841 0.793485 -2.42892e-31)
(3.53934 0.847397 0)
(3.67834 0.914698 -4.02339e-27)
(3.70428 1.14702 9.50608e-27)
(3.88501 1.2205 -1.29074e-27)
(4.15697 1.31986 1.89297e-28)
(4.22566 1.33771 -3.47128e-27)
(4.41868 1.41933 0)
(4.48342 1.41109 0)
(4.73641 1.49726 1.29862e-27)
(4.85028 1.55073 0)
(5.02446 1.6097 -4.17871e-31)
(5.07994 1.62117 -4.78132e-31)
(7.2426 0.0727805 0)
(7.14252 0.033297 4.44874e-32)
(7.07802 0.0276351 -1.68415e-32)
(6.83306 0.0363384 0)
(6.59351 0.0271989 0)
(6.37478 0.0157694 0)
(6.32336 0.0125098 0)
(6.14902 0.0159643 0)
(5.98261 0.0133045 -2.47643e-32)
(5.87227 0.00861028 -1.69156e-36)
(5.83682 0.00764261 -4.73515e-32)
(5.73163 0.00926013 -1.40094e-32)
(5.59494 0.00803986 0)
(5.57072 0.00691385 0)
(5.5038 0.00531639 0)
(5.48061 0.0051792 0)
(5.37435 0.00558544 0)
(5.36904 0.00522627 0)
(5.31808 0.00452143 0)
(5.29894 0.00408088 0)
(5.23614 0.00461263 0)
(5.21292 0.00483715 0)
(5.17162 0.00432282 0)
(5.15404 0.00391889 0)
(5.10439 0.00432935 0)
(5.07892 0.00479699 -4.27942e-32)
(5.0399 0.00464199 -3.09628e-32)
(5.02185 0.00422646 0)
(4.97692 0.00463895 0)
(4.94715 0.00535432 0)
(4.90712 0.00547848 0)
(4.88685 0.00513324 0)
(4.8393 0.00554563 0)
(4.80497 0.00665152 0)
(4.75722 0.00714885 0)
(4.73202 0.00668075 6.84438e-32)
(4.67942 0.00756864 -2.6983e-37)
(4.63009 0.00888265 8.0218e-32)
(4.57415 0.00987717 5.16875e-32)
(4.5404 0.0100204 -1.82842e-31)
(4.46523 0.0107151 -1.40312e-31)
(4.41055 0.0134564 6.9987e-32)
(4.31954 0.0153274 0)
(4.27019 0.0145786 0)
(4.1854 0.0183416 0)
(4.06725 0.0209703 0)
(3.96231 0.0247483 0)
(3.87983 0.028782 0)
(3.6869 0.0309075 0)
(3.58025 0.0437854 1.82276e-31)
(3.28697 0.0544938 7.61651e-31)
(3.10788 0.0608764 0)
(2.77318 0.103627 0)
(2.38846 0.353607 4.92442e-27)
(2.62712 0.573329 -4.00664e-32)
(2.93236 0.676304 2.0027e-30)
(2.85702 0.640342 -1.29922e-26)
(2.85103 0.614478 -9.83073e-30)
(3.50205 0.783586 0)
(3.51284 0.817207 0)
(3.66768 0.872083 -1.03137e-30)
(3.8059 0.943417 1.79641e-34)
(3.84514 1.18277 1.13597e-26)
(4.02452 1.25607 -8.24293e-29)
(4.29894 1.35787 1.24413e-27)
(4.38133 1.38145 5.29101e-27)
(4.57076 1.45874 5.27298e-31)
(4.64055 1.45337 1.81297e-27)
(4.86857 1.53261 9.75871e-28)
(4.98886 1.58826 0)
(5.16796 1.64976 5.67225e-28)
(5.23115 1.66456 1.47266e-28)
(7.24534 0.0731239 0)
(7.14948 0.0331762 0)
(7.08602 0.0279381 1.68118e-32)
(6.84519 0.0372755 1.81225e-33)
(6.61098 0.0281243 0)
(6.38983 0.0157666 0)
(6.33994 0.0123531 -1.06948e-32)
(6.16574 0.0165984 -1.24128e-32)
(6.01305 0.0139566 0)
(5.88944 0.00860289 0)
(5.85472 0.00761235 2.36019e-32)
(5.74917 0.00976041 1.39782e-32)
(5.66388 0.0087363 0)
(5.58895 0.00699086 0)
(5.52101 0.00536301 1.08154e-32)
(5.49867 0.00537787 -2.10533e-32)
(5.4327 0.00601244 2.06998e-32)
(5.38721 0.00525678 -3.90624e-32)
(5.33544 0.00458201 0)
(5.31664 0.0041939 0)
(5.26868 0.00485154 0)
(5.23112 0.00494465 0)
(5.18878 0.00440762 2.65647e-32)
(5.17147 0.00403241 6.48362e-37)
(5.12972 0.00452416 5.98314e-32)
(5.09737 0.00493065 -4.27054e-32)
(5.05685 0.00475578 0)
(5.03898 0.00436062 -4.72869e-32)
(4.99932 0.00484043 -3.74492e-32)
(4.96605 0.00552751 -4.94625e-32)
(4.92389 0.00563349 -3.52652e-32)
(4.90373 0.00531149 0)
(4.86024 0.00579278 0)
(4.82456 0.00689648 0)
(4.7738 0.00737846 0)
(4.74866 0.00693473 0)
(4.69951 0.00791053 0)
(4.65059 0.00925263 0)
(4.59043 0.0102149 0)
(4.55675 0.0104409 0)
(4.48458 0.0112317 0)
(4.43191 0.0140908 -1.39828e-31)
(4.33542 0.0159398 -1.85572e-37)
(4.28623 0.0152033 2.35104e-36)
(4.20448 0.0193048 6.03219e-31)
(4.08953 0.0221174 -3.99091e-31)
(3.97787 0.0257366 0)
(3.89528 0.0302943 0)
(3.70599 0.0328391 0)
(3.60295 0.046553 -1.82802e-31)
(3.30234 0.0579125 -7.61297e-31)
(3.12336 0.0651348 0)
(2.79552 0.112136 0)
(2.41532 0.364402 0)
(2.64283 0.583713 0)
(2.9449 0.688099 -3.41775e-27)
(2.87047 0.654088 -1.1006e-26)
(3.02746 0.645142 9.94334e-27)
(3.51534 0.787933 0)
(3.52402 0.823287 3.16461e-27)
(3.68317 0.876943 -4.55904e-28)
(3.82323 0.951328 0)
(3.8608 1.18795 -7.23855e-31)
(4.0391 1.26058 -1.65377e-27)
(4.31967 1.36351 3.11824e-29)
(4.39634 1.38534 4.35991e-27)
(4.58371 1.46476 1.78545e-27)
(4.65383 1.45714 1.29304e-27)
(4.89152 1.53847 1.42729e-27)
(5.00114 1.59078 0)
(5.17737 1.65163 0)
(5.24298 1.66795 7.52928e-32)
(7.27026 0.0741806 0)
(7.24466 0.0355527 4.43875e-32)
(7.19568 0.0309986 -1.67875e-32)
(7.02618 0.041928 0)
(6.83481 0.0328285 0)
(6.64499 0.0194111 0)
(6.59687 0.0157736 0)
(6.43197 0.0205106 0)
(6.26712 0.0171808 0)
(6.15508 0.0110065 0)
(6.11857 0.00992954 0)
(6.00935 0.0124506 0)
(5.87146 0.0105479 0)
(5.83803 0.00878962 -1.42886e-32)
(5.76717 0.00691068 -1.07754e-32)
(5.74295 0.00703491 4.20441e-32)
(5.63463 0.00735088 2.06295e-32)
(5.6239 0.00657234 3.90101e-32)
(5.56976 0.00584043 2.34053e-32)
(5.55014 0.00548206 0)
(5.4839 0.0060766 2.73006e-32)
(5.45901 0.00613264 -8.26026e-32)
(5.41561 0.00553343 -2.65113e-32)
(5.39773 0.00519427 -4.30799e-32)
(5.34535 0.00569411 -9.17577e-37)
(5.31872 0.00609651 5.55825e-37)
(5.27813 0.00590178 3.08535e-32)
(5.2598 0.00553835 4.72498e-32)
(5.21285 0.00607952 7.4798e-32)
(5.18205 0.00680419 -4.94261e-32)
(5.14083 0.00692194 3.52153e-32)
(5.12032 0.00665057 -5.60003e-32)
(5.07121 0.00723313 0)
(5.03579 0.00844221 -5.37662e-32)
(4.98726 0.00899177 4.80327e-32)
(4.96183 0.00859232 -1.36569e-31)
(4.90769 0.00980606 0)
(4.85752 0.0112702 1.60004e-31)
(4.80083 0.0124084 2.06262e-31)
(4.76684 0.0127665 -3.64594e-31)
(4.69086 0.0138273 -1.39992e-31)
(4.63466 0.0170411 0)
(4.54387 0.0192086 0)
(4.49419 0.0185515 0)
(4.40763 0.0234331 0)
(4.28977 0.0265503 0)
(4.18341 0.0310787 1.53521e-31)
(4.10092 0.0362886 -6.90671e-31)
(3.90903 0.039429 -6.58583e-37)
(3.79821 0.0552062 -3.83029e-38)
(3.50941 0.0681496 7.61344e-31)
(3.33061 0.076615 0)
(2.9962 0.130072 0)
(2.62108 0.386677 -1.78813e-30)
(2.84478 0.611031 -8.46351e-36)
(3.14455 0.718163 -4.44394e-27)
(3.08386 0.685872 -6.24039e-30)
(3.21742 0.67903 -9.09294e-27)
(3.6551 0.805017 -2.02529e-30)
(3.66262 0.841528 3.63063e-27)
(3.80859 0.896882 -5.32029e-28)
(3.94193 0.974848 -5.25081e-27)
(3.98998 1.21436 1.14289e-26)
(4.16644 1.28656 -1.73082e-27)
(4.4441 1.39125 -3.8056e-29)
(4.53145 1.41823 3.15526e-31)
(4.7227 1.49892 1.84676e-27)
(4.79192 1.48949 0)
(5.00959 1.56618 1.52298e-27)
(5.12634 1.62088 8.74323e-32)
(5.30229 1.68252 6.80317e-32)
(5.36951 1.70014 0)
(7.27185 0.0741561 -2.958e-32)
(7.24957 0.0352902 2.2163e-32)
(7.20157 0.0311558 -1.67574e-32)
(7.0363 0.0424585 0)
(6.85053 0.0334537 9.16887e-33)
(6.65877 0.01915 2.44715e-32)
(6.61245 0.0154525 -1.06435e-32)
(6.44793 0.0210026 2.47309e-32)
(6.29864 0.0177811 1.11837e-36)
(6.17193 0.0108181 2.19926e-32)
(6.13667 0.00974354 2.3518e-32)
(6.0268 0.012869 2.78761e-32)
(5.93784 0.0112977 -6.53486e-33)
(5.85685 0.00881696 2.85529e-32)
(5.78433 0.00684745 2.15773e-32)
(5.76166 0.0071381 0)
(5.69254 0.00781763 -2.06665e-32)
(5.64276 0.00655198 3.89541e-32)
(5.58757 0.0058243 0)
(5.56851 0.00552862 -3.93452e-32)
(5.51823 0.00631173 -2.7287e-32)
(5.47798 0.00619423 -4.12431e-32)
(5.43339 0.0055559 -2.6489e-32)
(5.41581 0.00525244 0)
(5.37215 0.00586916 0)
(5.33803 0.00619164 4.26115e-32)
(5.29573 0.00595993 3.08227e-32)
(5.27762 0.00561954 -4.72027e-32)
(5.23671 0.00625676 -7.80906e-37)
(5.20197 0.00694108 -4.93777e-32)
(5.15829 0.00702161 0)
(5.13793 0.00677491 1.1191e-31)
(5.09348 0.00745018 8.90702e-32)
(5.05657 0.00864997 1.07435e-31)
(5.0046 0.00915647 1.91962e-31)
(4.97923 0.00879365 -1.36461e-31)
(4.92876 0.0101049 0)
(4.8793 0.0115974 0)
(4.81762 0.0126641 0)
(4.78401 0.0131184 0)
(4.71129 0.0142915 -1.3996e-31)
(4.65734 0.0176273 1.39799e-31)
(4.56037 0.0197113 0)
(4.51113 0.019087 2.2858e-31)
(4.42789 0.0243307 3.73124e-36)
(4.31369 0.0276564 3.97698e-31)
(4.19969 0.0319247 -1.53682e-31)
(4.11716 0.0376643 3.44692e-31)
(3.92956 0.0413138 0)
(3.82287 0.0579699 1.84458e-31)
(3.52583 0.0714424 7.61527e-31)
(3.34728 0.0808677 8.79697e-31)
(3.02093 0.138717 -2.50298e-30)
(2.65137 0.399297 4.6301e-27)
(2.86203 0.622673 0)
(3.15853 0.73122 4.95792e-27)
(3.10038 0.699868 0)
(3.23228 0.686922 -1.23989e-26)
(3.66886 0.812851 0)
(3.67508 0.849406 -3.96242e-27)
(3.82612 0.903177 0)
(3.9609 0.983751 -1.12468e-26)
(4.00683 1.22051 2.42059e-26)
(4.18217 1.29177 9.50746e-31)
(4.46626 1.3971 -1.3294e-31)
(4.54741 1.42219 1.55116e-31)
(4.73495 1.50467 2.63097e-31)
(4.80566 1.49381 3.27179e-31)
(5.03349 1.57255 4.48014e-31)
(5.13963 1.62425 -1.73209e-31)
(5.31094 1.68463 0)
(5.3791 1.70298 -7.47448e-32)
(7.28293 0.0742261 2.94787e-32)
(7.30534 0.0367634 2.21269e-32)
(7.26834 0.0332975 0)
(7.16394 0.0461159 0)
(7.02544 0.0376055 0)