/*--------------------------------*- C++ -*----------------------------------*\
| =========                 |                                                 |
| \\      /  F ield         | OpenFOAM: The Open Source CFD Toolbox           |
|  \\    /   O peration     | Version:  v2012                                 |
|   \\  /    A nd           | Website:  www.openfoam.com                      |
|    \\/     M anipulation  |                                                 |
\*---------------------------------------------------------------------------*/
FoamFile
{
    version     2.0;
    format      ascii;
    class       volVectorField;
    location    "1e-06";
    object      UMean;
}
// * * * * * * * * * * * * * * * * * * * * * * * * * * * * * * * * * * * * * //

dimensions      [0 1 -1 0 0 0 0];


internalField   nonuniform List<vector> 
10262
(
(5.79554 0.0129789 0)
(4.95421 0.00448871 0)
(4.74514 0.00297853 0)
(4.29707 0.00229482 -2.57227e-31)
(4.02361 0.00170869 -2.98446e-31)
(3.76303 0.00114923 7.3579e-43)
(3.682 0.000694712 0)
(3.60152 0.000524847 5.06589e-31)
(3.53031 0.000709069 5.8473e-31)
(3.39223 0.000708622 0)
(3.31922 0.000367412 1.31789e-42)
(3.30465 0.000131668 1.0084e-30)
(3.27164 0.000412503 1.1095e-30)
(3.19782 0.000569423 1.16361e-30)
(3.10037 0.000275559 1.12236e-30)
(3.13079 -6.61078e-05 0)
(3.12635 0.000257271 7.63574e-43)
(3.06667 0.000517231 0)
(2.98021 0.000270118 0)
(3.00066 -0.000104562 0)
(3.02051 0.000165818 0)
(2.9636 0.000503907 0)
(2.88284 0.000299358 0)
(2.89286 -9.53032e-05 0)
(2.91617 9.75617e-05 0)
(2.87184 0.000485404 0)
(2.79198 0.000352099 0)
(2.79151 -6.74956e-05 0)
(2.81479 5.84618e-05 0)
(2.77816 0.000496549 0)
(2.69623 0.000434691 0)
(2.68511 -1.76478e-05 2.02431e-42)
(2.70359 5.49905e-05 1.42033e-30)
(2.67242 0.000545882 1.56604e-30)
(2.58306 0.000550802 1.43018e-30)
(2.56045 8.43003e-05 2.08734e-30)
(2.57359 0.000113018 9.47079e-31)
(2.53659 0.000643734 0)
(2.43994 0.00072779 8.63822e-31)
(2.40387 0.000270835 3.36094e-31)
(2.39664 0.000240368 1.83457e-31)
(2.36191 0.000857379 6.10719e-37)
(2.23557 0.000995612 -1.34231e-33)
(2.18136 0.000539193 -8.3163e-31)
(2.16433 0.000595836 -1.22936e-30)
(2.07725 0.00121053 -1.05396e-30)
(1.9389 0.00152831 -5.92192e-36)
(1.85026 0.00111241 3.29838e-30)
(1.74195 0.00116086 0)
(1.66819 0.00222635 4.68565e-30)
(1.37279 0.00263449 6.02203e-30)
(1.18666 0.0026457 0)
(0.926481 0.00422735 0)
(0.639127 0.0455412 1.15777e-25)
(0.889705 0.141205 1.35899e-24)
(1.22158 0.228589 2.25956e-30)
(1.34013 0.284958 1.63312e-29)
(1.70222 0.406664 0)
(2.10656 0.512654 0)
(2.09756 0.511042 0)
(2.18045 0.534033 1.06258e-29)
(2.18355 0.536907 -2.30334e-27)
(2.10918 0.638179 7.03305e-30)
(2.30639 0.708489 1.82014e-25)
(2.56553 0.789951 -1.01969e-29)
(2.6002 0.806265 -1.78906e-25)
(2.73839 0.876139 -3.7537e-26)
(2.83097 0.909711 8.42532e-30)
(3.11944 1.01534 -1.86882e-27)
(3.13725 1.02359 -7.16307e-30)
(3.16069 1.02934 2.57322e-28)
(3.21168 1.04015 3.44931e-30)
(6.06266 0.0185642 0)
(5.28051 0.00481752 -1.64182e-31)
(5.12963 0.00281067 -1.22818e-31)
(4.61873 0.00379962 0)
(4.32431 0.00275836 0)
(4.11851 0.00169274 -5.9813e-31)
(4.07613 0.000895428 -5.12831e-31)
(3.92593 0.000888636 0)
(3.8067 0.00112657 5.83107e-31)
(3.72757 0.00109084 5.79819e-31)
(3.70441 0.000549354 0)
(3.62431 0.000332749 -1.00559e-30)
(3.53249 0.000666686 -1.10662e-30)
(3.51692 0.00085692 0)
(3.47528 0.000448358 0)
(3.45106 -4.26775e-05 0)
(3.37937 0.000387463 -1.04088e-30)
(3.37365 0.000781758 -1.62947e-36)
(3.3424 0.000447231 2.1745e-30)
(3.32251 -0.000144012 4.85688e-36)
(3.27829 0.000241319 -9.9763e-31)
(3.26015 0.000801001 0)
(3.2347 0.000504944 0)
(3.2169 -0.000120921 -1.87943e-30)
(3.1782 0.000146319 -1.88411e-30)
(3.15939 0.000778229 -2.03701e-30)
(3.13453 0.00060149 -1.96314e-30)
(3.11713 -6.03471e-05 0)
(3.07978 0.000100038 0)
(3.05732 0.000802621 0)
(3.03025 0.000748717 0)
(3.01156 4.49094e-05 0)
(2.97005 0.000110594 1.41705e-30)
(2.94391 0.000891398 3.12495e-30)
(2.90847 0.000967518 1.42652e-30)
(2.88589 0.000225663 0)
(2.83999 0.000223928 0)
(2.79988 0.00106856 -1.11166e-30)
(2.75728 0.00129037 -8.61659e-31)
(2.7272 0.00056938 0)
(2.65962 0.000458721 1.83147e-31)
(2.61771 0.00145053 2.85983e-31)
(2.54075 0.00183128 -1.25364e-33)
(2.49666 0.00107664 8.29965e-31)
(2.42332 0.00111357 0)
(2.32072 0.00213785 0)
(2.23536 0.00286488 0)
(2.15935 0.00234759 0)
(1.98407 0.00232071 0)
(1.90348 0.00424315 4.67481e-30)
(1.63535 0.00569643 6.00867e-30)
(1.46139 0.00617363 1.90312e-29)
(1.15985 0.0100557 3.13935e-29)
(0.826253 0.153963 -1.84628e-25)
(1.13089 0.311762 1.68334e-24)
(1.47327 0.392394 1.92556e-30)
(1.4636 0.372174 1.56704e-29)
(1.82459 0.441589 6.57554e-26)
(2.39219 0.584647 1.30266e-29)
(2.38781 0.583662 1.10732e-29)
(2.41961 0.594189 0)
(2.44426 0.604865 -6.30556e-27)
(2.41551 0.794182 0)
(2.58878 0.862064 0)
(2.79298 0.932265 3.08137e-25)
(2.81408 0.937023 -2.82561e-25)
(3.02254 0.992614 -5.68255e-26)
(3.09977 1.00897 3.95676e-26)
(3.37827 1.10057 -5.06349e-27)
(3.42845 1.11839 2.81191e-27)
(3.54582 1.15334 -8.0102e-29)
(3.57009 1.15212 0)
(6.4591 0.0333151 0)
(5.75211 0.0115449 0)
(5.61002 0.00792416 0)
(5.11432 0.00846352 0)
(4.82308 0.00572073 5.948e-31)
(4.60643 0.00343601 5.9773e-31)
(4.56094 0.00245065 5.12497e-31)
(4.40685 0.00264688 1.00971e-30)
(4.27848 0.00241655 -5.82751e-31)
(4.19314 0.00190549 -1.15881e-30)
(4.16621 0.00140839 0)
(4.08449 0.00158004 0)
(3.97277 0.00140103 1.1059e-30)
(3.96914 0.00125598 2.42798e-36)
(3.92131 0.00101887 -2.23652e-30)
(3.89993 0.000822246 -1.01687e-30)
(3.81564 0.000931927 0)
(3.81787 0.00106773 0)
(3.7813 0.000913407 0)
(3.76352 0.000488023 0)
(3.71715 0.000736793 0)
(3.69848 0.00115307 -2.15592e-30)
(3.66835 0.000935386 -2.09089e-30)
(3.652 0.000467304 0)
(3.61316 0.000654244 0)
(3.59288 0.00115268 -2.03565e-30)
(3.56343 0.00104735 -1.96146e-30)
(3.54684 0.000550735 0)
(3.51013 0.000676527 0)
(3.48585 0.0012492 0)
(3.45443 0.00126623 0)
(3.436 0.000752406 0)
(3.39524 0.000811886 1.41623e-30)
(3.36715 0.00148341 1.56151e-30)
(3.3272 0.0016411 0)
(3.30439 0.00107506 1.03997e-30)
(3.25905 0.00115659 9.44514e-31)
(3.21622 0.00189121 0)
(3.16919 0.00223682 0)
(3.13843 0.00173335 -3.34841e-31)
(3.07022 0.00171832 -1.83213e-31)
(3.02565 0.00274908 2.86003e-31)
(2.94233 0.00330717 1.2894e-33)
(2.89724 0.00269719 8.29241e-31)
(2.82413 0.00314179 1.22514e-30)
(2.71387 0.00415186 -2.09981e-30)
(2.62455 0.00533573 -3.86899e-30)
(2.54686 0.00533215 -6.5761e-30)
(2.36342 0.00551708 -1.60129e-29)
(2.28128 0.00849594 -9.33953e-30)
(1.99492 0.0108228 0)
(1.81935 0.0120926 0)
(1.51904 0.0199856 0)
(1.15477 0.156615 -3.25843e-29)
(1.45798 0.317315 1.06631e-24)
(1.79554 0.405469 -5.16866e-25)
(1.7253 0.391063 0)
(1.82803 0.434498 -1.47226e-28)
(2.7172 0.651896 0)
(2.71915 0.657954 1.10104e-29)
(2.78383 0.681032 1.02339e-29)
(2.85017 0.705367 9.23441e-27)
(2.81829 0.884418 -2.99097e-30)
(2.98981 0.952055 2.69541e-25)
(3.20374 1.02413 5.60937e-25)
(3.22745 1.03158 1.24452e-29)
(3.42633 1.10923 2.9669e-29)
(3.11091 1.00353 3.05221e-26)
(3.79567 1.22784 -2.5944e-27)
(3.87099 1.2583 4.71267e-27)
(3.9987 1.29779 -1.69535e-28)
(4.02691 1.29886 0)
(6.4726 0.0384351 0)
(5.76771 0.012278 0)
(5.62581 0.00791763 0)
(5.13024 0.0101192 0)
(4.84041 0.00680067 5.94937e-31)
(4.62065 0.00378864 5.97822e-31)
(4.57504 0.00260847 0)
(4.42092 0.00322338 0)
(4.30109 0.00288637 0)
(4.2064 0.00208702 0)
(4.1793 0.00156827 0)
(4.09758 0.0019172 1.00511e-30)
(4.05929 0.00177061 9.56418e-37)
(3.98188 0.00142355 -2.31923e-30)
(3.93359 0.00115602 -1.11836e-30)
(3.91243 0.000998848 0)
(3.87831 0.00115128 0)
(3.83028 0.00118081 2.23913e-30)
(3.79316 0.00103792 2.17271e-30)
(3.77553 0.000628054 0)
(3.74115 0.000889627 1.9941e-30)
(3.71069 0.00127007 2.15608e-30)
(3.67986 0.00106321 0)
(3.66365 0.000612047 -1.87785e-30)
(3.63051 0.000798086 -1.88306e-30)
(3.60509 0.00127628 -2.03578e-30)
(3.57466 0.00119281 -1.96133e-30)
(3.55816 0.000714077 0)
(3.52511 0.000837802 0)
(3.49822 0.00140135 1.85334e-30)
(3.46538 0.00144608 2.44108e-36)
(3.44699 0.000957698 -2.91607e-30)
(3.40902 0.00101572 -2.83271e-30)
(3.37986 0.00169355 -1.56162e-30)
(3.33785 0.00189526 0)
(3.31504 0.00134821 0)
(3.27206 0.00144978 0)
(3.22943 0.00220026 -1.11115e-30)
(3.17949 0.00259907 1.4819e-36)
(3.14869 0.00216446 3.34865e-31)
(3.0826 0.00215704 0)
(3.0394 0.00326099 0)
(2.95212 0.00393687 0)
(2.90699 0.0033278 0)
(2.836 0.00393421 0)
(2.72784 0.00503714 0)
(2.63373 0.00635 0)
(2.55593 0.00674114 0)
(2.37453 0.00701367 0)
(2.29503 0.0106236 9.33346e-30)
(2.00307 0.0138276 1.19958e-29)
(1.82739 0.0156191 0)
(1.53071 0.026811 0)
(1.16681 0.183791 4.29514e-30)
(1.46127 0.353681 1.21465e-24)
(1.79728 0.440835 2.96954e-29)
(1.72789 0.413999 0)
(2.08353 0.485419 1.53326e-28)
(2.724 0.65183 0)
(2.72408 0.661333 0)
(2.79391 0.684282 0)
(2.86223 0.712169 1.17325e-26)
(2.8262 0.902205 -2.90807e-25)
(2.99631 0.970968 3.06166e-25)
(3.2172 1.04745 6.49628e-25)
(3.23619 1.05146 2.96222e-25)
(3.43265 1.12155 -6.53786e-26)
(3.51549 1.12807 3.72766e-26)
(3.82407 1.23271 0)
(3.88766 1.26285 1.82119e-27)
(4.01072 1.30091 -7.29012e-28)
(4.04015 1.30218 1.37703e-29)
(6.74926 0.050018 -9.96796e-32)
(6.15802 0.0174554 -1.64001e-31)
(6.02851 0.0120262 2.45898e-31)
(5.55678 0.0143662 2.56756e-31)
(5.26277 0.00966609 5.94818e-31)
(5.03559 0.00546023 1.19529e-30)
(4.98815 0.00399037 5.12573e-31)
(4.82746 0.00482808 0)
(4.69619 0.00417894 0)
(4.59907 0.00293609 1.15848e-30)
(4.57026 0.0023563 4.60878e-36)
(4.48424 0.00271735 -1.00477e-30)
(4.40998 0.00252381 1.10509e-30)
(4.36036 0.00217324 2.31816e-30)
(4.30839 0.00169486 -1.1178e-30)
(4.28741 0.0014683 -7.30328e-36)
(4.22856 0.00168703 4.5471e-36)
(4.19996 0.00173759 -2.23801e-30)
(4.15996 0.00148657 0)
(4.14252 0.00106549 0)
(4.10149 0.00134736 0)
(4.07389 0.0017184 -2.15501e-30)
(4.04078 0.00148757 -4.63833e-36)
(4.02467 0.00104371 7.08283e-36)
(3.98812 0.00123968 -1.88215e-30)
(3.96303 0.00171548 0)
(3.93058 0.00164341 0)
(3.91406 0.00117837 0)
(3.8787 0.0013198 0)
(3.85117 0.00189839 1.85238e-30)
(3.81653 0.00197679 3.49589e-30)
(3.79799 0.00151348 4.85423e-36)
(3.75811 0.00159663 -1.41564e-30)
(3.72763 0.00232532 -1.56079e-30)
(3.68391 0.0025919 -4.2729e-30)
(3.66081 0.00205788 -6.12398e-36)
(3.61589 0.00223986 6.04627e-36)
(3.57106 0.00305773 -4.46077e-37)
(3.51948 0.00357128 3.44171e-30)
(3.48823 0.00321037 6.69239e-31)
(3.41969 0.00326411 -3.6684e-31)
(3.37353 0.00458533 -1.14555e-30)
(3.28398 0.00545751 -3.00601e-33)
(3.23821 0.00482586 0)
(3.1645 0.00581515 -2.44656e-30)
(3.05103 0.00709663 -2.09593e-30)
(2.95479 0.00883514 0)
(2.87596 0.00966449 0)
(2.68862 0.0100972 0)
(2.60389 0.0149637 0)
(2.30455 0.0191417 -1.19814e-29)
(2.12758 0.0215297 -3.79426e-29)
(1.82598 0.0371123 -2.4163e-34)
(1.44527 0.213418 -2.16939e-25)
(1.73021 0.396258 6.47058e-25)
(2.06147 0.485882 6.31351e-25)
(1.96481 0.453041 -3.73049e-25)
(2.29 0.521855 1.70298e-25)
(2.934 0.694589 0)
(2.9382 0.707945 0)
(3.04217 0.742756 -1.01218e-29)
(3.1455 0.78294 -1.59015e-26)
(3.12295 0.985195 -3.05064e-25)
(3.2931 1.05506 -3.20307e-25)
(3.525 1.13587 -1.29029e-28)
(3.55526 1.14342 3.08407e-25)
(3.74598 1.21461 -6.72381e-26)
(3.82745 1.22435 -8.59226e-29)
(4.12123 1.3243 -1.87268e-27)
(4.20985 1.36404 1.3886e-29)
(4.35051 1.40836 1.65365e-28)
(4.3852 1.41123 6.86871e-30)
(6.95222 0.0566518 0)
(6.4902 0.0219301 0)
(6.37541 0.015947 -2.45952e-31)
(5.93769 0.0189383 -2.56734e-31)
(5.63984 0.012941 5.94204e-31)
(5.40657 0.00746582 5.96937e-31)
(5.35747 0.00571477 0)
(5.1903 0.00680331 0)
(5.04634 0.00573242 0)
(4.94836 0.00395818 0)
(4.91802 0.00335706 1.00538e-30)
(4.82729 0.00398019 1.05663e-36)
(4.71547 0.00339173 -1.10397e-30)
(4.69468 0.00283141 0)
(4.63914 0.00236106 -2.23272e-30)
(4.61795 0.00226451 -7.46229e-36)
(4.53205 0.00231357 4.15389e-30)
(4.52475 0.00221942 5.48392e-36)
(4.4821 0.00204035 -2.16854e-30)
(4.46453 0.00165239 1.97321e-30)
(4.41498 0.00190138 1.99088e-30)
(4.39171 0.00222266 -2.1523e-30)
(4.35661 0.00200237 -2.08665e-30)
(4.34039 0.00158823 0)
(4.2993 0.00177545 0)
(4.27531 0.00223195 -2.03226e-30)
(4.24126 0.00218453 -1.95734e-30)
(4.22459 0.00174828 0)
(4.18607 0.00190349 -1.69909e-30)
(4.15839 0.00248824 -3.34928e-36)
(4.12247 0.00260624 1.74548e-30)
(4.10371 0.00218422 2.90999e-30)
(4.0613 0.00229767 2.828e-30)
(4.02975 0.003074 -3.11789e-30)
(3.98512 0.00340632 -2.84459e-30)
(3.9617 0.00290717 -2.07563e-30)
(3.9143 0.00319275 -6.30633e-36)
(3.86759 0.00406787 2.21846e-30)
(3.81524 0.00470017 0)
(3.78357 0.00445239 6.68332e-31)
(3.71245 0.004591 3.66588e-31)
(3.66318 0.00613705 0)
(3.57309 0.00719925 0)
(3.52677 0.0065956 0)
(3.44971 0.00804074 2.4427e-30)
(3.33217 0.00947909 2.09252e-30)
(3.23466 0.0116919 0)
(3.15515 0.0130356 0)
(2.96357 0.01369 7.98325e-30)
(2.87223 0.0199184 9.30653e-30)
(2.57096 0.0251316 0)
(2.39295 0.0281927 0)
(2.08492 0.0486071 0)
(1.69389 0.248248 2.92907e-29)
(1.96734 0.442393 2.90426e-29)
(2.29428 0.534612 6.95597e-25)
(2.185 0.495942 -4.25762e-25)
(2.29397 0.524004 8.53769e-26)
(3.09277 0.721592 3.90793e-26)
(3.09887 0.739682 2.172e-29)
(3.2274 0.7836 2.06344e-33)
(3.35731 0.834493 -1.98554e-26)
(3.35138 1.05101 -3.25656e-25)
(3.52201 1.12221 -3.42173e-25)
(3.76654 1.2088 -3.60201e-25)
(3.8124 1.22098 0)
(4.00082 1.2934 0)
(4.07776 1.29714 -4.60684e-26)
(4.3537 1.39348 -6.83053e-27)
(4.46293 1.44114 0)
(4.61866 1.49134 7.00814e-28)
(4.6582 1.49608 0)
(6.95873 0.0589539 -9.95287e-32)
(6.50089 0.0221713 -4.91219e-31)
(6.38679 0.0159359 2.46105e-31)
(5.95118 0.0203201 5.13711e-31)
(5.65598 0.0139641 0)
(5.41958 0.00766469 -1.19307e-30)
(5.37044 0.00568064 -2.04761e-30)
(5.20358 0.00736976 -1.00866e-30)
(5.06954 0.0062282 1.16332e-30)
(4.96108 0.00407271 3.86234e-36)
(4.93058 0.00342965 -1.0049e-30)
(4.83997 0.0043111 0)
(4.79062 0.00385322 0)
(4.70714 0.0030003 0)
(4.65113 0.00245632 -2.23136e-30)
(4.6302 0.00239769 -2.02936e-30)
(4.59044 0.00258184 0)
(4.53699 0.00233479 0)
(4.49377 0.00213382 -2.16712e-30)
(4.4764 0.0017585 -1.97197e-30)
(4.43976 0.00206154 -1.98981e-30)
(4.40386 0.00234047 -2.15104e-30)
(4.36801 0.002107 0)
(4.35194 0.00170434 0)
(4.31716 0.0019181 0)
(4.28754 0.00235657 0)
(4.25242 0.00231006 0)
(4.23586 0.00188497 3.43058e-30)
(4.20142 0.00206108 6.79274e-30)
(4.17091 0.00264189 4.9817e-36)
(4.13341 0.00276706 -4.83476e-36)
(4.11472 0.00236232 2.90796e-30)
(4.07542 0.00249734 2.82662e-30)
(4.04274 0.00328664 3.11623e-30)
(3.99583 0.00364049 0)
(3.97244 0.00315003 2.07445e-30)
(3.92768 0.00347968 3.77025e-30)
(3.88123 0.00438369 -2.22662e-36)
(3.82569 0.0050357 4.64544e-36)
(3.79401 0.00484439 6.68004e-31)
(3.72531 0.00502498 0)
(3.67756 0.00666761 0)
(3.58322 0.00780988 0)
(3.53683 0.00717015 0)
(3.46216 0.0088453 2.43987e-30)
(3.3471 0.010426 2.08996e-30)
(3.24433 0.0126337 0)
(3.1647 0.0144363 0)
(2.97569 0.0152722 0)
(2.88713 0.0222021 0)
(2.58009 0.0282697 0)
(2.40206 0.031858 0)
(2.09865 0.05614 0)
(1.71058 0.260415 0)
(1.97531 0.456574 0)
(2.29983 0.550165 -3.21428e-29)
(2.19067 0.510587 3.00464e-29)
(2.47844 0.555142 0)
(3.09945 0.723402 -1.12696e-28)
(3.1039 0.743971 2.16577e-29)
(3.23642 0.786777 1.36888e-26)
(3.36841 0.841276 7.76821e-30)
(3.36011 1.0566 -3.29205e-25)
(3.53017 1.128 3.45726e-25)
(3.78165 1.21699 0)
(3.8227 1.22738 1.20505e-29)
(4.00722 1.29714 5.24885e-33)
(4.0856 1.29928 4.58439e-26)
(4.37194 1.3982 -3.11506e-27)
(4.47359 1.44349 -1.36314e-29)
(4.6287 1.49383 6.72917e-30)
(4.66953 1.4995 1.49969e-33)
(7.09539 0.0659663 0)
(6.7683 0.0277335 0)
(6.67098 0.0213315 0)
(6.28366 0.0262815 0)
(5.99144 0.0185252 0)
(5.75242 0.0106778 -1.19281e-30)
(5.70204 0.00833687 -1.02402e-30)
(5.52985 0.0101661 1.00894e-30)
(5.38243 0.00847422 1.16321e-30)
(5.27454 0.00567041 1.15612e-30)
(5.24274 0.00495152 1.00492e-30)
(5.14735 0.00589448 0)
(5.05565 0.00505373 0)
(5.00579 0.00425197 -2.3133e-30)
(4.94633 0.00345506 -2.23094e-30)
(4.92496 0.00336084 0)
(4.85318 0.00347196 -2.07556e-30)
(4.82579 0.00327205 -2.23325e-30)
(4.78011 0.0029546 0)
(4.76245 0.00255967 0)
(4.71537 0.0028701 1.98963e-30)
(4.68549 0.00315334 4.3015e-30)
(4.64787 0.00286356 2.08455e-30)
(4.63158 0.00246097 -1.8724e-30)
(4.59125 0.00269696 -5.63623e-30)
(4.56355 0.00315276 -4.0616e-30)
(4.52718 0.00309853 0)
(4.51038 0.00267841 3.42961e-30)
(4.47214 0.00289986 8.71734e-36)
(4.44194 0.00352719 -7.39537e-30)
(4.40365 0.00367789 -3.48764e-30)
(4.38471 0.00329277 2.90736e-30)
(4.3424 0.00349075 6.4052e-36)
(4.30897 0.00438462 -6.23125e-30)
(4.26182 0.00480765 1.45953e-36)
(4.23814 0.00432553 2.07401e-30)
(4.19052 0.00481178 1.88485e-30)
(4.1425 0.00584041 -4.7248e-36)
(4.08699 0.00664598 -1.71738e-30)
(4.05497 0.00654806 6.67981e-31)
(3.98366 0.00686743 -7.39134e-36)
(3.93286 0.00885529 -1.14769e-30)
(3.83942 0.0102503 -3.79411e-33)
(3.79261 0.00960676 0)
(3.71434 0.0118894 0)
(3.59615 0.0137318 0)
(3.49325 0.0166377 3.84908e-30)
(3.4132 0.0189618 6.54714e-30)
(3.22127 0.0201093 0)
(3.12573 0.0288762 0)
(2.82085 0.0361235 -1.19328e-29)
(2.6421 0.040473 -3.7772e-29)
(2.33188 0.0704756 -6.15622e-29)
(1.94015 0.282019 -2.89749e-29)
(2.19569 0.483901 -7.42948e-25)
(2.51679 0.580229 -7.40377e-25)
(2.40352 0.53777 2.97718e-29)
(2.65127 0.583406 1.19289e-25)
(3.23571 0.740972 -4.42276e-26)
(3.24093 0.764308 0)
(3.38555 0.815129 -4.60743e-29)
(3.53277 0.878865 7.76105e-30)
(3.54177 1.10068 3.35174e-25)
(3.71308 1.17306 3.51422e-25)
(3.97622 1.26779 8.74125e-30)
(4.03213 1.28358 3.41883e-25)
(4.22316 1.36111 0)
(4.29315 1.3547 4.57664e-26)
(4.56234 1.45062 -3.5704e-33)
(4.67864 1.50229 3.0577e-27)
(4.8431 1.55705 0)
(4.88632 1.56403 4.39718e-27)
(7.09951 0.0672007 0)
(6.77601 0.0276926 0)
(6.67943 0.0213321 0)
(6.2948 0.0275498 -5.15268e-31)
(6.00597 0.0195637 -5.94264e-31)
(5.7636 0.0108339 0)
(5.71321 0.00824352 1.02534e-30)
(5.54154 0.0107434 1.01035e-30)
(5.40545 0.0090201 1.16428e-30)
(5.28577 0.00579085 1.1572e-30)
(5.2538 0.00500038 0)
(5.15864 0.00610326 0)
(5.12685 0.00558905 0)
(5.01693 0.00458969 -2.31552e-30)
(4.95699 0.00353818 -2.23312e-30)
(4.93593 0.00337612 2.03141e-30)
(4.91035 0.00378702 2.07714e-30)
(4.83683 0.00351538 0)
(4.79051 0.00304457 0)
(4.77311 0.00262128 -1.97363e-30)
(4.74036 0.00304858 -1.99155e-30)
(4.69653 0.00332249 -2.1528e-30)
(4.65807 0.00296725 2.08638e-30)
(4.64197 0.00255151 3.74843e-30)
(4.60879 0.00284913 0)
(4.57477 0.00331159 0)
(4.5372 0.00322752 -3.91394e-30)
(4.52054 0.00279742 -3.43292e-30)
(4.48696 0.00306286 0)
(4.45357 0.00371007 3.70106e-30)
(4.41352 0.00384604 3.49082e-30)
(4.39465 0.00345842 -2.91009e-30)
(4.3559 0.0036934 -4.25582e-36)
(4.32121 0.00462651 3.11844e-30)
(4.27151 0.00505367 0)
(4.24785 0.00456101 0)
(4.20329 0.0051023 0)
(4.15558 0.00618955 0)
(4.09649 0.00700105 -1.71916e-30)
(4.06445 0.00694104 -6.68793e-31)
(3.99596 0.0073026 0)
(3.94686 0.0094368 0)
(3.8487 0.0108948 -4.24361e-33)
(3.8018 0.0101858 1.65282e-30)
(3.72633 0.0127127 0)
(3.61099 0.0147571 0)
(3.50218 0.0176371 0)
(3.42203 0.0203933 0)
(3.23318 0.0217665 7.97124e-30)
(3.14072 0.0313332 9.28168e-30)
(2.82952 0.0394346 1.19313e-29)
(2.65081 0.0443343 3.77578e-29)
(2.34604 0.0784417 4.47327e-34)
(1.95817 0.295036 2.67091e-25)
(2.20376 0.497707 -7.60444e-25)
(2.52202 0.595666 -7.61613e-25)
(2.41011 0.551322 -4.88467e-25)
(2.65745 0.587504 1.23111e-25)
(3.24152 0.744565 0)
(3.24531 0.768839 0)
(3.39376 0.818258 -1.62491e-26)
(3.54394 0.885603 2.88207e-26)
(3.5512 1.10588 3.39123e-25)
(3.72147 1.17801 -1.3366e-29)
(3.99034 1.27472 -1.75168e-29)
(4.04201 1.28718 -1.72312e-28)
(4.40707 1.41468 1.42996e-29)
(4.29981 1.35796 3.04476e-29)
(4.57734 1.45423 2.94596e-29)
(4.68734 1.50393 2.29238e-27)
(4.85128 1.55899 1.75616e-28)
(4.89599 1.5668 6.56718e-29)
(7.18747 0.0712597 0)
(6.98774 0.031361 -3.26864e-31)
(6.90979 0.0251934 2.47099e-31)
(6.58953 0.032285 -9.67486e-36)
(6.31766 0.0233992 5.94642e-31)
(6.08081 0.0132359 1.19445e-30)
(6.03026 0.0102842 0)
(5.85482 0.0130881 0)
(5.70375 0.0109842 -1.16509e-30)
(5.58699 0.00711772 -1.15795e-30)
(5.55399 0.00620147 0)
(5.45358 0.00728912 0)
(5.36968 0.00672711 -2.20892e-30)
(5.3028 0.00582761 -2.31674e-30)
(5.23946 0.0043562 0)
(5.21773 0.00401107 2.03266e-30)
(5.15228 0.00460366 2.07816e-30)
(5.11229 0.00445814 0)
(5.06365 0.00371981 2.16949e-30)
(5.04577 0.0032188 1.97461e-30)
(4.99925 0.00375107 0)
(4.96429 0.00406733 0)
(4.92429 0.00359754 -4.17421e-30)
(4.90784 0.00314131 -1.60501e-35)
(4.86724 0.00351176 3.76311e-30)
(4.8365 0.00401742 0)
(4.79802 0.00388999 0)
(4.78107 0.00343064 3.43426e-30)
(4.74239 0.00376864 3.40099e-30)
(4.71006 0.00448462 -3.70234e-30)
(4.66973 0.00461781 -6.98401e-30)
(4.65061 0.0042144 -2.91103e-30)
(4.60786 0.00452622 -2.82959e-30)
(4.57276 0.00558055 -3.11958e-30)
(4.52358 0.00605272 0)
(4.49967 0.00552986 -2.07632e-30)
(4.45144 0.00621594 -1.88776e-30)
(4.40228 0.00745729 2.22028e-30)
(4.34425 0.00838586 3.43958e-30)
(4.31196 0.00836226 6.68923e-31)
(4.24025 0.00886148 3.68697e-31)
(4.18793 0.0113457 5.76509e-31)
(4.09225 0.0130124 0)
(4.04508 0.0122472 0)
(3.96531 0.0153153 0)
(3.84709 0.0176829 -2.08766e-30)
(3.73972 0.0210923 -3.84819e-30)
(3.65935 0.0243221 6.5481e-30)
(3.46796 0.0260455 7.96963e-30)
(3.36789 0.0373265 9.27448e-30)
(3.06243 0.046561 2.03669e-34)
(2.8833 0.0522236 -1.88607e-29)
(2.57103 0.0919361 0)
(2.18229 0.323063 5.64153e-25)
(2.42015 0.534807 0)
(2.73547 0.635641 -8.01297e-25)
(2.62722 0.589855 -5.26506e-25)
(2.82453 0.607966 1.30197e-25)
(3.37665 0.766767 -2.97445e-33)
(3.38025 0.792629 2.14023e-29)
(3.53089 0.845585 0)
(3.68671 0.91933 3.44612e-26)
(3.71092 1.14694 3.51346e-25)
(3.88135 1.21964 3.66875e-25)
(4.15826 1.32028 3.87314e-25)
(4.22433 1.33631 -3.5047e-25)
(4.41361 1.41899 0)
(4.48059 1.40938 0)
(4.73506 1.49766 -5.60289e-27)
(4.85223 1.55092 0)
(5.02607 1.61019 8.74544e-29)
(5.07893 1.62114 -8.96154e-29)
(7.23921 0.0727534 0)
(7.14098 0.0334578 6.52385e-31)
(7.08076 0.0278407 4.9442e-31)
(6.83535 0.0363763 0)
(6.59566 0.0272552 0)
(6.37722 0.0159068 0)
(6.32693 0.0126869 0)
(6.15236 0.015973 0)
(5.98498 0.0133225 -2.32762e-30)
(5.87509 0.00871268 -2.05795e-35)
(5.84058 0.00775511 4.02309e-30)
(5.73501 0.00924998 2.00869e-30)
(5.59675 0.00807024 0)
(5.57379 0.00693584 0)
(5.5069 0.00538729 0)
(5.48427 0.00523154 0)
(5.37661 0.00557205 0)
(5.37199 0.00525317 0)
(5.32112 0.00456935 0)
(5.30254 0.00413113 0)
(5.23913 0.00460941 0)
(5.21578 0.00485217 0)
(5.17459 0.00437264 0)
(5.15763 0.00396237 0)
(5.10756 0.00433139 0)
(5.08171 0.00480998 -4.06089e-30)
(5.04278 0.0046887 -3.90849e-30)
(5.02542 0.00426931 0)
(4.98018 0.00464508 0)
(4.9498 0.00536895 0)
(4.90991 0.00552681 0)
(4.89044 0.00517722 0)
(4.8426 0.00555678 0)
(4.80749 0.00667186 0)
(4.75986 0.00720168 0)
(4.73566 0.00673389 -2.07293e-30)
(4.68284 0.00758544 -3.85466e-36)
(4.63228 0.00890102 2.21685e-30)
(4.57668 0.00996046 1.717e-30)
(4.54416 0.0100717 1.33556e-30)
(4.46858 0.0107484 7.36912e-31)
(4.41269 0.0135015 5.76478e-31)
(4.32151 0.0153888 0)
(4.27406 0.0147 0)
(4.18929 0.0183759 0)
(4.06812 0.0209705 0)
(3.96437 0.0249903 0)
(3.88399 0.0288121 0)
(3.68993 0.0310145 0)
(3.58169 0.0439341 -1.85031e-29)
(3.28583 0.0544192 -2.37901e-29)
(3.1066 0.0611578 0)
(2.78677 0.10674 0)
(2.39935 0.352198 2.9665e-25)
(2.63071 0.57313 2.89256e-29)
(2.94337 0.676456 -5.23835e-30)
(2.8449 0.632824 -5.67977e-25)
(2.83111 0.613503 -1.9964e-28)
(3.51364 0.78694 0)
(3.51734 0.815953 0)
(3.66174 0.870458 -1.94695e-29)
(3.81644 0.948509 -1.61944e-33)
(3.85426 1.18266 3.62217e-25)
(4.0236 1.25552 3.77532e-25)
(4.30269 1.35864 3.96466e-25)
(4.38279 1.38036 3.59344e-25)
(4.57202 1.45986 5.65372e-29)
(4.64072 1.45229 5.50015e-26)
(4.86947 1.53343 -8.59917e-27)
(4.99349 1.58898 0)
(5.1724 1.65079 3.41395e-27)
(5.23303 1.66518 3.23061e-28)
(7.24085 0.0730073 0)
(7.14499 0.0331903 0)
(7.08548 0.0279836 -4.94668e-31)
(6.84285 0.0371306 -5.16775e-31)
(6.60772 0.0280156 0)
(6.38608 0.0157508 0)
(6.33665 0.0123753 1.02519e-30)
(6.16251 0.0164802 1.01127e-30)
(6.00927 0.0138774 0)
(5.88527 0.00860339 0)
(5.85109 0.00762601 -2.01052e-30)
(5.74555 0.00966868 -2.00812e-30)
(5.66147 0.00871673 0)
(5.58468 0.00694969 0)
(5.51699 0.00537128 2.22942e-30)
(5.49507 0.00536558 2.02869e-30)
(5.43037 0.00595911 -4.15037e-30)
(5.38296 0.00523307 -4.46242e-30)
(5.33133 0.00458089 0)
(5.3131 0.00419395 0)
(5.26568 0.00480607 0)
(5.22694 0.00491138 0)
(5.1847 0.00441141 4.16296e-30)
(5.16801 0.00403087 1.86297e-35)
(5.12647 0.00448331 -7.51118e-30)
(5.09326 0.00489795 -4.05754e-30)
(5.05281 0.00475572 0)
(5.03562 0.00435717 3.42526e-30)
(4.99609 0.0048016 3.39395e-30)
(4.96197 0.00549482 -3.69398e-30)
(4.91986 0.00562854 -3.48218e-30)
(4.9005 0.00530435 0)
(4.85708 0.00575181 0)
(4.82053 0.00686192 0)
(4.76973 0.00736756 0)
(4.74559 0.0069229 0)
(4.69654 0.00786514 0)
(4.64644 0.009202 0)
(4.58643 0.0102127 0)
(4.55393 0.0104048 0)
(4.48177 0.0111831 0)
(4.42801 0.0140354 -1.15443e-30)
(4.33107 0.0158865 5.43599e-35)
(4.28366 0.0152095 -4.14354e-35)
(4.20236 0.0192044 9.71129e-30)
(4.08462 0.0219695 4.16254e-30)
(3.9738 0.0258109 0)
(3.89332 0.0301306 0)
(3.70319 0.0327518 0)
(3.59893 0.0464607 1.84647e-29)
(3.29528 0.0575489 2.37434e-29)
(3.11625 0.0651649 0)
(2.80384 0.115162 0)
(2.42124 0.363435 0)
(2.64091 0.583835 0)
(2.95006 0.688558 -8.5387e-25)
(2.85267 0.646553 -5.87095e-25)
(3.00967 0.644285 -1.59497e-25)
(3.52141 0.791373 0)
(3.52331 0.821861 5.80999e-26)
(3.67259 0.874958 2.82735e-26)
(3.82939 0.956135 0)
(3.86503 1.18701 6.23627e-30)
(4.03319 1.25937 3.78713e-25)
(4.31871 1.36351 -3.97245e-25)
(4.39257 1.38311 3.59182e-25)
(4.5788 1.46454 -9.12492e-26)
(4.64829 1.45484 5.50478e-26)
(4.88794 1.53845 -9.25302e-27)
(5.00047 1.59029 0)
(5.17633 1.6513 0)
(5.23929 1.66725 1.33362e-29)
(7.26666 0.0740838 0)
(7.24274 0.035654 6.49941e-31)
(7.19802 0.0311422 4.95263e-31)
(7.02836 0.041885 0)
(6.83696 0.0328228 0)
(6.6476 0.0195118 0)
(6.60067 0.0159258 0)
(6.43557 0.0204759 0)
(6.2697 0.017165 0)
(6.15825 0.0110959 0)
(6.12278 0.0100377 0)
(6.01309 0.0124112 0)
(5.87344 0.0105702 0)
(5.84154 0.00879497 -2.31135e-30)
(5.77059 0.0069771 -2.2301e-30)
(5.74706 0.00708335 -4.05886e-30)
(5.63705 0.0073218 -4.15188e-30)
(5.62728 0.00658688 4.46261e-30)
(5.57324 0.00588436 4.32863e-30)
(5.55418 0.0055306 0)
(5.48709 0.00605778 -3.98021e-30)
(5.4623 0.00613635 -8.59485e-30)
(5.41902 0.00558199 -4.1628e-30)
(5.40176 0.0052357 3.74164e-30)
(5.34886 0.00568247 1.10819e-35)
(5.32193 0.00609862 -7.55562e-36)
(5.28146 0.00594686 3.90398e-30)
(5.26381 0.00557923 -3.42545e-30)
(5.21647 0.00607285 -6.78981e-30)
(5.18512 0.00680713 -3.6947e-30)
(5.14407 0.00696782 3.48187e-30)
(5.12436 0.00669192 2.90286e-30)
(5.07489 0.00723074 0)
(5.03871 0.00844978 -3.11317e-30)
(4.99034 0.00903946 2.83777e-30)
(4.96592 0.00864311 4.14257e-30)
(4.9115 0.00980608 0)
(4.86011 0.0112696 4.43109e-30)
(4.80378 0.0124876 6.86332e-30)
(4.77105 0.01281 2.67159e-30)
(4.69457 0.0138391 7.39555e-31)
(4.63712 0.0170638 0)
(4.54626 0.0192517 0)
(4.49852 0.0186705 0)
(4.41189 0.0234325 0)
(4.29099 0.0265042 0)
(4.18588 0.0313255 -7.66142e-30)
(4.1055 0.0362694 -2.6076e-29)
(3.91246 0.039499 -2.23503e-34)
(3.79998 0.0553085 3.20204e-34)
(3.50874 0.0679856 -2.37152e-29)
(3.32989 0.076917 0)
(3.01013 0.133609 0)
(2.63232 0.385714 -5.5861e-29)
(2.8489 0.611702 1.85811e-32)
(3.15596 0.718905 -8.72826e-25)
(3.07245 0.678595 -1.12609e-28)
(3.20275 0.678446 1.82426e-25)
(3.66662 0.808886 4.90403e-29)
(3.66755 0.840301 6.31675e-26)
(3.80306 0.895661 3.1097e-26)
(3.95263 0.980531 4.76378e-26)
(3.99943 1.21417 3.67618e-25)
(4.16598 1.2864 3.81555e-25)
(4.44805 1.39228 -3.99151e-25)
(4.53321 1.41726 4.68646e-29)
(4.72384 1.50007 -9.30741e-26)
(4.79244 1.48862 0)
(5.01073 1.56725 -1.02688e-26)
(5.1312 1.62172 -1.26214e-29)
(5.30701 1.68356 -1.25295e-29)
(5.37166 1.70091 0)
(7.2676 0.0740412 -1.95465e-31)
(7.24557 0.03534 3.24281e-31)
(7.20153 0.0312367 4.95763e-31)
(7.03467 0.0423096 0)
(6.84801 0.0333401 1.18571e-30)
(6.65573 0.0191511 2.38117e-30)
(6.60985 0.015499 1.02661e-30)
(6.44534 0.020868 -2.02685e-30)
(6.29546 0.0176894 9.66289e-36)
(6.16828 0.0108274 2.3115e-30)
(6.13345 0.00976755 -2.01276e-30)
(6.02366 0.0127605 -4.02244e-30)
(5.93573 0.011277 -2.2072e-30)
(5.85286 0.00876512 4.62294e-30)
(5.78069 0.00686158 4.46185e-30)
(5.75833 0.00712784 0)
(5.69053 0.00775291 4.15334e-30)
(5.63877 0.00652301 4.46296e-30)
(5.58376 0.00582575 0)
(5.56521 0.00553065 3.94238e-30)
(5.51561 0.00625752 3.98183e-30)
(5.47404 0.0061548 -4.29798e-30)
(5.42955 0.00556278 -4.1632e-30)
(5.4126 0.00525242 0)
(5.36928 0.00582082 0)
(5.33417 0.00615237 4.05859e-30)
(5.29191 0.00596213 3.90393e-30)
(5.27449 0.00561792 3.42601e-30)
(5.23374 0.00621026 9.37385e-36)
(5.19812 0.00690112 -3.6956e-30)
(5.15448 0.00701826 0)
(5.13491 0.00676895 -5.80653e-30)
(5.09056 0.00740144 -5.65078e-30)
(5.05277 0.00860791 6.22726e-30)
(5.00073 0.0091459 1.13519e-29)
(4.97636 0.00878165 4.14319e-30)
(4.92617 0.0100525 0)
(4.8754 0.0115354 0)
(4.81393 0.0126672 0)
(4.78137 0.0130785 0)
(4.70874 0.0142336 7.4144e-31)
(4.65372 0.017562 1.15983e-30)
(4.55625 0.0196525 0)
(4.50872 0.0191013 3.29185e-30)
(4.42602 0.0242105 9.17857e-35)
(4.30903 0.0274779 -4.15953e-30)
(4.19582 0.0320267 7.6551e-30)
(4.11539 0.0374721 1.30269e-29)
(3.92697 0.0412153 0)
(3.81906 0.0578634 -1.84134e-29)
(3.51893 0.0710134 -2.36848e-29)
(3.34044 0.0809561 -3.73676e-29)
(3.02934 0.142187 -5.93981e-29)
(2.65734 0.397898 3.18323e-25)
(2.86031 0.622814 0)
(3.16365 0.731245 8.90635e-25)
(3.08286 0.691779 0)
(3.21182 0.686381 1.9127e-25)
(3.67453 0.816428 0)
(3.67422 0.847555 -6.84656e-26)
(3.81571 0.901401 0)
(3.96703 0.988992 1.03673e-25)
(4.01105 1.2192 7.42689e-25)
(4.17643 1.29067 2.68291e-29)
(4.46543 1.39712 1.74364e-29)
(4.54386 1.41988 2.3344e-29)
(4.7302 1.50457 2.78694e-29)
(4.80027 1.49164 2.94646e-29)
(5.03013 1.57273 5.59746e-29)
(5.13908 1.62386 2.50907e-29)
(5.31009 1.68427 0)
(5.37562 1.70237 -1.3072e-29)
(7.27919 0.0741041 1.94545e-31)
(7.30305 0.0368717 3.23558e-31)
(7.27021 0.0334425 0)
(7.16558 0.0460462 0)
(7.02697 0.0375821 0)
(6.87589 0.0227606 -2.37963e-30)
(6.8349 0.0190466 -8.12751e-35)