/*--------------------------------*- C++ -*----------------------------------*\
| =========                 |                                                 |
| \\      /  F ield         | OpenFOAM: The Open Source CFD Toolbox           |
|  \\    /   O peration     | Version:  v2012                                 |
|   \\  /    A nd           | Website:  www.openfoam.com                      |
|    \\/     M anipulation  |                                                 |
\*---------------------------------------------------------------------------*/
FoamFile
{
    version     2.0;
    format      ascii;
    class       volSymmTensorField;
    location    "1e-06";
    object      UPrime2Mean;
}
// * * * * * * * * * * * * * * * * * * * * * * * * * * * * * * * * * * * * * //

dimensions      [0 2 -2 0 0 0 0];


internalField   nonuniform List<symmTensor> 
10262
(
(1.01654e-06 2.04107e-07 0 6.45082e-08 0 0)
(1.15284e-06 1.94756e-07 0 4.12173e-08 0 0)
(1.31691e-05 5.56297e-07 0 2.45706e-08 0 0)
(9.79423e-06 1.7239e-07 -1.25993e-33 3.16772e-09 -2.72677e-35 4.6986e-61)
(8.08225e-06 7.85246e-08 -1.28036e-33 7.87482e-10 -1.48918e-35 6.12352e-61)
(4.46568e-06 3.36782e-09 1.89279e-45 2.77956e-12 1.92744e-48 2.44812e-84)
(5.86449e-06 6.00453e-08 0 6.43207e-10 0 0)
(8.44654e-06 1.21401e-07 2.34414e-33 1.93512e-09 4.68418e-35 1.85378e-60)
(6.46556e-06 1.92686e-08 2.24701e-33 5.97547e-11 8.16946e-36 2.33939e-60)
(3.91445e-06 -1.93105e-08 0 9.70079e-11 0 0)
(4.70122e-06 2.16788e-08 3.74946e-45 1.03845e-10 2.07699e-47 7.93906e-84)
(6.45125e-06 1.02321e-07 4.05554e-33 2.36607e-09 1.21762e-34 7.25969e-60)
(7.01285e-06 2.05453e-08 4.52321e-33 6.20268e-11 1.57215e-35 8.57052e-60)
(4.09734e-06 -3.33115e-08 3.59035e-33 2.79632e-10 -3.47189e-35 9.34548e-60)
(2.57485e-06 5.24382e-09 2.77886e-33 1.11444e-11 6.92066e-36 8.73434e-60)
(6.09968e-06 1.07871e-07 0 2.67617e-09 0 0)
(7.76174e-06 2.48918e-08 2.5535e-45 8.41453e-11 1.01555e-47 2.16521e-84)
(3.75912e-06 -3.60209e-08 0 3.58511e-10 0 0)
(2.515e-06 -3.63132e-10 0 6.91778e-14 0 0)
(5.43429e-06 8.98198e-08 0 1.87886e-09 0 0)
(7.2947e-06 3.5431e-08 0 1.91574e-10 0 0)
(3.65915e-06 -3.40038e-08 0 3.2583e-10 0 0)
(2.46071e-06 -4.13669e-09 0 6.9816e-12 0 0)
(5.07025e-06 8.01895e-08 0 1.6141e-09 0 0)
(6.76151e-06 4.73187e-08 0 4.45761e-10 0 0)
(3.58647e-06 -3.00537e-08 0 2.5865e-10 0 0)
(2.35855e-06 -8.53098e-09 0 3.11532e-11 0 0)
(4.76567e-06 7.44749e-08 0 1.5523e-09 0 0)
(6.43251e-06 6.42269e-08 0 9.15695e-10 0 0)
(3.32821e-06 -2.43084e-08 0 1.81536e-10 0 0)
(2.19109e-06 -1.21003e-08 0 6.76211e-11 0 0)
(4.57856e-06 8.12031e-08 5.69803e-45 1.92272e-09 1.46492e-46 1.15996e-83)
(6.08696e-06 7.95753e-08 5.78996e-33 1.4513e-09 1.32453e-34 1.48067e-59)
(3.0598e-06 -1.79376e-08 4.30723e-33 1.06851e-10 -2.75337e-35 1.66657e-59)
(1.84024e-06 -1.36891e-08 3.1304e-33 1.02992e-10 -2.44759e-35 1.39549e-59)
(4.4889e-06 6.77701e-08 7.66643e-33 1.36207e-09 1.95577e-34 3.35033e-59)
(6.11262e-06 9.06059e-08 4.00827e-33 1.81819e-09 1.02611e-34 6.92549e-60)
(2.2558e-06 -1.12086e-08 0 5.63535e-11 0 0)
(1.5494e-06 -1.33839e-08 1.73552e-33 1.16745e-10 -1.53794e-35 4.99111e-60)
(4.50262e-06 6.23353e-08 1.39458e-33 9.39732e-10 2.54222e-35 1.12052e-60)
(5.44515e-06 9.92514e-08 8.71552e-34 2.15361e-09 2.43248e-35 3.84932e-61)
(1.97768e-06 -4.99045e-09 9.65997e-40 1.26566e-11 -2.38806e-42 1.37613e-72)
(5.94247e-07 -8.05322e-09 6.66587e-35 1.10781e-10 -9.21371e-37 1.62124e-62)
(4.38746e-06 5.53634e-08 -2.72366e-33 7.19675e-10 -3.94687e-35 3.97309e-60)
(6.69141e-06 1.17301e-07 -4.95474e-33 2.18694e-09 -1.08694e-34 9.00714e-60)
(1.20525e-07 -6.59438e-10 -6.30378e-34 3.98746e-12 3.4709e-36 9.39348e-60)
(4.33788e-07 -4.13767e-09 -7.22561e-39 4.03258e-11 6.09649e-41 2.65604e-70)
(4.51952e-06 5.45617e-08 1.18512e-32 6.70912e-10 1.5705e-34 7.1082e-59)
(2.67612e-06 7.80745e-08 0 2.33292e-09 0 0)
(2.00427e-07 3.75111e-09 3.3224e-33 8.23489e-11 7.98395e-35 1.57442e-58)
(4.97004e-06 3.03389e-08 -2.38693e-32 1.86971e-10 -1.39951e-34 2.74793e-58)
(7.12143e-06 -4.41238e-08 0 3.03672e-10 0 0)
(9.67691e-05 1.96094e-06 0 4.11925e-08 0 0)
(8.21336e-05 -0.000129678 1.44324e-27 0.000214859 -2.61019e-27 3.6838e-50)
(2.08532e-05 -9.98148e-05 9.53275e-27 0.000479411 -4.68533e-26 5.34483e-48)
(0.000110313 -0.00018719 5.92314e-32 0.000343551 -1.28601e-31 6.7622e-59)
(8.62833e-05 0.000106685 -2.4971e-31 0.000144726 -4.11071e-31 1.64952e-57)
(0.000141248 6.69103e-05 0 3.31454e-05 0 0)
(8.80021e-05 1.93825e-05 0 4.2833e-06 0 0)
(1.84616e-05 3.93181e-06 0 8.37572e-07 0 0)
(1.49904e-05 3.57872e-06 -6.33266e-32 8.54426e-07 -1.52791e-32 7.07366e-58)
(8.67043e-05 2.13916e-05 -4.13061e-29 5.27794e-06 -1.02491e-29 4.51934e-53)
(7.30286e-05 -7.95034e-05 1.28118e-31 9.66741e-05 -1.84182e-31 4.70859e-58)
(1.08714e-06 -1.27353e-05 3.15992e-28 0.000163593 -3.62953e-27 9.3984e-50)
(3.17712e-05 -6.76434e-05 -1.0368e-31 0.00016336 3.00028e-31 7.57105e-58)
(1.23339e-05 -4.04546e-05 -8.30528e-28 0.000146658 3.33259e-27 8.73801e-50)
(4.52309e-06 -9.98504e-06 -1.03247e-28 2.46959e-05 2.78774e-28 3.70672e-51)
(3.29374e-06 -5.33968e-06 2.71227e-32 1.14566e-05 -6.69661e-32 4.87514e-58)
(1.02485e-05 3.25475e-06 -1.00922e-29 1.03535e-06 -3.06765e-30 2.15648e-53)
(3.13025e-05 9.25275e-06 -7.008e-32 2.74029e-06 -1.97199e-32 3.66757e-58)
(2.23817e-05 7.5431e-06 1.15753e-30 2.54221e-06 3.90867e-31 1.03593e-55)
(1.04094e-05 4.88313e-06 1.96018e-32 2.32511e-06 1.0381e-32 8.27765e-59)
(3.04023e-05 -1.83543e-06 0 1.15403e-07 0 0)
(1.89603e-05 -3.59529e-07 1.09271e-33 7.80946e-09 -2.85671e-35 1.58406e-61)
(3.80468e-07 -6.39164e-08 1.1925e-34 1.27579e-08 -3.03944e-35 1.12803e-61)
(3.95481e-06 -9.93957e-08 0 2.76333e-09 0 0)
(5.84934e-06 -6.28632e-08 0 7.21132e-10 0 0)
(3.8549e-06 -3.0519e-08 1.80483e-33 2.52758e-10 -1.76357e-35 2.44877e-60)
(1.11636e-06 -3.28842e-08 7.99696e-34 1.08232e-09 -3.38442e-35 1.89196e-60)
(2.15178e-06 -4.52571e-08 0 1.24501e-09 0 0)
(5.28172e-06 -2.19939e-08 -2.04532e-33 9.83329e-11 1.11371e-35 2.32639e-60)
(3.37358e-06 -6.32757e-09 -1.62646e-33 1.20193e-11 3.46163e-36 2.30542e-60)
(8.22472e-07 -1.41174e-08 0 2.6607e-10 0 0)
(2.00336e-06 -3.84242e-08 2.11911e-33 1.61832e-09 -1.05185e-34 7.21918e-60)
(3.28802e-06 -1.2337e-08 3.04127e-33 4.97442e-11 -1.5086e-35 8.52578e-60)
(2.92233e-06 1.40755e-08 0 7.30245e-11 0 0)
(1.64761e-06 -1.06849e-08 0 7.27827e-11 0 0)
(1.44374e-06 -3.68349e-08 0 1.89355e-09 0 0)
(2.51597e-06 -8.98933e-09 2.47031e-33 3.86611e-11 -1.38728e-35 7.68944e-60)
(3.04507e-06 1.57627e-08 4.45431e-39 9.10478e-11 3.22801e-41 2.03731e-71)
(1.68335e-06 -6.19985e-09 -4.22615e-33 2.39223e-11 1.97697e-35 3.27827e-59)
(1.25404e-06 -2.67999e-08 -7.49586e-39 1.12012e-09 3.78019e-40 1.36379e-70)
(2.32764e-06 -1.37933e-08 2.23992e-33 1.11581e-10 -2.42412e-35 7.11013e-60)
(3.03913e-06 1.2136e-08 0 5.58298e-11 0 0)
(1.7092e-06 -4.59318e-09 0 1.28061e-11 0 0)
(1.02708e-06 -2.13361e-08 2.64629e-33 9.52133e-10 -1.4946e-34 2.55595e-59)
(2.0315e-06 -1.62409e-08 3.86144e-33 2.79007e-10 -8.14807e-35 2.54806e-59)
(3.00714e-06 9.60834e-09 5.202e-33 3.587e-11 2.47568e-35 2.85219e-59)
(1.75501e-06 -2.53404e-09 3.75469e-33 3.70692e-12 -6.35762e-36 2.66806e-59)
(8.37054e-07 -1.8057e-08 0 9.74251e-10 0 0)
(1.69441e-06 -1.99825e-08 0 5.94702e-10 0 0)
(3.09227e-06 6.12144e-09 0 1.45609e-11 0 0)
(1.80225e-06 -1.11177e-09 0 7.65812e-13 0 0)
(6.38175e-07 -1.82625e-08 0 1.30525e-09 0 0)
(1.40439e-06 -2.29768e-08 -2.30106e-33 9.45722e-10 1.11878e-34 1.47372e-59)
(3.0987e-06 9.38054e-10 -7.92321e-33 7.24013e-13 -5.53924e-36 6.63578e-59)
(1.97137e-06 -1.12053e-09 -2.8129e-33 7.71842e-13 9.42965e-37 1.38846e-59)
(4.36124e-07 -1.22166e-08 0 9.98556e-10 0 0)
(9.71081e-07 -2.16259e-08 0 1.24235e-09 0 0)
(3.55843e-06 -3.93387e-09 2.95836e-33 4.40741e-12 -3.82362e-36 8.09522e-60)
(1.9529e-06 -4.15006e-09 1.65199e-33 8.87151e-12 -3.88408e-36 4.96667e-60)
(2.1942e-07 -9.35234e-09 0 7.88533e-10 0 0)
(7.86245e-07 -2.48632e-08 -2.32817e-34 1.50684e-09 2.158e-35 3.83387e-61)
(3.20362e-06 -1.49933e-08 -6.51115e-34 7.19999e-11 3.73955e-36 4.50512e-61)
(2.89574e-06 -7.17733e-09 -1.33146e-34 1.81473e-11 3.89224e-37 1.61548e-62)
(8.62405e-08 -5.01472e-09 -1.51711e-36 8.59434e-10 4.45389e-35 3.95699e-60)
(1.33329e-07 -9.49873e-09 0 1.82218e-09 0 0)
(6.42313e-06 -1.94904e-08 0 6.09437e-11 0 0)
(2.19048e-06 -2.97679e-08 0 4.18302e-10 0 0)
(8.93458e-08 7.52703e-09 0 9.10307e-10 0 0)
(5.9471e-07 -3.29617e-08 0 2.37983e-09 0 0)
(3.5858e-06 -6.24824e-08 -1.35471e-32 1.1126e-09 2.82606e-34 1.56715e-58)
(1.45506e-05 -1.18101e-08 -3.90848e-32 9.67304e-12 3.3108e-35 2.73567e-58)
(1.53377e-05 -1.846e-07 -1.23057e-31 2.4228e-09 1.97982e-33 2.67845e-57)
(6.97353e-05 4.44496e-06 4.59234e-31 2.9163e-07 3.37398e-32 6.1771e-57)
(4.61665e-05 -4.09761e-05 -2.32942e-27 6.69758e-05 3.4672e-27 1.85091e-49)
(2.44115e-06 -2.02743e-05 5.90751e-27 0.000175175 -5.13407e-26 1.52946e-47)
(5.12884e-05 -6.20743e-05 3.72337e-32 0.000125431 -7.62271e-32 4.87264e-59)
(0.000142295 9.55256e-05 -2.89278e-31 8.67254e-05 -3.29562e-31 1.51049e-57)
(0.000177595 5.95443e-05 -1.4737e-27 2.17854e-05 -6.32865e-28 2.32988e-50)
(4.3696e-05 8.56222e-06 1.60261e-31 1.70326e-06 2.73426e-32 1.30811e-57)
(2.40624e-06 9.00428e-08 3.69769e-32 4.83618e-09 2.06844e-33 8.89435e-58)
(5.23781e-05 1.33986e-05 0 3.43386e-06 0 0)
(3.41335e-05 1.0282e-05 -7.70838e-29 3.09772e-06 -2.29357e-29 3.50916e-52)
(2.6111e-05 -2.42644e-05 0 3.82474e-05 0 0)
(1.15678e-05 1.75154e-05 0 6.65693e-05 0 0)
(8.23845e-07 -6.18822e-06 5.71956e-28 5.61951e-05 -5.32589e-27 5.13094e-49)
(3.24669e-06 4.05167e-06 2.86201e-28 5.3884e-05 4.74153e-27 4.25372e-49)
(5.04329e-06 3.33101e-06 1.3859e-28 7.67495e-06 3.73337e-28 1.84013e-50)
(2.05688e-07 -4.6889e-07 2.05979e-29 6.62145e-06 -2.21485e-28 7.67865e-51)
(5.53812e-06 2.26169e-06 1.24196e-29 9.54235e-07 6.72739e-30 1.24138e-52)
(3.66289e-07 1.87406e-08 3.09123e-30 2.3942e-08 -1.43392e-31 3.11193e-53)
(3.88278e-07 1.41128e-07 -5.98997e-32 5.20244e-08 -2.28415e-32 1.09234e-56)
(3.24099e-06 7.21377e-07 0 2.38745e-07 0 0)
(8.49819e-08 -5.35117e-10 0 7.73603e-12 0 0)
(2.71703e-06 1.67935e-07 0 1.11709e-08 0 0)
(2.46665e-05 5.26445e-07 0 1.13395e-08 0 0)
(1.69962e-05 1.36655e-07 0 1.10029e-09 0 0)
(1.31347e-05 8.19867e-08 3.28044e-33 5.14387e-10 2.21593e-35 2.43221e-60)
(1.2259e-05 1.32502e-07 3.1792e-33 1.44446e-09 3.77201e-35 2.4455e-60)
(1.70905e-05 1.50182e-07 3.35453e-33 1.3331e-09 3.26701e-35 1.88947e-60)
(1.58313e-05 -8.13161e-10 6.38844e-33 3.45349e-13 4.89006e-37 7.36411e-60)
(9.99235e-06 2.74572e-08 -2.80497e-33 7.57518e-11 -8.3196e-36 2.32356e-60)
(1.05959e-05 8.36391e-08 -5.75352e-33 6.65177e-10 -4.94483e-35 9.20852e-60)
(1.489e-05 7.95799e-08 0 4.29508e-10 0 0)
(1.31943e-05 -5.14427e-08 0 2.05388e-10 0 0)
(6.02381e-06 1.94118e-08 4.21215e-33 6.27925e-11 1.45789e-35 8.51467e-60)
(1.00454e-05 5.71912e-08 1.09947e-38 3.30027e-10 7.01011e-41 3.47766e-71)
(1.00679e-05 4.03038e-08 -1.09435e-32 1.63047e-10 -4.87689e-35 3.46838e-59)
(1.2865e-05 -1.48479e-08 -5.78938e-33 1.83688e-11 6.95699e-36 7.42989e-60)
(7.82404e-06 -1.83129e-09 0 4.86989e-13 0 0)
(8.88812e-06 4.67173e-08 0 2.48149e-10 0 0)
(9.24749e-06 2.89701e-08 0 9.16072e-11 0 0)
(1.19376e-05 -1.50251e-10 0 1.17688e-12 0 0)
(1.01162e-05 -1.46195e-10 0 1.42328e-13 0 0)
(8.1807e-06 2.51586e-08 -9.51935e-33 7.7606e-11 -3.09919e-35 3.19564e-59)
(8.60427e-06 2.92197e-08 -9.55411e-33 1.00204e-10 -3.59351e-35 3.0312e-59)
(1.14806e-05 -7.90634e-10 0 1.2164e-12 0 0)
(1.01598e-05 -2.19172e-09 0 6.48355e-13 0 0)
(7.62994e-06 2.16135e-08 -8.74242e-33 6.13598e-11 -2.5975e-35 2.84841e-59)
(7.98094e-06 2.84307e-08 -8.68406e-33 1.02009e-10 -3.35732e-35 2.66345e-59)
(1.11143e-05 1.49627e-09 0 9.57806e-13 0 0)
(1.00868e-05 -4.77248e-09 0 2.54023e-12 0 0)
(6.90346e-06 2.06244e-08 0 6.17611e-11 0 0)
(7.34667e-06 3.01605e-08 0 1.24405e-10 0 0)
(1.09115e-05 3.13746e-09 0 1.69567e-12 0 0)
(9.87691e-06 -5.35144e-09 7.29945e-33 3.25526e-12 -2.61304e-36 1.47198e-59)
(6.25382e-06 2.20464e-08 6.09579e-33 7.79517e-11 2.25806e-35 1.65693e-59)
(6.43101e-06 3.2676e-08 0 1.66783e-10 0 0)
(1.0863e-05 1.5534e-08 5.79201e-33 2.26485e-11 9.78943e-36 8.31682e-60)
(1.01139e-05 -2.24253e-09 5.08404e-33 8.82367e-13 -1.63098e-37 6.88682e-60)
(4.90738e-06 2.05351e-08 0 8.62198e-11 0 0)
(5.74471e-06 4.56914e-08 0 3.64896e-10 0 0)
(1.10406e-05 2.05071e-08 -2.11115e-33 3.87272e-11 -4.56508e-36 1.11236e-60)
(9.43864e-06 1.01118e-08 -1.12828e-33 1.12032e-11 -1.4878e-36 3.83421e-61)
(4.47781e-06 2.94654e-08 8.42192e-34 1.94719e-10 5.8043e-36 4.50742e-61)
(3.56809e-06 3.27792e-08 -1.57664e-34 3.02976e-10 -1.52908e-36 1.61041e-62)
(1.10353e-05 6.80094e-08 4.16447e-33 4.20602e-10 2.70513e-35 3.95041e-60)
(1.14695e-05 1.1796e-08 6.35633e-33 1.28967e-11 8.54574e-36 8.94588e-60)
(1.12604e-06 1.00284e-08 -3.86554e-33 9.00282e-11 -3.59316e-35 3.72902e-59)
(3.39992e-06 8.80604e-08 -1.18643e-32 2.29778e-09 -3.18988e-34 1.08546e-58)
(1.18641e-05 4.1127e-08 -3.66298e-32 1.43255e-10 -1.37164e-34 2.82553e-58)
(6.58901e-06 4.85364e-08 -6.80186e-32 3.58662e-10 -5.26614e-34 1.75158e-57)
(1.77717e-06 5.05107e-08 -1.96828e-32 1.45696e-09 -5.95664e-34 6.25505e-58)
(9.84205e-07 -1.10156e-09 0 1.29818e-11 0 0)
(1.25647e-06 -6.55109e-08 0 3.53404e-09 0 0)
(0.000126216 8.60349e-06 0 6.11435e-07 0 0)
(7.94552e-05 3.99044e-05 -5.04372e-31 2.12252e-05 -2.1513e-31 6.70557e-57)
(2.45508e-06 9.28757e-06 3.76751e-27 4.48589e-05 1.08233e-26 8.92283e-48)
(4.83352e-05 4.47902e-05 -6.58444e-27 4.5228e-05 -5.17128e-27 2.05592e-48)
(0.00012295 1.85309e-05 0 3.08237e-06 0 0)
(0.000232629 2.27441e-05 3.64008e-30 2.2541e-06 3.39667e-31 1.33763e-55)
(7.96138e-05 1.95732e-05 0 4.81267e-06 0 0)
(1.31989e-05 1.58429e-06 7.32e-32 1.90621e-07 8.95069e-33 8.79197e-58)
(2.01996e-05 5.43493e-06 -6.98667e-32 1.46614e-06 -2.00096e-32 6.549e-58)
(8.10047e-05 2.48228e-05 1.65064e-28 7.60867e-06 5.11267e-29 7.9974e-52)
(6.49489e-05 4.35715e-05 -4.94208e-32 3.01497e-05 -2.96439e-32 8.65163e-59)
(2.40005e-07 -1.65419e-06 -8.10697e-29 1.33637e-05 1.59625e-27 5.83356e-49)
(9.52434e-06 1.53649e-05 3.26618e-27 2.68793e-05 4.89766e-27 2.55494e-48)
(2.18004e-06 5.5693e-06 3.39169e-32 1.70064e-05 7.88233e-32 1.06772e-57)
(1.39112e-06 1.96423e-06 6.37718e-32 3.37485e-06 8.13758e-32 6.04423e-57)
(2.53195e-05 1.85965e-06 -2.46001e-28 1.7402e-07 -1.50982e-29 7.99205e-51)
(5.8214e-06 2.11681e-06 -1.30761e-29 7.73024e-07 -4.44126e-30 5.94993e-53)
(2.2924e-05 6.58298e-06 3.31205e-29 1.89046e-06 9.51818e-30 1.02709e-52)
(2.20621e-05 7.11483e-06 -1.57497e-30 2.29447e-06 -5.08003e-31 2.54499e-55)
(8.24464e-06 2.35308e-06 0 6.7205e-07 0 0)
(4.04429e-05 1.71614e-06 0 7.3019e-08 0 0)
(3.85603e-05 7.76051e-07 0 1.56558e-08 0 0)
(8.5651e-06 3.3365e-07 0 1.31925e-08 0 0)
(1.24257e-05 3.60421e-07 0 1.0638e-08 0 0)
(1.33143e-05 2.36148e-07 -3.31385e-33 4.23779e-09 -6.52804e-35 2.43333e-60)
(1.29197e-05 1.47681e-07 -3.2679e-33 1.70518e-09 -4.11854e-35 2.44626e-60)
(8.66344e-06 1.07141e-07 0 1.34835e-09 0 0)
(8.25516e-06 1.35789e-07 0 2.28154e-09 0 0)
(1.11396e-05 1.08182e-07 0 1.06448e-09 0 0)
(1.10539e-05 5.41411e-08 0 2.67261e-10 0 0)
(7.38712e-06 3.97394e-08 0 2.16931e-10 0 0)
(7.75343e-06 9.43862e-08 -4.22207e-33 1.17621e-09 -6.00776e-35 7.2121e-60)
(5.35512e-06 2.94473e-08 -3.69526e-39 1.63879e-10 -2.25308e-41 7.9651e-72)
(9.61735e-06 4.15087e-08 1.0921e-32 1.80684e-10 5.11316e-35 3.71262e-59)
(8.98598e-06 2.17243e-08 5.07342e-33 5.29491e-11 1.30686e-35 8.67237e-60)
(6.56598e-06 4.11317e-08 0 2.63972e-10 0 0)
(4.86158e-06 3.82276e-08 0 3.05525e-10 0 0)
(9.22932e-06 2.70152e-08 -1.02783e-32 7.98425e-11 -3.24117e-35 3.4457e-59)
(8.45999e-06 2.25914e-08 -9.51625e-33 6.07346e-11 -2.66745e-35 3.2728e-59)
(6.13442e-06 2.27664e-08 0 8.61488e-11 0 0)
(5.8778e-06 3.82599e-08 -7.20733e-33 2.52935e-10 -5.28636e-35 2.84074e-59)
(8.69375e-06 3.47467e-08 -9.51672e-33 1.40218e-10 -4.12685e-35 3.19611e-59)
(8.04165e-06 1.73044e-08 0 3.74817e-11 0 0)
(5.59887e-06 1.98289e-08 6.55692e-33 7.15168e-11 2.62413e-35 2.55159e-59)
(5.66416e-06 3.47497e-08 6.60548e-33 2.16904e-10 4.6328e-35 2.5452e-59)
(8.23337e-06 3.39985e-08 8.6654e-33 1.41848e-10 3.91958e-35 2.84878e-59)
(7.73017e-06 1.92419e-08 8.05846e-33 4.82988e-11 2.14343e-35 2.66309e-59)
(5.11217e-06 1.9747e-08 0 7.77726e-11 0 0)
(5.18486e-06 3.35978e-08 0 2.22155e-10 0 0)
(8.02464e-06 3.57839e-08 -7.73759e-33 1.6142e-10 -3.82764e-35 2.34873e-59)
(7.46407e-06 2.40496e-08 -1.00706e-38 7.83502e-11 -3.59204e-41 4.40161e-71)
(4.5476e-06 2.23554e-08 9.00966e-33 1.12359e-10 5.20512e-35 6.28888e-59)
(4.68965e-06 3.55712e-08 8.89056e-33 2.76081e-10 7.99687e-35 5.88888e-59)
(7.71797e-06 4.0825e-08 6.32628e-33 2.18568e-10 3.74113e-35 1.65717e-59)
(7.44833e-06 3.10483e-08 0 1.30914e-10 0 0)
(3.87344e-06 2.69867e-08 0 1.92699e-10 0 0)
(3.83468e-06 3.96164e-08 0 4.21198e-10 0 0)
(8.12143e-06 5.57712e-08 4.51936e-33 3.87915e-10 3.50492e-35 8.08833e-60)
(7.08863e-06 3.8741e-08 -5.61613e-39 2.1462e-10 -3.47224e-41 1.37826e-71)
(3.02919e-06 3.68039e-08 -8.95418e-34 4.63318e-10 -1.38935e-35 1.11232e-60)
(3.37737e-06 4.59046e-08 0 6.44005e-10 0 0)
(7.31382e-06 7.09016e-08 0 6.9685e-10 0 0)
(8.34513e-06 7.81488e-08 0 7.41494e-10 0 0)
(2.17768e-06 3.22425e-08 0 4.98045e-10 0 0)
(1.57991e-06 5.0273e-08 0 1.71227e-09 0 0)
(1.14804e-05 1.61804e-07 0 2.30487e-09 0 0)
(6.7333e-06 4.88686e-08 0 3.58377e-10 0 0)
(1.01053e-06 5.83399e-08 0 3.76617e-09 0 0)
(2.64693e-06 7.4712e-08 0 2.19486e-09 0 0)
(7.2003e-06 1.58468e-07 -3.83926e-32 3.52608e-09 -9.53962e-34 6.24716e-58)
(2.30144e-05 5.47108e-07 -9.6721e-32 1.30496e-08 -2.44321e-33 1.09039e-57)
(2.41855e-05 1.64243e-07 0 1.54635e-09 0 0)
(5.78189e-05 6.91715e-06 0 8.45436e-07 0 0)
(3.66567e-05 -5.82628e-06 4.80333e-32 1.73586e-06 -2.40369e-33 1.15739e-58)
(5.32525e-07 1.30584e-06 6.145e-29 3.30798e-06 -5.74514e-28 9.98804e-48)
(2.53377e-05 -7.28675e-08 2.99337e-31 1.31805e-06 5.93072e-32 8.10982e-57)
(0.000175709 5.08848e-05 0 1.47772e-05 0 0)
(0.000199868 3.59299e-05 -3.53951e-30 6.50776e-06 -5.82898e-31 1.44717e-55)
(3.37529e-05 1.28674e-05 0 4.90574e-06 0 0)
(5.75356e-07 1.6231e-07 0 4.60367e-08 0 0)
(6.31644e-05 1.33272e-05 0 2.81579e-06 0 0)
(2.65946e-05 1.13509e-05 1.34997e-28 4.84691e-06 5.63938e-29 1.3891e-51)
(1.55423e-05 -1.66577e-07 -2.18931e-27 3.9857e-07 -1.98014e-28 5.50284e-49)
(1.86172e-05 9.27196e-06 -1.88779e-27 4.80056e-06 -7.2791e-28 6.3399e-49)
(4.12883e-07 1.0953e-06 -2.09147e-28 3.00707e-06 -8.30443e-28 2.78307e-48)
(7.42986e-06 6.33863e-06 -1.07383e-27 5.56451e-06 -7.46379e-28 5.76602e-49)
(1.19936e-05 5.41289e-06 3.14995e-28 2.46391e-06 1.29161e-28 2.84779e-50)
(2.7058e-06 1.39932e-06 -7.63398e-29 7.24845e-07 -4.07856e-29 9.28555e-51)
(9.44604e-06 1.04741e-06 0 1.40922e-07 0 0)
(8.00389e-07 3.01276e-07 1.44709e-31 1.16201e-07 -1.42176e-31 1.5798e-53)
(1.6813e-06 4.05836e-07 3.28275e-31 1.02599e-07 1.44399e-32 1.10537e-54)
(9.92854e-06 2.79283e-06 -5.44704e-32 7.86486e-07 -1.44744e-32 1.31891e-57)
(8.13791e-06 2.53487e-07 4.02996e-34 7.95943e-09 1.35217e-35 4.78732e-62)
(5.48096e-06 4.34736e-08 6.15008e-34 3.45288e-10 5.00953e-36 1.58049e-61)
(7.41775e-07 1.31512e-08 3.4856e-34 2.33259e-10 6.33981e-36 4.5214e-61)
(1.24798e-08 3.51763e-09 -2.00588e-35 1.37458e-09 -1.68186e-35 4.68094e-61)
(2.57128e-07 8.9369e-09 -4.70278e-34 3.11563e-10 -1.73086e-35 2.43244e-60)
(3.29283e-07 -2.79193e-09 -1.05696e-33 2.48659e-11 1.14747e-35 9.77936e-60)
(5.71701e-09 1.0621e-09 9.69138e-35 3.14426e-10 1.59069e-35 1.89e-60)
(3.56816e-09 -3.93605e-10 0 3.68568e-10 0 0)
(3.50429e-07 7.56895e-09 0 1.6412e-10 0 0)
(3.34661e-07 -3.6771e-09 -1.01366e-33 4.19301e-11 1.39792e-35 9.20341e-60)
(3.55285e-09 4.04726e-10 6.33621e-40 1.65786e-10 9.94239e-41 1.33018e-70)
(1.57841e-08 5.72124e-10 7.82012e-35 2.30514e-11 6.47152e-36 7.20724e-60)
(5.78998e-08 4.11032e-10 -3.60604e-34 2.94435e-12 -2.39266e-36 8.50226e-60)
(2.504e-07 8.38818e-09 -1.74345e-33 2.83951e-10 -6.55372e-35 3.7092e-59)
(1.86263e-07 -2.99679e-09 6.99208e-34 5.02846e-11 -1.46023e-35 8.66392e-60)
(3.07055e-09 -8.83131e-11 -5.4997e-40 1.89246e-10 -1.72607e-40 3.25394e-70)
(3.92271e-09 4.52181e-10 8.034e-41 1.09277e-10 -8.15328e-41 1.60376e-70)
(2.98802e-07 5.82931e-09 1.81432e-33 1.14821e-10 3.92147e-35 3.44226e-59)
(1.9482e-07 -1.69116e-09 0 1.61167e-11 0 0)
(4.77619e-09 -6.4322e-11 0 4.97769e-11 0 0)
(8.53487e-09 5.35963e-10 0 5.96257e-11 0 0)
(2.98683e-07 2.97646e-09 1.66563e-33 2.98727e-11 1.76696e-35 3.19299e-59)
(1.99601e-07 -2.10134e-09 2.64948e-39 2.42287e-11 -4.23556e-41 1.36328e-70)
(7.00642e-09 1.56971e-10 1.34033e-39 2.22752e-11 6.61514e-41 3.4027e-70)
(9.76953e-09 3.81465e-10 -1.37629e-34 3.93143e-11 1.78475e-35 2.54273e-59)
(2.94307e-07 2.27292e-09 0 1.77066e-11 0 0)
(2.13349e-07 -1.73335e-09 0 1.57618e-11 0 0)
(1.2467e-08 2.93993e-10 0 1.51286e-11 0 0)
(8.77673e-09 7.27977e-11 0 2.88706e-11 0 0)
(3.32123e-07 2.11001e-09 -1.42101e-33 1.35497e-11 -9.95127e-36 2.34633e-59)
(2.32416e-07 -1.42801e-09 -2.092e-33 9.83638e-12 2.1177e-35 8.43146e-59)
(2.54838e-08 4.37346e-10 1.97309e-39 9.64724e-12 3.08466e-41 1.63096e-70)
(1.2611e-08 -1.64301e-10 -4.06263e-34 2.51932e-11 1.04172e-35 1.47072e-59)
(3.55807e-07 1.79194e-09 1.20051e-33 9.13954e-12 6.48523e-36 1.65545e-59)
(3.07018e-07 -1.13272e-09 2.88823e-33 5.21642e-12 -2.06973e-35 1.24571e-58)
(6.2777e-08 7.62089e-10 -3.73437e-39 9.93538e-12 -4.10276e-41 2.61063e-70)
(4.71341e-08 -7.80594e-10 3.43784e-39 2.25722e-11 -4.15695e-41 2.795e-70)
(5.68875e-07 4.08789e-09 2.70502e-40 2.97496e-11 2.28706e-42 6.87211e-73)
(3.27915e-07 -3.07152e-09 -2.32899e-33 3.13346e-11 3.44701e-35 7.92377e-59)
(1.50721e-07 -6.47319e-11 6.84515e-34 5.55951e-13 5.40064e-37 4.44272e-60)
(5.9271e-08 -7.63045e-10 -2.76706e-34 1.65331e-11 2.40433e-36 1.53578e-60)
(4.99977e-07 1.96524e-09 9.44777e-34 7.95989e-12 4.1295e-36 7.23594e-60)
(8.33455e-07 6.06727e-09 -1.36874e-34 4.43244e-11 -1.05924e-36 6.36993e-62)
(2.91221e-07 6.10379e-09 0 1.31848e-10 0 0)
(4.88773e-07 -7.80475e-09 -3.20707e-33 1.32218e-10 4.06776e-35 3.56748e-59)
(2.38282e-06 3.64129e-08 5.36607e-33 5.59505e-10 8.99581e-35 3.71546e-59)
(5.81464e-07 -2.22457e-08 0 8.92718e-10 0 0)
(7.73563e-07 -2.27295e-08 0 7.02038e-10 0 0)
(4.04474e-08 -4.22175e-10 0 2.6782e-11 0 0)
(1.0111e-06 1.63124e-09 0 3.2619e-12 0 0)
(1.02432e-05 2.57404e-07 6.61358e-32 6.47309e-09 1.71683e-33 1.08777e-57)
(1.0937e-05 -1.01629e-07 2.08147e-31 1.92305e-09 -4.10723e-33 1.06419e-56)
(8.37741e-05 1.12382e-05 -4.44474e-36 1.53993e-06 -6.79073e-37 5.31031e-67)
(5.23509e-05 6.00712e-06 -2.96391e-27 1.23005e-06 -1.25047e-28 3.2818e-49)
(6.31995e-07 1.45929e-07 1.23464e-27 2.57528e-07 3.02787e-28 2.95099e-48)
(3.61635e-05 8.67785e-06 6.74805e-27 2.29482e-06 1.23457e-27 2.80127e-48)
(0.000153305 5.09525e-05 7.94943e-27 1.69697e-05 2.74493e-27 9.43674e-49)
(0.000154943 2.93677e-05 -3.87188e-27 5.59918e-06 -6.78929e-28 2.24757e-49)
(4.91335e-05 1.44576e-05 0 4.25541e-06 0 0)
(3.78549e-06 9.46115e-08 0 6.14645e-09 0 0)
(3.95371e-05 9.56561e-06 9.56256e-32 2.31471e-06 2.27555e-32 6.40102e-58)
(4.73671e-05 1.85674e-05 -2.28091e-28 7.27914e-06 -8.94353e-29 2.43112e-51)
(3.18904e-05 5.23067e-06 -3.15796e-27 8.71041e-07 -4.87458e-28 6.25647e-49)
(6.97564e-06 1.68255e-06 1.18257e-27 4.1773e-07 3.27042e-28 7.25399e-49)
(1.1109e-06 5.31507e-07 -2.95287e-31 3.45263e-07 -9.86302e-32 1.18932e-55)
(9.77458e-07 5.09617e-07 -2.95829e-28 3.28182e-07 -3.0107e-28 6.61036e-49)
(2.52093e-06 -7.16937e-07 1.45684e-28 2.19821e-07 -5.94853e-29 3.41809e-50)
(4.04084e-06 2.48677e-06 2.29295e-31 1.54434e-06 1.63559e-31 5.05009e-56)
(9.59035e-07 -2.95601e-09 1.87914e-30 2.50714e-08 -1.08476e-30 5.12809e-53)
(3.12794e-06 6.23483e-07 5.24147e-32 1.26162e-07 1.14121e-32 1.37945e-57)
(2.10161e-06 7.60383e-07 7.52196e-31 2.75512e-07 2.65156e-31 3.94772e-55)
(4.58272e-07 1.03754e-07 -2.56408e-34 2.66176e-08 9.28723e-34 3.28219e-58)
(2.51219e-06 -1.4214e-07 0 8.13603e-09 0 0)
(2.34738e-07 5.04523e-08 0 2.38386e-08 0 0)
(1.37019e-05 6.43421e-07 -1.45774e-33 3.05314e-08 -7.58228e-35 4.52306e-61)
(9.60224e-06 1.71028e-07 -1.25037e-33 3.05055e-09 -2.3171e-35 4.67986e-61)
(7.5879e-06 1.26355e-07 2.48577e-33 2.12243e-09 4.56176e-35 2.42742e-60)
(7.66056e-06 1.9296e-07 2.50824e-33 4.9215e-09 7.06378e-35 2.43907e-60)
(1.17081e-05 2.72364e-07 0 6.39589e-09 0 0)
(1.10401e-05 4.10606e-08 0 1.52953e-10 0 0)
(6.41897e-06 3.94776e-08 0 2.44491e-10 0 0)
(7.35489e-06 1.24125e-07 0 2.11914e-09 0 0)
(1.10666e-05 1.51807e-07 5.33113e-33 2.10193e-09 8.0403e-35 7.28619e-60)
(9.68757e-06 -7.59496e-09 5.42181e-39 6.22452e-12 -3.6339e-42 8.62695e-72)
(3.67648e-06 3.24151e-08 -3.29531e-33 2.87114e-10 -3.13414e-35 8.48504e-60)
(7.32794e-06 4.40776e-08 0 2.68619e-10 0 0)
(7.424e-06 7.68282e-08 -9.40803e-33 8.04971e-10 -1.09166e-34 3.45671e-59)
(9.91546e-06 5.81694e-08 -3.50489e-38 3.46207e-10 -2.34046e-40 3.45745e-70)
(5.12381e-06 -1.47559e-09 1.49306e-32 6.62126e-13 -1.1857e-36 1.2246e-58)
(6.57669e-06 4.24124e-08 2.07587e-38 2.77236e-10 1.52256e-40 1.88193e-70)
(6.92896e-06 5.12222e-08 -8.86177e-33 3.83536e-10 -7.40965e-35 3.26034e-59)
(9.34064e-06 6.20026e-08 9.66937e-33 4.17437e-10 7.28634e-35 2.80118e-59)
(7.44951e-06 6.44601e-09 8.69137e-33 6.14137e-12 1.06295e-35 2.83153e-59)
(6.12351e-06 2.21347e-08 -8.25196e-33 8.11973e-11 -3.46289e-35 3.18501e-59)
(6.53109e-06 5.12313e-08 -8.34503e-33 4.07105e-10 -7.37365e-35 3.01895e-59)
(9.10746e-06 5.39978e-08 0 3.24694e-10 0 0)
(7.78773e-06 1.11429e-08 0 1.66015e-11 0 0)
(5.76419e-06 1.95285e-08 -7.62246e-33 6.70302e-11 -2.96974e-35 2.83902e-59)
(6.11787e-06 4.68192e-08 -7.6295e-33 3.62076e-10 -6.47135e-35 2.65231e-59)
(8.93592e-06 5.2992e-08 0 3.17779e-10 0 0)
(7.92211e-06 1.62026e-08 -7.80202e-33 3.38137e-11 -1.89083e-35 2.08997e-59)
(5.23934e-06 2.06622e-08 -1.15305e-38 8.22398e-11 -5.08983e-41 7.03831e-71)
(5.68815e-06 4.7826e-08 6.57642e-33 4.05323e-10 6.01589e-35 2.10196e-59)
(8.91011e-06 5.47493e-08 1.43771e-32 3.39376e-10 9.71001e-35 6.26263e-59)
(7.91269e-06 2.31975e-08 1.31297e-32 6.89812e-11 4.42905e-35 5.86921e-59)
(4.78331e-06 2.61472e-08 -1.07126e-32 1.44158e-10 -6.48262e-35 6.60626e-59)
(5.01864e-06 5.07595e-08 -1.00893e-32 5.1738e-10 -1.10682e-34 5.52101e-59)
(9.05695e-06 6.76457e-08 -1.06245e-32 5.08649e-10 -8.6059e-35 3.31282e-59)
(8.31222e-06 3.27298e-08 -2.88873e-38 1.30017e-10 -1.26655e-40 2.62904e-70)
(3.73557e-06 2.50936e-08 6.64895e-33 1.6981e-10 4.86945e-35 3.22443e-59)
(4.56992e-06 7.52352e-08 0 1.24582e-09 0 0)
(9.44886e-06 6.69306e-08 3.92243e-33 4.76625e-10 2.98578e-35 4.43073e-60)
(7.94844e-06 5.46444e-08 2.08459e-33 3.77298e-10 1.53703e-35 1.53345e-60)
(3.50019e-06 4.66402e-08 0 6.2531e-10 0 0)
(2.85159e-06 5.07373e-08 0 9.10005e-10 0 0)
(9.77388e-06 1.55623e-07 0 2.48605e-09 0 0)
(1.00966e-05 6.95213e-08 1.19539e-32 4.79877e-10 8.72471e-35 3.55626e-59)
(8.01126e-07 1.26265e-08 3.27614e-33 2.01238e-10 5.5898e-35 3.70305e-59)
(2.89989e-06 1.66778e-07 0 9.67632e-09 0 0)
(1.09317e-05 8.37193e-08 0 6.42479e-10 0 0)
(6.14975e-06 1.32563e-07 3.29011e-32 2.86298e-09 7.25601e-34 4.3533e-58)
(1.48648e-06 9.30627e-08 1.80166e-32 5.9304e-09 1.21051e-33 6.2112e-58)
(9.81441e-07 1.41629e-08 0 2.04921e-10 0 0)
(1.14455e-06 -1.45542e-07 0 1.91566e-08 0 0)
(0.000122958 1.73458e-05 0 2.4974e-06 0 0)
(8.59814e-05 -1.38473e-05 4.70681e-31 2.31001e-06 -8.8964e-32 5.46142e-57)
(8.73944e-06 -3.51851e-06 1.59838e-31 1.41872e-06 -6.47695e-32 5.76434e-57)
(7.17416e-05 -4.79606e-06 9.9049e-27 4.28085e-07 -1.02259e-27 3.25348e-48)
(0.000102045 5.57094e-05 7.40366e-27 3.04217e-05 4.11294e-27 1.17761e-48)
(0.000233997 2.58149e-05 -2.48358e-27 2.89908e-06 -2.35995e-28 6.47656e-50)
(7.76283e-05 1.96856e-05 6.03536e-28 4.99398e-06 1.55611e-28 1.12604e-50)
(1.24183e-05 -6.39028e-07 1.40663e-31 3.57108e-08 -5.48508e-33 3.41985e-57)
(2.02124e-05 5.89379e-06 -1.41003e-35 1.7191e-06 -4.20058e-36 2.67149e-65)
(7.41322e-05 2.8089e-05 -3.42727e-28 1.06476e-05 -1.31427e-28 3.70841e-51)
(5.98764e-05 4.71358e-06 -4.35479e-27 3.74251e-07 -3.33303e-28 6.9329e-49)
(1.92798e-07 2.89186e-07 6.59909e-29 5.56808e-07 4.0833e-28 8.06199e-49)
(1.11985e-05 8.52142e-07 -2.0951e-27 7.17158e-08 -1.26418e-28 8.86808e-49)
(2.42935e-06 -1.14791e-06 0 5.63793e-07 0 0)
(1.08163e-06 1.65434e-07 0 2.64713e-08 0 0)
(3.58302e-07 -2.88046e-07 -5.58674e-29 3.0399e-07 3.78208e-29 1.36757e-50)
(1.82241e-06 9.52551e-07 -2.23632e-29 4.9979e-07 -1.13436e-29 4.9501e-52)
(1.74366e-05 4.00274e-06 0 9.19335e-07 0 0)
(1.60949e-05 4.86661e-06 4.07519e-30 1.47152e-06 1.23424e-30 2.05693e-54)
(4.51398e-06 1.47729e-06 0 4.83507e-07 0 0)
(2.06497e-05 5.73591e-07 6.21132e-34 1.59382e-08 1.69105e-35 4.76938e-62)
(2.51948e-05 2.03189e-07 3.72404e-33 1.70205e-09 2.43435e-35 1.41762e-60)
(3.78262e-06 3.54881e-08 -7.54204e-34 3.68251e-10 -4.34719e-36 4.5283e-61)
(1.03646e-05 2.68545e-07 -2.52828e-33 6.99735e-09 -7.0397e-35 1.87364e-60)
(1.29474e-05 1.94096e-07 0 2.91168e-09 0 0)
(1.34806e-05 5.9823e-08 6.70559e-33 2.75921e-10 2.28554e-35 9.74327e-60)
(9.1649e-06 -1.52489e-09 9.48622e-33 2.21073e-11 -1.89841e-35 3.01596e-59)
(9.16104e-06 1.49794e-07 4.67021e-33 2.46674e-09 8.28371e-35 7.34828e-60)
(1.17999e-05 1.09824e-07 -6.10189e-33 1.02427e-09 -5.87919e-35 9.25995e-60)
(1.2458e-05 7.49731e-09 -1.9679e-38 1.28868e-11 6.85517e-42 8.95252e-71)
(8.54214e-06 -1.55309e-08 4.49322e-33 3.9491e-11 -1.44288e-35 7.27902e-60)
(9.03855e-06 1.12082e-07 0 1.40172e-09 0 0)
(4.85213e-06 2.42875e-08 0 1.21719e-10 0 0)
(1.11403e-05 4.26222e-08 0 1.63966e-10 0 0)
(1.04716e-05 -1.17532e-08 1.10293e-32 1.84993e-11 -2.20889e-35 3.45246e-59)
(7.823e-06 1.96824e-08 8.66656e-33 5.0555e-11 1.73355e-35 2.95904e-59)
(4.54348e-06 4.63199e-08 0 4.75443e-10 0 0)
(1.07679e-05 2.34414e-08 0 5.21687e-11 0 0)
(9.95503e-06 5.05245e-10 1.03988e-32 3.25361e-12 -7.35566e-36 3.25605e-59)
(7.39059e-06 2.232e-09 8.11982e-33 4.06643e-12 -5.19582e-36 2.79764e-59)
(6.51905e-06 4.50158e-08 7.66741e-33 3.12056e-10 5.4194e-35 2.82845e-59)
(1.01901e-05 3.53986e-08 1.03802e-32 1.23453e-10 3.34729e-35 3.18132e-59)
(9.51633e-06 -4.09159e-09 0 5.21136e-12 0 0)
(6.81713e-06 2.61205e-09 0 4.22911e-12 0 0)
(6.59499e-06 3.95355e-08 0 2.37751e-10 0 0)