/*--------------------------------*- C++ -*----------------------------------*\
| =========                 |                                                 |
| \\      /  F ield         | OpenFOAM: The Open Source CFD Toolbox           |
|  \\    /   O peration     | Version:  v2012                                 |
|   \\  /    A nd           | Website:  www.openfoam.com                      |
|    \\/     M anipulation  |                                                 |
\*---------------------------------------------------------------------------*/
FoamFile
{
    version     2.0;
    format      ascii;
    class       volScalarField;
    location    "1e-06";
    object      yPlus;
}
// * * * * * * * * * * * * * * * * * * * * * * * * * * * * * * * * * * * * * //

dimensions      [0 0 0 0 0 0 0];


internalField   uniform 0;

boundaryField
{
    inlet
    {
        type            calculated;
        value           uniform 0;
    }
    outlet
    {
        type            calculated;
        value           nonuniform List<scalar> 0();
    }
    front
    {
        type            empty;
    }
    back
    {
        type            empty;
    }
    hub
    {
        type            calculated;
        value           nonuniform List<scalar> 
72
(
7.60857
7.0344
6.88189
6.52827
6.31716
6.10982
6.04332
5.97627
5.9172
5.8009
5.73791
5.72483
5.69595
5.63202
5.54602
5.57212
5.56774
5.51533
5.43743
5.45515
5.47268
5.4218
5.34783
5.35627
5.37735
5.33716
5.26286
5.2616
5.28303
5.2494
5.17184
5.16031
5.1776
5.14855
5.06222
5.03902
5.05143
5.01621
4.92003
4.88235
4.87466
4.84039
4.71001
4.65069
4.63172
4.54068
4.3864
4.28271
4.15602
4.06878
3.69545
3.43744
3.01297
2.48987
2.94225
3.43513
3.62868
4.08839
4.50543
4.49175
4.58019
4.55476
4.45764
4.65739
4.8908
4.91224
5.0324
5.10185
5.34018
5.33745
5.34267
5.37158
)
;
    }
    tip
    {
        type            calculated;
        value           nonuniform List<scalar> 
62
(
90.9809
90.0946
89.6484
87.6572
85.6686
83.9487
83.5401
82.0284
80.4606
79.5574
79.2404
78.2718
76.7138
76.6917
76.0182
75.8452
74.6126
74.7612
74.3028
74.183
73.4921
73.4428
73.1563
73.0733
72.6382
72.5723
72.4223
72.3783
72.108
72.0721
72.044
72.0418
71.8999
71.9015
71.9952
72.0334
71.9991
72.0449
72.2494
72.3268
72.3883
72.476
72.7913
72.9077
73.0557
73.1867
73.6011
73.7536
73.9783
74.1544
74.6549
74.8431
75.123
75.2401
75.4771
75.3147
75.267
75.1883
75.365
75.2475
75.1871
75.1708
)
;
    }
    procBoundary4to3
    {
        type            processor;
        value           uniform 0;
    }
}


// ************************************************************************* //
