# Probe 0 (-0.15 0.025 0)
#       Probe             0
#        Time
