/*--------------------------------*- C++ -*----------------------------------*\
| =========                 |                                                 |
| \\      /  F ield         | OpenFOAM: The Open Source CFD Toolbox           |
|  \\    /   O peration     | Version:  v2012                                 |
|   \\  /    A nd           | Website:  www.openfoam.com                      |
|    \\/     M anipulation  |                                                 |
\*---------------------------------------------------------------------------*/
FoamFile
{
    version     2.0;
    format      ascii;
    class       volScalarField;
    location    "1e-06";
    object      k;
}
// * * * * * * * * * * * * * * * * * * * * * * * * * * * * * * * * * * * * * //

dimensions      [0 2 -2 0 0 0 0];


internalField   nonuniform List<scalar> 
10098
(
3.03693
3.02132
2.98225
2.95434
2.91759
2.89763
2.81835
2.74588
2.68131
2.66075
2.57176
2.4901
3.05351
3.0421
3.01933
2.98612
2.93869
2.91798
2.85424
2.78185
2.70452
2.67817
2.59965
2.52363
3.17047
3.15661
3.12196
3.10186
3.07208
3.05338
2.97457
2.90112
2.83701
2.81637
2.72067
2.62922
3.329
3.29784
3.27089
3.24816
3.23837
3.22071
3.21228
3.20575
3.19986
3.1943
3.19582
3.19121
3.18251
3.17292
3.15775
3.13047
3.08858
3.06917
3.00856
2.93677
2.85665
2.82966
2.74624
2.66588
3.34365
3.32172
3.29882
3.26258
3.24934
3.2397
3.23781
3.22152
3.20877
3.21106
3.22115
3.21181
3.19347
3.18953
3.18766
3.16037
3.10422
3.08628
3.0403
2.97567
2.87606
2.84472
2.77233
2.70367
3.4524
3.41517
3.38251
3.35461
3.34418
3.32387
3.31432
3.3063
3.30135
3.2978
3.30375
3.303
3.30102
3.29387
3.28804
3.26905
3.2346
3.21732
3.16265
3.09364
3.01173
2.98427
2.8971
2.81241
3.46943
3.43936
3.40905
3.37002
3.35683
3.34275
3.33651
3.32226
3.31156
3.31461
3.32538
3.32327
3.31369
3.31147
3.31603
3.29888
3.25317
3.23707
3.19596
3.13342
3.03514
3.00317
2.92671
2.85068
3.57283
3.52781
3.48781
3.4537
3.44281
3.41801
3.40497
3.39517
3.39135
3.3889
3.39774
3.40173
3.40737
3.40299
3.40691
3.39881
3.37555
3.36098
3.31503
3.2515
3.17098
3.14335
3.05391
2.96465
3.60539
3.58899
3.55016
3.51152
3.46754
3.45415
3.43441
3.42289
3.40843
3.39972
3.40267
3.41423
3.41836
3.41794
3.41784
3.43037
3.42516
3.39258
3.37928
3.34674
3.28978
3.19444
3.16235
3.0842
3.00336
3.76464
3.70291
3.68497
3.63143
3.58257
3.54057
3.52884
3.49828
3.47988
3.46642
3.46325
3.46083
3.47169
3.48005
3.49325
3.49217
3.50692
3.51163
3.50206
3.49138
3.4587
3.40448
3.32859
3.30153
3.21329
3.12174
3.86179
3.79218
3.71783
3.69994
3.65159
3.60335
3.55234
3.53859
3.51161
3.49335
3.47629
3.46946
3.47074
3.48219
3.49192
3.50109
3.50337
3.52505
3.53314
3.51669
3.50733
3.48765
3.44077
3.35168
3.32031
3.24414
3.16195
4.03267
3.95567
3.87724
3.80572
3.78604
3.72322
3.66389
3.61214
3.59912
3.5611
3.53539
3.51588
3.51284
3.50851
3.51981
3.53162
3.55231
3.55508
3.58186
3.60074
3.60707
3.60158
3.58699
3.54726
3.48078
3.45549
3.37293
3.28235
3.18712
4.5814
4.56719
4.50817
4.42829
4.3403
4.3216
4.25165
4.16541
4.07202
4.05114
3.98085
3.9022
3.81863
3.79921
3.74053
3.68124
3.6212
3.60683
3.57059
3.54327
3.5215
3.51648
3.51359
3.52261
3.53726
3.55661
3.56133
3.5925
3.61573
3.61809
3.61378
3.61114
3.58009
3.5022
3.47295
3.40306
3.32385
3.21444
3.11474
3.09613
3.02826
2.94862
2.87172
2.85475
4.65517
4.63951
4.58693
4.51228
4.43986
4.41773
4.34204
4.25467
4.17064
4.14681
4.06377
3.97662
3.89543
3.87446
3.80066
3.72922
3.66615
3.65187
3.6034
3.56735
3.53969
3.53654
3.52736
3.53605
3.54959
3.57744
3.58417
3.62319
3.65826
3.68384
3.68471
3.692
3.67327
3.62309
3.60157
3.52931
3.44249
3.34681
3.2564
3.22676
3.14053
3.06133
2.99209
2.97061
4.67577
4.6672
4.62184
4.56443
4.50344
4.48331
4.40428
4.32342
4.24411
4.22069
4.12719
4.03664
3.95273
3.93154
3.84406
3.76215
3.69116
3.67608
3.6166
3.56845
3.53336
3.52806
3.51457
3.51678
3.53146
3.56138
3.57271
3.62073
3.67038
3.71507
3.72274
3.74563
3.74665
3.72379
3.71185
3.64244
3.55389
3.47366
3.39196
3.3548
3.25064
3.17566
3.11188
3.08779
4.67567
4.6683
4.63644
4.57422
4.51123
4.4932
4.42514
4.33967
4.25462
4.23192
4.14655
4.05238
3.96148
3.93927
3.85539
3.77115
3.69445
3.67843
3.61801
3.56932
3.52965
3.52585
3.50904
3.5118
3.52351
3.55629
3.56707
3.61817
3.66983
3.71629
3.72487
3.75871
3.76759
3.73946
3.72335
3.66847
3.59152
3.49937
3.40797
3.37886
3.28871
3.20401
3.12793
3.10517
4.61287
4.62787
4.62532
4.6308
4.61614
4.57561
4.52552
4.5128
4.45012
4.37342
4.29308
4.27211
4.18307
4.08705
3.99229
3.96976
3.87612
3.78187
3.69431
3.67604
3.60563
3.54338
3.49233
3.48375
3.46243
3.45711
3.46514
3.4941
3.51082
3.57224
3.63668
3.69953
3.71599
3.77289
3.80631
3.80676
3.80073
3.7583
3.69056
3.61309
3.53297
3.49824
3.39852
3.31591
3.24484
3.21964
4.496
4.51846
4.58538
4.60246
4.61304
4.61558
4.61135
4.57044
4.52467
4.51227
4.45671
4.3785
4.29732
4.27675
4.19205
4.09395
3.99595
3.97305
3.87987
3.78312
3.69229
3.67461
3.59994
3.53579
3.48126
3.47724
3.44879
3.44179
3.44645
3.48204
3.49576
3.55579
3.62237
3.69212
3.70966
3.77261
3.81427
3.81575
3.80793
3.7779
3.71927
3.63632
3.5483
3.52147
3.4316
3.3436
3.26132
3.2378
3.99281
4.12011
4.21961
4.27284
4.37362
4.43655
4.47154
4.49364
4.51672
4.50442
4.47362
4.47046
4.42905
4.36357
4.28794
4.27091
4.18901
4.09146
3.98936
3.96649
3.86775
3.76184
3.65831
3.63702
3.55343
3.47325
3.40365
3.39157
3.35798
3.33919
3.33602
3.35965
3.38116
3.45011
3.52837
3.61072
3.63742
3.73119
3.80311
3.83664
3.83967
3.83397
3.7962
3.73042
3.65793
3.62785
3.53711
3.45056
3.3743
3.34864
3.73786
3.90588
4.04094
4.17271
4.20623
4.31699
4.38645
4.44401
4.45797
4.48845
4.47992
4.46094
4.45566
4.4178
4.3536
4.28297
4.26586
4.18464
4.08629
3.98537
3.96306
3.86137
3.75297
3.64885
3.63035
3.53877
3.45515
3.38297
3.37949
3.33385
3.31094
3.30352
3.33865
3.3536
3.41654
3.49573
3.59165
3.61917
3.71295
3.79339
3.83544
3.83964
3.84314
3.81335
3.74841
3.67086
3.64803
3.56417
3.47626
3.39011
3.36661
3.07091
3.27082
3.46087
3.64095
3.78745
3.85473
4.00054
4.11914
4.20081
4.23921
4.30495
4.3324
4.3312
4.33872
4.32277
4.27647
4.2131
4.20153
4.12998
4.03561
3.93106
3.90885
3.8061
3.69005
3.57262
3.54896
3.44987
3.34808
3.25757
3.24195
3.18966
3.14986
3.1311
3.14415
3.16805
3.23544
3.32563
3.42913
3.46716
3.5978
3.71549
3.79349
3.80963
3.85073
3.85418
3.81158
3.7555
3.7327
3.65724
3.57235
3.4945
3.46944
2.99054
3.15694
3.34955
3.53895
3.72639
3.76539
3.91368
4.04281
4.15729
4.18085
4.24802
4.28403
4.30467
4.30672
4.28935
4.24713
4.19651
4.18418
4.10886
4.01481
3.91722
3.89685
3.7869
3.66765
3.55391
3.53583
3.42444
3.31626
3.22569
3.22366
3.1535
3.10421
3.0823
3.11317
3.12589
3.17982
3.26945
3.39605
3.43389
3.5571
3.68165
3.77851
3.7993
3.8454
3.85554
3.82134
3.76447
3.74747
3.6774
3.59474
3.50871
3.4863
2.40757
2.62268
2.8395
3.06208
3.25175
3.32687
3.51379
3.68476
3.81543
3.86693
3.97753
4.05081
4.08816
4.10714
4.12222
4.10146
4.05774
4.05268
3.9955
3.90989
3.80871
3.78841
3.6836
3.56066
3.43243
3.40736
3.29177
3.16731
3.05433
3.03535
2.95766
2.88927
2.85101
2.84831
2.86984
2.9238
3.02105
3.14535
3.19427
3.35811
3.52683
3.65876
3.69235
3.78859
3.84705
3.83988
3.81162
3.79898
3.74727
3.67188
3.59808
3.57512
2.31627
2.49217
2.6948
2.93782
3.18109
3.21692
3.38957
3.5812
3.75852
3.78648
3.88441
3.97459
4.0474
4.05635
4.06027
4.04826
4.02841
4.02152
3.95282
3.86863
3.784
3.76707
3.64893
3.52046
3.40412
3.38807
3.25496
3.11843
3.01224
3.01237
2.91106
2.82345
2.78689
2.80966
2.81529
2.84282
2.93867
3.09914
3.14579
3.29073
3.45971
3.62739
3.66911
3.76394
3.82329
3.83752
3.81483
3.80518
3.75781
3.68869
3.60931
3.58933
1.71416
1.92802
2.16419
2.41021
2.63449
2.71341
2.94357
3.14962
3.32683
3.38839
3.54897
3.66173
3.74263
3.77276
3.82765
3.83544
3.81719
3.81929
3.78127
3.7102
3.61834
3.60157
3.49883
3.37538
3.23965
3.2148
3.08479
2.94432
2.80682
2.78532
2.67934
2.5823
2.51729
2.49474
2.50858
2.53897
2.63082
2.7688
2.82505
3.01273
3.22963
3.41865
3.47272
3.62852
3.75676
3.79581
3.80991
3.81015
3.79279
3.73716
3.67578
3.65719
1.16239
1.39786
1.64389
1.86458
2.06527
2.1797
2.4427
2.65788
2.83442
2.92867
3.13647
3.27311
3.36272
3.41657
3.5192
3.55094
3.53837
3.55258
3.54942
3.4909
3.39683
3.38278
3.30337
3.18284
3.03502
3.0033
2.88486
2.73931
2.57653
2.53538
2.43061
2.32945
2.22811
2.16144
2.18262
2.21983
2.28501
2.39497
2.45287
2.68483
2.92191
3.13571
3.19306
3.42125
3.59486
3.69011
3.74247
3.76166
3.77647
3.75103
3.70931
3.69619
1.09547
1.27688
1.49799
1.73894
1.97813
2.0537
2.30342
2.53573
2.75248
2.81997
3.01949
3.16993
3.29525
3.33504
3.42889
3.47162
3.48632
3.49611
3.48022
3.42826
3.35327
3.34191
3.2466
3.12871
2.99305
2.97085
2.83213
2.68266
2.5267
2.50502
2.37456
2.25673
2.15982
2.11709
2.12036
2.12285
2.19306
2.33164
2.38952
2.58478
2.8326
3.07413
3.14898
3.36011
3.55218
3.65976
3.72992
3.74557
3.77268
3.75073
3.71222
3.70037
0.232828
0.233123
0.233403
0.233515
0.233787
0.23404
0.234119
0.234378
0.234593
0.234777
0.234886
0.235066
0.235226
0.235291
0.235452
0.235568
0.23564
0.23573
0.235791
0.235839
0.235874
0.235925
0.235929
0.235913
0.235985
0.235962
0.235964
0.235982
0.236021
0.236011
0.236059
0.236157
0.236234
0.23645
0.236696
0.236971
0.237412
0.238272
0.238578
0.239734
0.241238
0.243278
0.244114
0.246516
0.249928
0.253389
0.255171
0.259002
0.264317
0.265668
0.271104
0.275394
0.280583
0.282368
0.286112
0.288394
0.290053
0.291838
0.290962
0.289539
0.286763
0.288186
0.283536
0.28
0.275488
0.276591
0.271718
0.269258
0.266456
0.267746
0.265344
0.265423
0.265321
0.266657
0.266607
0.26965
0.270178
0.275254
0.279841
0.291374
0.294285
0.314374
0.339879
0.385805
0.398207
0.466214
0.549201
0.671672
0.705
0.861614
1.03597
1.24768
1.44502
1.53655
1.76906
2.01472
2.22171
2.31315
2.52659
2.71128
2.84542
2.90625
3.02978
3.10718
3.1357
3.15853
3.17191
3.13858
3.07117
3.06313
2.99108
2.87927
2.74533
2.71729
2.59295
2.43566
2.2732
2.23436
2.10897
1.9749
1.86342
1.78501
1.79456
1.78534
1.83437
1.94326
1.99913
2.21099
2.46319
2.72645
2.80127
3.07286
3.30577
3.47553
3.58761
3.62637
3.69604
3.71323
3.69998
3.69581
0.232241
0.232536
0.23282
0.23294
0.233194
0.233442
0.233578
0.233781
0.233999
0.234213
0.234297
0.234476
0.234637
0.234741
0.23486
0.234979
0.235102
0.235144
0.235206
0.235254
0.235321
0.235316
0.235309
0.235333
0.235345
0.235299
0.235273
0.235346
0.235265
0.235219
0.23526
0.235302
0.235279
0.235395
0.235703
0.235734
0.236045
0.236722
0.23707
0.237765
0.238968
0.240805
0.241363
0.243162
0.245958
0.249469
0.250213
0.253387
0.257883
0.25989
0.26313
0.266908
0.271747
0.273615
0.275436
0.277682
0.280317
0.281193
0.279583
0.278806
0.278274
0.277994
0.27381
0.271298
0.269317
0.268517
0.264493
0.26279
0.261919
0.261348
0.259419
0.259728
0.260917
0.260388
0.260354
0.263057
0.264981
0.267062
0.270795
0.280691
0.285823
0.298934
0.320414
0.360331
0.378395
0.428673
0.502219
0.613404
0.662065
0.786152
0.948477
1.14957
1.37067
1.42905
1.65295
1.89482
2.13708
2.20024
2.40795
2.59512
2.76616
2.81013
2.92649
3.00883
3.06879
3.08655
3.08873
3.0592
3.01357
3.00998
2.92211
2.81292
2.69226
2.67717
2.53281
2.37484
2.21698
2.20066
2.05033
1.90901
1.79511
1.73991
1.7327
1.70417
1.74749
1.87885
1.93228
2.11394
2.36691
2.65248
2.74436
2.99455
3.23766
3.42527
3.56399
3.59294
3.66967
3.6964
3.69443
3.69116
0.229277
0.229538
0.229849
0.229959
0.230187
0.230466
0.230575
0.230791
0.23101
0.23124
0.231329
0.23149
0.231704
0.231788
0.231927
0.23208
0.232213
0.232281
0.232347
0.232442
0.232486
0.232496
0.232485
0.23246
0.232477
0.232361
0.232296
0.232294
0.232153
0.23197
0.231845
0.231829
0.231567
0.23144
0.231319
0.231299
0.231068
0.231183
0.231245
0.231208
0.231382
0.231957
0.232149
0.232379
0.233499
0.234686
0.235053
0.235639
0.23789
0.238572
0.239861
0.240835
0.243459
0.244194
0.24478
0.245733
0.247378
0.247936
0.246991
0.247438
0.247634
0.247919
0.245977
0.2461
0.245596
0.245727
0.243961
0.244214
0.243911
0.244048
0.242998
0.2437
0.243931
0.24403
0.243427
0.244765
0.245142
0.246032
0.24641
0.250715
0.252085
0.257728
0.264487
0.284272
0.290617
0.317027
0.34924
0.419862
0.442301
0.526818
0.623201
0.785456
0.942699
1.0032
1.17612
1.41176
1.61703
1.69535
1.89483
2.10473
2.26774
2.3299
2.46838
2.58262
2.64939
2.67986
2.7146
2.7088
2.6687
2.66762
2.60797
2.51367
2.39675
2.37475
2.25176
2.09557
1.93727
1.903
1.76545
1.61438
1.49662
1.41224
1.41163
1.37207
1.40337
1.50089
1.55049
1.73244
1.98228
2.26958
2.35619
2.64985
2.93135
3.16969
3.34488
3.40063
3.52948
3.5991
3.62581
3.63295
0.228669
0.228915
0.22924
0.22936
0.229558
0.229824
0.230008
0.230157
0.230361
0.230649
0.23071
0.230848
0.231066
0.231211
0.231287
0.231426
0.231649
0.231665
0.231711
0.23183
0.231937
0.231882
0.231867
0.231926
0.231902
0.231766
0.231702
0.231786
0.231557
0.231363
0.23127
0.231249
0.230963
0.230778
0.230735
0.230613
0.230394
0.23039
0.230505
0.230358
0.230444
0.230909
0.231024
0.23129
0.232017
0.23323
0.2333
0.234129
0.235632
0.236485
0.237358
0.238557
0.240463
0.241229
0.24178
0.242697
0.244156
0.244517
0.244155
0.244312
0.244893
0.244809
0.243824
0.243546
0.243642
0.243368
0.242482
0.242338
0.242546
0.242291
0.241888
0.242127
0.242669
0.242429
0.242368
0.243039
0.243717
0.244046
0.244985
0.247876
0.249646
0.253712
0.261051
0.276017
0.283432
0.304103
0.336523
0.393058
0.4202
0.488265
0.581387
0.720138
0.891765
0.924599
1.08652
1.30317
1.54176
1.58826
1.76804
1.97448
2.18358
2.22336
2.33795
2.45574
2.56915
2.59226
2.60187
2.59778
2.59602
2.60164
2.51563
2.4168
2.32955
2.32634
2.1769
2.01134
1.87046
1.86623
1.70083
1.53652
1.42286
1.367
1.35027
1.28998
1.31486
1.4405
1.48576
1.63644
1.87325
2.19093
2.29242
2.5587
2.83093
3.10034
3.31301
3.34962
3.47226
3.56057
3.61043
3.61687
0.225995
0.226274
0.226536
0.226633
0.226879
0.227132
0.227229
0.227442
0.227677
0.227878
0.227962
0.228166
0.228351
0.22843
0.228594
0.228763
0.228898
0.228966
0.229106
0.229199
0.229252
0.229326
0.22936
0.229342
0.229362
0.229324
0.229216
0.229209
0.229087
0.228914
0.228712
0.228674
0.228434
0.228164
0.227913
0.22784
0.227519
0.227285
0.227246
0.22697
0.226763
0.226713
0.226713
0.226535
0.226724
0.226987
0.227041
0.227058
0.227843
0.228115
0.228506
0.228927
0.229998
0.230317
0.230683
0.231381
0.23234
0.232617
0.232707
0.233464
0.234106
0.234304
0.234201
0.234911
0.235325
0.235469
0.235393
0.23599
0.236289
0.2364
0.236392
0.236839
0.237003
0.237124
0.237031
0.237361
0.23749
0.237599
0.23755
0.238712
0.239177
0.240697
0.242677
0.249579
0.252131
0.261624
0.273926
0.305552
0.316898
0.356351
0.404215
0.499898
0.601786
0.63568
0.750281
0.928016
1.09739
1.15493
1.32546
1.51767
1.68333
1.73972
1.88491
2.01233
2.10406
2.13872
2.19593
2.21552
2.1988
2.20471
2.16129
2.09169
1.99092
1.97718
1.86277
1.72585
1.57063
1.54391
1.40453
1.26023
1.13696
1.05494
1.04655
0.996757
1.01309
1.09603
1.13767
1.29087
1.52582
1.80878
1.90026
2.19732
2.51734
2.79778
3.02962
3.09733
3.28545
3.40628
3.48063
3.50033
0.223399
0.223663
0.223892
0.22398
0.224241
0.224464
0.224514
0.224776
0.224992
0.22516
0.225264
0.225471
0.225636
0.225689
0.225898
0.226055
0.226158
0.226263
0.226409
0.226503
0.226544
0.22668
0.226738
0.226718
0.22679
0.226784
0.226699
0.226679
0.226631
0.226483
0.226266
0.226267
0.226076
0.225804
0.225477
0.225494
0.225203
0.224868
0.224803
0.224561
0.224273
0.223997
0.223996
0.223847
0.223716
0.223615
0.223719
0.223796
0.223949
0.223993
0.224365
0.22474
0.225161
0.225326
0.22593
0.226515
0.227074
0.227341
0.228039
0.228701
0.229272
0.229588
0.230267
0.230891
0.231382
0.23169
0.232252
0.232726
0.233052
0.233313
0.233683
0.233952
0.233978
0.234287
0.234429
0.234447
0.234412
0.234527
0.234552
0.23464
0.234631
0.235255
0.236329
0.238475
0.239021
0.243709
0.251299
0.264036
0.267254
0.289867
0.322519
0.369625
0.425569
0.451582
0.538827
0.649037
0.761286
0.81309
0.959561
1.10686
1.23326
1.29224
1.43823
1.55492
1.63227
1.67306
1.75565
1.78518
1.76946
1.77717
1.76784
1.71033
1.61809
1.59933
1.5206
1.39684
1.25305
1.21426
1.10666
0.9814
0.864759
0.775837
0.77767
0.744833
0.749383
0.805514
0.840091
0.991851
1.19921
1.4524
1.52665
1.84338
2.16997
2.4694
2.71646
2.80828
3.03738
3.19926
3.30134
3.33417
0.22289
0.223147
0.223383
0.223477
0.223713
0.223935
0.224036
0.224239
0.224453
0.22465
0.224729
0.224925
0.225095
0.225181
0.225343
0.225502
0.22565
0.225712
0.225852
0.22596
0.226028
0.226122
0.226191
0.226229
0.226255
0.22625
0.226184
0.226202
0.226107
0.22597
0.225803
0.225778
0.225577
0.225317
0.225081
0.225008
0.224719
0.224412
0.224364
0.224069
0.223778
0.223551
0.223509
0.223309
0.223173
0.223148
0.223138
0.223157
0.223318
0.223437
0.22364
0.223975
0.224449
0.224635
0.225084
0.225677
0.226356
0.226575
0.227177
0.227901
0.228636
0.228856
0.229502
0.230204
0.230859
0.231048
0.23161
0.232139
0.232612
0.23274
0.233112
0.233413
0.233567
0.233741
0.233878
0.233923
0.234006
0.233965
0.233936
0.23399
0.234125
0.234379
0.235075
0.236873
0.237796
0.241017
0.246785
0.257884
0.262756
0.279499
0.305454
0.347855
0.403706
0.420037
0.492539
0.595488
0.713425
0.748811
0.875205
1.018
1.16149
1.20446
1.32992
1.44723
1.54935
1.58265
1.64436
1.67895
1.68767
1.69975
1.66736
1.61567
1.54218
1.53906
1.43647
1.31689
1.18574
1.17101
1.0414
0.914394
0.807066
0.74112
0.729244
0.684465
0.692418
0.762036
0.794598
0.918759
1.12137
1.38352
1.47305
1.75634
2.08253
2.39185
2.66829
2.74018
2.9697
3.14154
3.26742
3.29849
0.220377
0.220593
0.22084
0.220926
0.221124
0.221353
0.221441
0.221631
0.221826
0.222028
0.222106
0.222264
0.222457
0.222531
0.222676
0.222833
0.222983
0.22305
0.223157
0.2233
0.223359
0.223448
0.223538
0.223605
0.22365
0.223644
0.223643
0.223655
0.223594
0.223489
0.223374
0.223364
0.223181
0.222993
0.222774
0.222739
0.222469
0.222226
0.222176
0.221914
0.221645
0.221426
0.221391
0.221172
0.221035
0.220946
0.220955
0.220901
0.221014
0.221076
0.221245
0.221494
0.221904
0.22205
0.222477
0.223038
0.22368
0.223897
0.224526
0.225293
0.226027
0.22628
0.226976
0.227746
0.228387
0.228624
0.229201
0.229784
0.230219
0.230407
0.230773
0.23112
0.23121
0.231455
0.231581
0.231653
0.231668
0.231668
0.231548
0.231447
0.231426
0.23138
0.231327
0.231826
0.232041
0.233235
0.235192
0.240156
0.241885
0.249923
0.261132
0.283655
0.311674
0.321983
0.35917
0.425021
0.495868
0.52243
0.60123
0.710171
0.810486
0.848321
0.941517
1.04517
1.12648
1.15871
1.21695
1.25623
1.26848
1.27905
1.26554
1.22302
1.16914
1.16013
1.08919
0.981736
0.88333
0.859856
0.768132
0.659171
0.585325
0.529543
0.526525
0.49289
0.503586
0.555189
0.580325
0.684748
0.850311
1.0806
1.15294
1.42725
1.73369
2.05654
2.33103
2.42323
2.67639
2.88862
3.03692
3.08097
0.219873
0.220081
0.220334
0.220425
0.220603
0.220823
0.220955
0.221101
0.221286
0.22152
0.221575
0.221718
0.221911
0.222021
0.222124
0.222271
0.222473
0.222501
0.222595
0.222743
0.22284
0.222882
0.222963
0.223092
0.2231
0.223081
0.22309
0.223168
0.223045
0.222937
0.222875
0.222861
0.222652
0.222472
0.222345
0.222244
0.221974
0.22176
0.221758
0.221446
0.221182
0.221017
0.220974
0.220737
0.220601
0.220585
0.220534
0.220485
0.220591
0.220704
0.220814
0.221064
0.221481
0.221637
0.222029
0.222577
0.223262
0.223448
0.224062
0.224803
0.225623
0.225808
0.226486
0.227233
0.227991
0.228127
0.228674
0.229253
0.229829
0.229889
0.230224
0.230586
0.230807
0.230929
0.23102
0.231124
0.231273
0.23114
0.23099
0.230908
0.231023
0.230804
0.230697
0.231022
0.231395
0.232123
0.233857
0.237766
0.239848
0.246082
0.256448
0.274685
0.30225
0.308254
0.34284
0.39743
0.469587
0.486193
0.557965
0.651605
0.760654
0.785778
0.866271
0.958286
1.05731
1.08222
1.12198
1.15687
1.19143
1.2066
1.17141
1.12943
1.09464
1.10265
1.01053
0.908031
0.821819
0.822302
0.714325
0.612616
0.543926
0.505435
0.494834
0.462143
0.470958
0.527778
0.550249
0.640194
0.794982
1.02443
1.10426
1.35164
1.64668
1.97428
2.28327
2.34787
2.59
2.81099
2.9938
3.03273
0.217565
0.217786
0.217991
0.218068
0.218266
0.218468
0.218544
0.21872
0.218914
0.219082
0.21915
0.219321
0.219482
0.219547
0.21969
0.219843
0.219971
0.220028
0.220158
0.220271
0.220322
0.220421
0.220519
0.220587
0.220627
0.220678
0.220678
0.220696
0.220671
0.220614
0.220525
0.220518
0.220412
0.220259
0.220104
0.22007
0.219892
0.219685
0.219648
0.21946
0.219258
0.21908
0.219051
0.218909
0.218791
0.218729
0.218733
0.218737
0.21882
0.218882
0.219046
0.219316
0.219663
0.219797
0.220221
0.22077
0.221348
0.221546
0.222187
0.222909
0.223588
0.223816
0.224526
0.225205
0.225795
0.226
0.226596
0.227087
0.227507
0.227664
0.228078
0.228346
0.228452
0.228664
0.228851
0.228865
0.228901
0.22888
0.22882
0.228617
0.228598
0.228404
0.228155
0.227949
0.227963
0.227984
0.22819
0.229693
0.230379
0.23293
0.236388
0.245736
0.257777
0.261579
0.275941
0.308741
0.345594
0.357565
0.39607
0.460633
0.523519
0.54414
0.598841
0.669932
0.730566
0.751413
0.789068
0.821876
0.838602
0.847783
0.834569
0.807569
0.775838
0.773311
0.718402
0.642044
0.582625
0.572028
0.508201
0.435656
0.399958
0.373151
0.370291
0.352413
0.36485
0.402668
0.418928
0.488757
0.610955
0.79069
0.851672
1.0738
1.34847
1.65184
1.93205
2.01886
2.29085
2.52801
2.71372
2.76684
0.215285
0.21549
0.215672
0.21574
0.215944
0.216122
0.216164
0.216368
0.216542
0.216683
0.216762
0.216929
0.217068
0.217113
0.21728
0.217414
0.217511
0.217591
0.217717
0.217811
0.217847
0.217974
0.21806
0.218103
0.218172
0.218234
0.218242
0.218245
0.218273
0.218234
0.218145
0.218167
0.218101
0.217981
0.217816
0.217855
0.21772
0.217549
0.217523
0.21741
0.217256
0.217096
0.217107
0.217023
0.216939
0.216871
0.216933
0.216977
0.217067
0.217105
0.217327
0.217596
0.217913
0.21803
0.218482
0.218985
0.219507
0.219694
0.220326
0.220973
0.221568
0.221797
0.222451
0.223052
0.223541
0.223772
0.2243
0.224747
0.22507
0.225284
0.22564
0.225894
0.225921
0.226203
0.226353
0.226379
0.226351
0.226421
0.226346
0.226159
0.22608
0.22596
0.225672
0.22528
0.225143
0.224936
0.224755
0.224856
0.224854
0.225857
0.227657
0.230972
0.235727
0.238029
0.247061
0.261106
0.278203
0.285762
0.311783
0.343623
0.375588
0.389725
0.430645
0.470178
0.501413
0.516237
0.550723
0.56968
0.572384
0.577546
0.579922
0.562073
0.533339
0.527903
0.503044
0.458966
0.414726
0.403769
0.373656
0.339623
0.315111
0.299654
0.301136
0.298204
0.306508
0.330307
0.340752
0.396087
0.485873
0.616655
0.656927
0.848741
1.08545
1.34858
1.59901
1.69363
1.96859
2.21203
2.4034
2.46534
0.214842
0.215039
0.215228
0.2153
0.215484
0.215661
0.21574
0.2159
0.216071
0.216232
0.216293
0.216448
0.216592
0.21666
0.216792
0.216925
0.217054
0.217102
0.21722
0.217322
0.21738
0.217469
0.217556
0.217639
0.217673
0.217728
0.217748
0.217785
0.21777
0.217737
0.217688
0.21769
0.217612
0.217505
0.217415
0.217385
0.217257
0.217113
0.217105
0.216964
0.216824
0.216712
0.216698
0.216608
0.216537
0.216534
0.216538
0.216587
0.216689
0.216769
0.21694
0.217209
0.217542
0.217674
0.218082
0.218579
0.219122
0.219302
0.219894
0.220527
0.221159
0.22135
0.221971
0.222554
0.223108
0.223266
0.223771
0.22421
0.224627
0.224736
0.225078
0.225332
0.225475
0.225632
0.225774
0.225814
0.225897
0.225845
0.22577
0.225604
0.225634
0.225392
0.225096
0.224708
0.22469
0.224298
0.224001
0.223972
0.224176
0.224628
0.225854
0.228562
0.233098
0.234355
0.241259
0.253269
0.26979
0.274553
0.29476
0.322837
0.355595
0.365063
0.395968
0.431901
0.467843
0.47889
0.50058
0.518779
0.530772
0.536925
0.526677
0.511723
0.494004
0.495078
0.460318
0.421175
0.38769
0.385181
0.350485
0.319841
0.301835
0.292525
0.291357
0.287551
0.296385
0.320862
0.330687
0.376718
0.459356
0.585638
0.631397
0.798414
1.02187
1.2805
1.54722
1.62063
1.88418
2.12991
2.34556
2.40303
0.212594
0.21276
0.212956
0.213022
0.213173
0.213355
0.213426
0.213571
0.213725
0.213889
0.213946
0.21407
0.214229
0.214288
0.2144
0.214529
0.214656
0.214705
0.214793
0.214918
0.214966
0.215041
0.21513
0.215216
0.215255
0.215289
0.215348
0.215375
0.215374
0.215354
0.21534
0.215348
0.215274
0.215222
0.215148
0.215141
0.215031
0.214957
0.214949
0.214847
0.214753
0.21469
0.214692
0.21462
0.214609
0.214623
0.214655
0.214709
0.214858
0.214925
0.215112
0.215367
0.215703
0.215827
0.2162
0.216668
0.217166
0.217338
0.217856
0.218446
0.21899
0.21918
0.219698
0.220241
0.220695
0.220867
0.221277
0.221704
0.222028
0.22217
0.222436
0.222711
0.222791
0.222977
0.22307
0.223159
0.223185
0.223191
0.22309
0.22299
0.222963
0.222791
0.222467
0.222097
0.221991
0.221564
0.220992
0.220585
0.220499
0.220298
0.220156
0.221004
0.222422
0.222994
0.22509
0.230711
0.237774
0.240248
0.24817
0.263053
0.278845
0.284193
0.297793
0.318401
0.337469
0.3439
0.354118
0.364144
0.371961
0.374931
0.369594
0.358332
0.352414
0.351655
0.335504
0.311124
0.29917
0.296803
0.282825
0.267542
0.262583
0.259461
0.260003
0.25985
0.267336
0.283563
0.289948
0.321138
0.377014
0.469046
0.499943
0.629062
0.797607
1.02228
1.24404
1.32012
1.55874
1.80836
2.01583
2.07955
0.212104
0.212259
0.212468
0.212537
0.212664
0.212841
0.212956
0.213056
0.213199
0.2134
0.213434
0.213538
0.213702
0.213796
0.213863
0.213983
0.214166
0.214175
0.214243
0.21438
0.214466
0.214489
0.214569
0.214717
0.214718
0.214727
0.214797
0.214887
0.214821
0.214793
0.214833
0.214835
0.214725
0.214679
0.214697
0.21462
0.214497
0.214457
0.214498
0.214334
0.21424
0.214245
0.214235
0.214127
0.214126
0.214236
0.214199
0.214232
0.214404
0.214532
0.214647
0.21488
0.215265
0.215401
0.215708
0.21615
0.216726
0.216866
0.217312
0.217879
0.218533
0.218647
0.21909
0.219624
0.220218
0.220273
0.220612
0.221052
0.221541
0.22153
0.221732
0.222037
0.22228
0.222311
0.222346
0.222485
0.222677
0.222521
0.222367
0.222327
0.222471
0.222131
0.22175
0.221443
0.221526
0.220909
0.220273
0.219854
0.219983
0.219483
0.219231
0.219744
0.221217
0.221321
0.223194
0.227436
0.234355
0.235636
0.242861
0.254342
0.270066
0.273227
0.285051
0.301145
0.321091
0.3256
0.332565
0.340541
0.350602
0.354256
0.345433
0.337087
0.332935
0.335644
0.316937
0.298883
0.287458
0.288838
0.273788
0.262329
0.257366
0.256351
0.256016
0.256294
0.262952
0.278989
0.284617
0.312158
0.362716
0.449305
0.480998
0.595043
0.75155
0.964166
1.20377
1.25407
1.47313
1.71681
1.95681
2.01068
0.210066
0.210242
0.210393
0.210451
0.210614
0.210765
0.210821
0.210964
0.211115
0.211241
0.211295
0.211438
0.211555
0.211605
0.211727
0.211846
0.211945
0.211991
0.212106
0.21219
0.21223
0.212322
0.212406
0.21247
0.212505
0.212579
0.212606
0.212631
0.212657
0.212664
0.212641
0.212651
0.212636
0.212586
0.212539
0.212538
0.212495
0.212422
0.21242
0.212375
0.212324
0.212278
0.212286
0.212285
0.212284
0.212327
0.212361
0.212473
0.212595
0.212664
0.212853
0.213118
0.213397
0.213512
0.213867
0.214286
0.214704
0.214857
0.215338
0.215831
0.216289
0.216447
0.216928
0.217354
0.217741
0.217879
0.21828
0.218598
0.21889
0.218998
0.219285
0.21947
0.219562
0.219709
0.219853
0.219879
0.219927
0.219918
0.219891
0.219744
0.219744
0.219567
0.219324
0.218901
0.218818
0.218345
0.21778
0.217109
0.216975
0.216378
0.215789
0.215427
0.215411
0.215418
0.215684
0.217144
0.219418
0.220132
0.222844
0.2281
0.234252
0.236081
0.241366
0.249572
0.257732
0.260161
0.264132
0.268758
0.272553
0.273956
0.271323
0.267984
0.266279
0.266664
0.260296
0.252758
0.249298
0.249282
0.244924
0.241224
0.24066
0.241162
0.241674
0.243533
0.24893
0.258952
0.262777
0.281253
0.316037
0.373902
0.394994
0.479026
0.600097
0.763268
0.942924
0.999632
1.20519
1.42446
1.62602
1.68599
0.207951
0.208101
0.208251
0.208305
0.208449
0.208591
0.208637
0.208777
0.20891
0.209034
0.209088
0.209207
0.209327
0.20937
0.209485
0.209593
0.209688
0.209739
0.209831
0.209923
0.209959
0.210046
0.210124
0.210186
0.210231
0.210284
0.21033
0.210348
0.210384
0.210394
0.210389
0.210411
0.210396
0.210375
0.21033
0.210357
0.210318
0.210284
0.210288
0.210265
0.210237
0.210217
0.210241
0.210247
0.210281
0.210326
0.210384
0.210481
0.210624
0.210678
0.210875
0.211105
0.211378
0.211478
0.211802
0.212169
0.212549
0.212689
0.213102
0.213539
0.213936
0.214091
0.214485
0.214873
0.215191
0.215342
0.215658
0.215965
0.216188
0.216328
0.216544
0.216744
0.216784
0.21697
0.217063
0.217124
0.217126
0.21717
0.217106
0.217003
0.216959
0.216841
0.216562
0.216192
0.216065
0.215654
0.215048
0.214377
0.214166
0.213541
0.212769
0.212069
0.211442
0.211392
0.210985
0.211036
0.211403
0.21173
0.212643
0.214412
0.216517
0.217447
0.219982
0.223236
0.226345
0.227611
0.230208
0.232293
0.233774
0.234521
0.23484
0.234129
0.233753
0.233953
0.233107
0.231304
0.230629
0.230628
0.230503
0.230326
0.231168
0.23244
0.233237
0.235623
0.239679
0.246234
0.248662
0.261274
0.283718
0.321568
0.33408
0.394281
0.479778
0.599841
0.733555
0.783426
0.95161
1.14028
1.31422
1.37091
0.207555
0.207699
0.207855
0.207909
0.208038
0.208179
0.208249
0.208361
0.208489
0.20863
0.208669
0.208778
0.2089
0.20896
0.209049
0.209154
0.209275
0.209303
0.209386
0.209483
0.209537
0.209596
0.209671
0.209764
0.209783
0.209828
0.209877
0.209926
0.209927
0.209935
0.209958
0.20997
0.209942
0.209924
0.209935
0.209912
0.209871
0.209852
0.209877
0.209825
0.209799
0.209814
0.209824
0.209817
0.209854
0.209955
0.209964
0.210054
0.210202
0.210295
0.210443
0.210664
0.210952
0.211063
0.211345
0.211698
0.212109
0.212232
0.212607
0.213028
0.213476
0.213585
0.213947
0.214322
0.214715
0.214791
0.215083
0.215383
0.215705
0.215743
0.215943
0.216144
0.216292
0.216366
0.216446
0.216517
0.216627
0.216558
0.216484
0.216396
0.216464
0.216227
0.215937
0.215586
0.215585
0.215047
0.21443
0.213775
0.213708
0.212931
0.212125
0.211393
0.210865
0.210649
0.210124
0.209988
0.210376
0.210432
0.211013
0.21231
0.214371
0.214873
0.216752
0.219366
0.22255
0.22341
0.225136
0.227023
0.228985
0.229771
0.229403
0.229301
0.229602
0.230338
0.229052
0.228115
0.227997
0.228681
0.228248
0.228468
0.229544
0.231332
0.231835
0.234086
0.237885
0.244289
0.246555
0.257501
0.277726
0.312509
0.325859
0.377839
0.456092
0.566595
0.703592
0.739946
0.895109
1.07321
1.25911
1.30924
0.205549
0.205679
0.205825
0.205874
0.20599
0.20613
0.206182
0.20629
0.206413
0.206533
0.206574
0.206668
0.206793
0.206837
0.206927
0.207032
0.207127
0.207163
0.207236
0.207337
0.207374
0.20744
0.20752
0.207589
0.207617
0.207656
0.207718
0.207742
0.207765
0.207786
0.207804
0.207817
0.207807
0.207811
0.207803
0.207809
0.207787
0.207785
0.207795
0.20778
0.207779
0.207793
0.20781
0.207827
0.207887
0.207957
0.207995
0.208089
0.208237
0.2083
0.208461
0.208673
0.20892
0.209013
0.209278
0.209606