/*--------------------------------*- C++ -*----------------------------------*\
| =========                 |                                                 |
| \\      /  F ield         | OpenFOAM: The Open Source CFD Toolbox           |
|  \\    /   O peration     | Version:  v2012                                 |
|   \\  /    A nd           | Website:  www.openfoam.com                      |
|    \\/     M anipulation  |                                                 |
\*---------------------------------------------------------------------------*/
FoamFile
{
    version     2.0;
    format      ascii;
    class       volScalarField;
    location    "1e-06";
    object      kMean;
}
// * * * * * * * * * * * * * * * * * * * * * * * * * * * * * * * * * * * * * //

dimensions      [0 2 -2 0 0 0 0];


internalField   nonuniform List<scalar> 
10098
(
3.0388
3.02304
2.98343
2.95576
2.91952
2.89953
2.81964
2.74712
2.68299
2.6626
2.57309
2.49111
3.05207
3.04076
3.01833
2.98483
2.93686
2.91626
2.85287
2.78048
2.70273
2.6764
2.59818
2.52252
3.17218
3.15819
3.12297
3.10317
3.07393
3.05522
2.97577
2.90227
2.83866
2.81823
2.72196
2.63006
3.32923
3.29804
3.27106
3.24836
3.23858
3.2209
3.21252
3.20595
3.20006
3.1945
3.19611
3.1914
3.18271
3.17309
3.15798
3.1306
3.0887
3.06932
3.00866
2.93678
2.85668
2.82979
2.74626
2.66588
3.34256
3.32099
3.29819
3.26176
3.24844
3.23907
3.23727
3.22082
3.20791
3.21034
3.22053
3.21102
3.19233
3.1885
3.18678
3.15937
3.10264
3.08483
3.03902
2.97454
2.87437
2.84313
2.77095
2.7027
3.45376
3.41605
3.38325
3.35557
3.34539
3.32472
3.31507
3.30728
3.30255
3.29882
3.30462
3.30402
3.30241
3.29512
3.28905
3.27011
3.23617
3.2188
3.16377
3.09459
3.01317
2.98585
2.89824
2.81319
3.46855
3.43875
3.40851
3.36939
3.35615
3.34228
3.33608
3.32178
3.31097
3.31412
3.32492
3.32272
3.31287
3.31072
3.31534
3.29807
3.2519
3.23587
3.19483
3.13237
3.03363
3.00174
2.92543
2.84972
3.57404
3.52855
3.48845
3.45449
3.44384
3.4187
3.40559
3.39597
3.39234
3.38972
3.39847
3.40257
3.40853
3.40401
3.40779
3.39974
3.37693
3.36231
3.31608
3.25239
3.1723
3.14486
3.05496
2.96539
3.60463
3.5883
3.54966
3.51106
3.46706
3.45367
3.43409
3.42259
3.40814
3.39937
3.4024
3.41394
3.41804
3.41743
3.41734
3.42991
3.42456
3.39162
3.37833
3.34579
3.28884
3.1931
3.16106
3.08299
3.00244
3.76526
3.70369
3.68604
3.63202
3.58306
3.54119
3.52971
3.4988
3.48036
3.46704
3.46403
3.46147
3.47227
3.4807
3.49418
3.49297
3.50764
3.5124
3.50324
3.49254
3.45963
3.40528
3.32979
3.30294
3.21424
3.1224
3.86117
3.79157
3.71722
3.69946
3.6512
3.60298
3.55201
3.53832
3.51142
3.49315
3.47618
3.46935
3.47068
3.48206
3.49183
3.5009
3.50313
3.5248
3.53278
3.51605
3.50667
3.48691
3.43998
3.35051
3.31919
3.24302
3.1611
4.03379
3.95621
3.87769
3.80633
3.78698
3.72366
3.66423
3.61258
3.59985
3.56147
3.53572
3.51631
3.51342
3.50896
3.52021
3.53209
3.553
3.55566
3.58241
3.60135
3.60804
3.60253
3.58777
3.54794
3.48186
3.45679
3.37382
3.2829
3.18803
4.58105
4.56707
4.50763
4.42769
4.33973
4.32136
4.25111
4.16482
4.07147
4.05088
3.98043
3.90174
3.81826
3.79905
3.7403
3.681
3.62106
3.60682
3.57056
3.54319
3.52157
3.51662
3.51372
3.52262
3.5374
3.55676
3.56141
3.59249
3.61567
3.61789
3.61353
3.61077
3.57961
3.50146
3.47227
3.40231
3.32324
3.21366
3.11384
3.0955
3.02771
2.94803
2.87099
2.85409
4.655
4.6395
4.58685
4.51201
4.4396
4.41769
4.34186
4.25438
4.17034
4.14673
4.06355
3.97636
3.89514
3.87436
3.80046
3.72903
3.66592
3.65178
3.60327
3.56729
3.53959
3.53649
3.52734
3.53616
3.54966
3.57754
3.58422
3.62336
3.65838
3.68395
3.68474
3.69205
3.67322
3.62295
3.60145
3.52911
3.44225
3.34656
3.25618
3.22665
3.14037
3.06108
2.99197
2.97051
4.67609
4.66759
4.62179
4.56465
4.5039
4.48394
4.4043
4.32366
4.24454
4.22139
4.12724
4.03681
3.95303
3.93215
3.84409
3.76222
3.69131
3.67649
3.6166
3.56845
3.53345
3.5283
3.5146
3.51679
3.53159
3.56162
3.57288
3.62088
3.67066
3.71555
3.72317
3.74598
3.74698
3.72442
3.71267
3.64289
3.55413
3.4742
3.39273
3.35554
3.25088
3.17615
3.11246
3.08853
4.67626
4.66879
4.63662
4.57418
4.51124
4.49334
4.42494
4.33941
4.2544
4.23187
4.14627
4.05211
3.96129
3.93927
3.85524
3.77106
3.69448
3.67862
3.61813
3.56952
3.52996
3.52632
3.50946
3.51224
3.52404
3.55699
3.56762
3.61865
3.67027
3.71673
3.72516
3.75882
3.7675
3.73911
3.72299
3.6679
3.5909
3.49859
3.40709
3.37818
3.28806
3.20327
3.12713
3.10442
4.61251
4.62763
4.62528
4.63082
4.61602
4.57563
4.5257
4.51318
4.45012
4.37353
4.29331
4.27265
4.18304
4.08712
3.9924
3.97023
3.87603
3.78182
3.69427
3.67629
3.60546
3.54326
3.4922
3.48378
3.46229
3.45699
3.46506
3.49407
3.51075
3.57226
3.63678
3.6998
3.71617
3.77316
3.80663
3.80731
3.80144
3.75878
3.69093
3.6137
3.53383
3.49906
3.39888
3.31645
3.24552
3.22047
4.49826
4.5199
4.58694
4.60353
4.61425
4.6165
4.61206
4.57083
4.5251
4.51278
4.45687
4.37852
4.29736
4.27703
4.19199
4.09386
3.99592
3.97331
3.87986
3.78317
3.69241
3.67502
3.60017
3.53612
3.48166
3.47793
3.44935
3.44243
3.44717
3.48303
3.49656
3.55659
3.62315
3.69298
3.71032
3.77308
3.81453
3.8158
3.80792
3.77761
3.71881
3.63572
3.5476
3.52094
3.43096
3.34293
3.26061
3.23715
3.9921
4.11941
4.21887
4.27193
4.37311
4.43608
4.47113
4.49324
4.51645
4.50416
4.47343
4.47048
4.4289
4.36343
4.28784
4.27115
4.18888
4.09133
3.98919
3.96672
3.86754
3.76162
3.65799
3.63707
3.55311
3.47295
3.40327
3.39139
3.35767
3.33887
3.33572
3.35934
3.38086
3.44995
3.52826
3.61072
3.63729
3.73129
3.80328
3.83698
3.84007
3.8343
3.79655
3.73086
3.65862
3.62852
3.5375
3.451
3.37486
3.34938
3.74032
3.90854
4.04321
4.17552
4.20791
4.31905
4.38805
4.44585
4.45924
4.48966
4.48074
4.46184
4.45652
4.41834
4.35393
4.28333
4.26646
4.18483
4.0864
3.98551
3.96359
3.86151
3.75313
3.64906
3.63097
3.53908
3.45556
3.38342
3.38037
3.3345
3.3117
3.30436
3.33988
3.35463
3.41761
3.49679
3.59294
3.6202
3.71382
3.79403
3.83592
3.84002
3.84319
3.81316
3.74804
3.67039
3.64768
3.56362
3.47567
3.3895
3.36606
3.06924
3.2702
3.46023
3.64033
3.7866
3.85353
3.99994
4.11856
4.20013
4.23843
4.30449
4.33189
4.33068
4.33836
4.32242
4.27608
4.21268
4.20144
4.12965
4.03522
3.93059
3.90883
3.80571
3.68959
3.57203
3.5488
3.44938
3.34753
3.25692
3.24156
3.18914
3.14931
3.13054
3.14357
3.16753
3.23504
3.32529
3.42886
3.46672
3.59771
3.7155
3.79362
3.80969
3.8509
3.85442
3.81184
3.756
3.73321
3.65759
3.57267
3.49493
3.47009
2.99278
3.15936
3.35215
3.54139
3.72956
3.76708
3.91593
4.04474
4.15967
4.18234
4.24954
4.2852
4.30605
4.30786
4.29016
4.24772
4.19719
4.18505
4.10925
4.01507
3.91754
3.8976
3.78714
3.66784
3.55417
3.53664
3.42477
3.31662
3.22612
3.22468
3.15415
3.10493
3.08313
3.11451
3.12703
3.18098
3.27066
3.3977
3.43519
3.55829
3.68259
3.77947
3.80006
3.84581
3.85562
3.82121
3.76427
3.74733
3.67702
3.59428
3.50824
3.48587
2.40617
2.62231
2.83913
3.06174
3.25104
3.32559
3.51331
3.68424
3.81466
3.86587
3.97701
4.05019
4.0874
4.10645
4.12171
4.10085
4.05704
4.05231
3.99497
3.90927
3.80798
3.78814
3.68298
3.55996
3.43161
3.40701
3.29108
3.16653
3.05346
3.03481
2.95694
2.88853
2.85026
2.84753
2.86917
2.92321
3.02055
3.1449
3.19359
3.35787
3.52673
3.65872
3.6921
3.78861
3.8472
3.83997
3.81191
3.79931
3.7475
3.67206
3.59839
3.57566
2.31815
2.49423
2.69689
2.94015
3.18429
3.21825
3.39143
3.58313
3.76112
3.78779
3.88574
3.97579
4.04905
4.05745
4.06102
4.04886
4.02926
4.02245
3.95316
3.86883
3.78437
3.76787
3.64908
3.52047
3.40429
3.38885
3.25512
3.11847
3.01244
3.01326
2.91144
2.82374
2.78741
2.8107
2.81617
2.8436
2.93961
3.10072
3.14695
3.29184
3.4606
3.62861
3.67001
3.76458
3.8235
3.83763
3.81498
3.80527
3.75761
3.68842
3.60904
3.5891
1.7137
1.9285
2.16484
2.41094
2.63508
2.71304
2.94427
3.15016
3.32723
3.38811
3.54938
3.66189
3.74262
3.77254
3.82764
3.83526
3.81681
3.81909
3.78095
3.70977
3.6177
3.60134
3.49828
3.37479
3.23888
3.21451
3.08414
2.94367
2.80608
2.785
2.67877
2.58179
2.51685
2.4944
2.50838
2.53888
2.63096
2.76905
2.82509
3.01314
3.23022
3.41912
3.47283
3.62878
3.75712
3.79586
3.80991
3.81014
3.79276
3.737
3.67563
3.65714
1.16145
1.39827
1.64436
1.86473
2.06514
2.17894
2.44293
2.6578
2.83404
2.92776
3.13632
3.27267
3.36201
3.4157
3.51876
3.55027
3.53749
3.5519
3.54883
3.4901
3.39582
3.38227
3.30263
3.18198
3.03396
3.00282
2.88407
2.73844
2.57552
2.53486
2.4299
2.32878
2.22737
2.1607
2.18221
2.21949
2.28466
2.39469
2.45234
2.68488
2.92193
3.13576
3.19255
3.42135
3.59485
3.69005
3.74246
3.76163
3.7764
3.75103
3.70933
3.69644
1.09629
1.2784
1.4998
1.74104
1.9807
2.05479
2.30573
2.53801
2.75519
2.82134
3.02169
3.17185
3.2974
3.33643
3.43047
3.47292
3.48766
3.49737
3.48112
3.42897
3.35393
3.34298
3.24703
3.12903
2.99328
2.97176
2.83233
2.6828
2.52677
2.50586
2.3748
2.25694
2.16015
2.1178
2.12115
2.12355
2.19406
2.3332
2.39079
2.58622
2.83424
3.07601
3.15039
3.36143
3.55341
3.66055
3.73082
3.74598
3.773
3.75079
3.71231
3.70036
0.232824
0.23312
0.233401
0.233511
0.233784
0.234038
0.234115
0.234375
0.23459
0.234775
0.234883
0.235063
0.235223
0.235287
0.235449
0.235564
0.235636
0.235727
0.235788
0.235836
0.235871
0.235922
0.235925
0.235909
0.235982
0.235957
0.23596
0.235977
0.236017
0.236006
0.236053
0.236152
0.236228
0.236444
0.236688
0.236963
0.237404
0.238266
0.238565
0.239728
0.241231
0.243271
0.244092
0.246506
0.24992
0.253373
0.255137
0.258984
0.264304
0.265603
0.271079
0.275351
0.280539
0.282286
0.286055
0.28832
0.289966
0.291755
0.290868
0.289442
0.286651
0.288121
0.283432
0.279908
0.275388
0.27655
0.271635
0.269195
0.266385
0.267717
0.265287
0.265382
0.265271
0.266622
0.266563
0.26962
0.270119
0.275229
0.279805
0.29137
0.294196
0.314394
0.339906
0.385924
0.398022
0.466366
0.549359
0.671999
0.704542
0.861921
1.03621
1.24802
1.44507
1.53582
1.76909
2.0148
2.2214
2.31212
2.52623
2.71085
2.84463
2.90509
3.02911
3.10641
3.13467
3.15753
3.17107
3.13759
3.06996
3.06233
2.99012
2.87819
2.7441
2.7166
2.59196
2.43457
2.27203
2.23371
2.10806
1.97398
1.86256
1.78414
1.79405
1.78476
1.83388
1.94284
1.99846
2.21081
2.46301
2.72634
2.80045
3.07276
3.30565
3.47538
3.58733
3.62609
3.69591
3.71314
3.69987
3.6959
0.232249
0.232545
0.232831
0.232947
0.233202
0.233452
0.233585
0.233789
0.234007
0.234223
0.234304
0.234483
0.234645
0.234748
0.234867
0.234986
0.235111
0.235151
0.235213
0.235261
0.235329
0.235323
0.235316
0.23534
0.235352
0.235305
0.23528
0.235354
0.235271
0.235225
0.235268
0.23531
0.235286
0.235404
0.235715
0.235742
0.236056
0.236739
0.237083
0.237781
0.238991
0.240836
0.24138
0.243193
0.245999
0.249522
0.250236
0.253435
0.257947
0.25993
0.263181
0.266967
0.271819
0.273659
0.275479
0.27773
0.280372
0.281232
0.279596
0.278827
0.2783
0.278022
0.273798
0.2713
0.269325
0.268534
0.264479
0.262794
0.261932
0.261362
0.259418
0.259746
0.260945
0.260397
0.260366
0.263094
0.265015
0.267092
0.270837
0.280789
0.285887
0.299053
0.320597
0.360672
0.378576
0.429079
0.502802
0.614315
0.662541
0.787138
0.949773
1.15118
1.37275
1.42977
1.65488
1.89688
2.13962
2.20132
2.41003
2.59702
2.7684
2.81137
2.92813
3.01023
3.07029
3.08775
3.08973
3.05997
3.01431
3.01105
2.92257
2.81324
2.69247
2.67807
2.53294
2.37488
2.21692
2.20142
2.05039
1.90906
1.79523
1.74037
1.73329
1.70466
1.74824
1.88015
1.93328
2.11525
2.36846
2.65438
2.74565
2.99599
3.23905
3.42628
3.56524
3.59351
3.67025
3.69669
3.69479
3.69135
0.229273
0.229534
0.229848
0.229955
0.230183
0.230464
0.230571
0.230787
0.231007
0.231238
0.231326
0.231486
0.231703
0.231784
0.231924
0.232077
0.232211
0.232279
0.232343
0.23244
0.232484
0.232493
0.232482
0.232457
0.232475
0.232356
0.232293
0.232291
0.232149
0.231965
0.23184
0.231826
0.231561
0.231435
0.231314
0.231295
0.23106
0.231178
0.231239
0.2312
0.231375
0.231953
0.23214
0.232367
0.233494
0.234679
0.235038
0.235621
0.237888
0.238551
0.239843
0.24081
0.24345
0.244165
0.244749
0.245703
0.247357
0.247905
0.246946
0.247409
0.247606
0.247895
0.245931
0.246078
0.24557
0.24571
0.243926
0.2442
0.243892
0.244036
0.242971
0.243691
0.243916
0.244014
0.243403
0.244757
0.245124
0.246017
0.246385
0.250716
0.252057
0.257724
0.264466
0.284336
0.290555
0.317079
0.349257
0.420112
0.442129
0.527007
0.623291
0.785902
0.942933
1.00271
1.17617
1.41214
1.61704
1.69451
1.89464
2.10461
2.26722
2.3288
2.46784
2.58204
2.6485
2.67883
2.71376
2.7079
2.66753
2.66674
2.60697
2.5126
2.39552
2.37402
2.25072
2.09444
1.93611
1.90238
1.76452
1.61342
1.4958
1.41146
1.41123
1.37149
1.40299
1.50063
1.55
1.73235
1.98226
2.2696
2.35549
2.64982
2.93134
3.16964
3.34456
3.40019
3.52935
3.59896
3.62558
3.63286
0.228674
0.228921
0.229249
0.229367
0.229564
0.229833
0.230016
0.230163
0.230367
0.230659
0.230716
0.230853
0.231074
0.231218
0.231292
0.231432
0.231657
0.231671
0.231716
0.231837
0.231944
0.231886
0.231872
0.231932
0.231908
0.23177
0.231707
0.231793
0.23156
0.231367
0.231275
0.231255
0.230965
0.230782
0.230742
0.230618
0.230398
0.230397
0.230514
0.230364
0.230452
0.230922
0.231033
0.231302
0.232033
0.233253
0.23331
0.234148
0.235658
0.236506
0.237378
0.238581
0.240495
0.24125
0.241799
0.242719
0.244185
0.244535
0.244166
0.244326
0.244912
0.244822
0.243828
0.243553
0.243655
0.243376
0.242483
0.242343
0.242556
0.242296
0.241889
0.242135
0.24268
0.242431
0.242372
0.24305
0.243729
0.244052
0.244998
0.247906
0.249669
0.253749
0.261116
0.276148
0.283505
0.304272
0.336788
0.393516
0.420446
0.488795
0.582114
0.721183
0.89325
0.924965
1.08779
1.30481
1.54395
1.58895
1.76955
1.97617
2.18577
2.22431
2.33921
2.45702
2.57078
2.59331
2.60262
2.5984
2.59688
2.60263
2.51591
2.4169
2.32977
2.32718
2.17685
2.0111
1.87031
1.8669
1.70067
1.53625
1.42277
1.36724
1.35063
1.2901
1.31527
1.44147
1.48642
1.63736
1.87433
2.19262
2.29335
2.56001
2.83203
3.10151
3.31446
3.35018
3.47283
3.56103
3.61102
3.61717
0.225994
0.226275
0.226537
0.226632
0.226879
0.227133
0.227228
0.227442
0.227678
0.227879
0.227962
0.228166
0.228352
0.228429
0.228594
0.228764
0.228899
0.228966
0.229106
0.2292
0.229253
0.229326
0.229361
0.229342
0.229362
0.229324
0.229215
0.22921
0.229086
0.228912
0.22871
0.228675
0.228432
0.228163
0.227911
0.22784
0.227517
0.227283
0.227246
0.226967
0.22676
0.226711
0.226712
0.226531
0.226724
0.226986
0.227038
0.227053
0.227846
0.228112
0.228504
0.228923
0.230001
0.230312
0.230677
0.231379
0.23234
0.232611
0.232698
0.233463
0.234105
0.2343
0.234192
0.234911
0.235323
0.235466
0.235386
0.235991
0.236288
0.236398
0.236388
0.23684
0.237
0.237121
0.237026
0.237359
0.237486
0.237594
0.237542
0.238713
0.239172
0.240696
0.242671
0.249608
0.252119
0.261653
0.273943
0.305704
0.316871
0.356489
0.404322
0.5003
0.60215
0.635523
0.75054
0.928649
1.09788
1.15462
1.32579
1.51812
1.68355
1.73924
1.88506
2.01241
2.10385
2.13822
2.19568
2.21518
2.19814
2.20425
2.16069
2.09106
1.98999
1.97676
1.86196
1.72504
1.56963
1.54352
1.40372
1.25946
1.13627
1.05438
1.04634
0.9964
1.01301
1.09616
1.13764
1.2912
1.5264
1.8095
1.90027
2.19791
2.51809
2.79836
3.03003
3.09726
3.28584
3.40648
3.4807
3.50027
0.223396
0.223662
0.223891
0.223976
0.22424
0.224463
0.22451
0.224774
0.224989
0.225158
0.225261
0.225469
0.225634
0.225686
0.225896
0.226052
0.226155
0.22626
0.226406
0.2265
0.226541
0.226678
0.226736
0.226714
0.226788
0.226781
0.226696
0.226677
0.226628
0.226479
0.226261
0.226265
0.226072
0.225799
0.225472
0.225493
0.225199
0.224863
0.224801
0.224557
0.224269
0.223992
0.223994
0.223844
0.223713
0.223611
0.223718
0.223794
0.223947
0.223989
0.224364
0.22474
0.225161
0.225322
0.225931
0.226516
0.227075
0.227338
0.22804
0.228701
0.229273
0.229586
0.230268
0.230891
0.231382
0.231689
0.232253
0.232726
0.233051
0.233312
0.233683
0.233951
0.233974
0.234286
0.234427
0.234444
0.234408
0.234524
0.234549
0.234636
0.234624
0.235253
0.236328
0.238477
0.239006
0.243718
0.251322
0.264079
0.267204
0.289934
0.322634
0.369764
0.425695
0.451459
0.539064
0.649274
0.76141
0.812753
0.959741
1.1069
1.23303
1.29155
1.43809
1.55456
1.63161
1.67218
1.75514
1.78441
1.76842
1.77629
1.76705
1.70935
1.61694
1.5986
1.51972
1.39582
1.25198
1.2137
1.1059
0.980633
0.864061
0.775246
0.77749
0.74452
0.749199
0.805476
0.839943
0.99206
1.19952
1.4528
1.52631
1.84383
2.17034
2.46962
2.71646
2.80785
3.0374
3.19917
3.30112
3.33386
0.222895
0.223153
0.22339
0.223483
0.22372
0.223943
0.224041
0.224245
0.22446
0.224657
0.224734
0.224931
0.225102
0.225187
0.225349
0.225508
0.225657
0.225718
0.225858
0.225966
0.226034
0.226128
0.226196
0.226234
0.226261
0.226255
0.226188
0.226208
0.226111
0.225974
0.225806
0.225783
0.22558
0.22532
0.225084
0.225013
0.224721
0.224414
0.224369
0.224071
0.22378
0.223553
0.223513
0.223312
0.223176
0.223153
0.223142
0.223162
0.223324
0.223444
0.223646
0.223983
0.224458
0.224641
0.225092
0.225686
0.226367
0.226581
0.227185
0.22791
0.228647
0.228861
0.22951
0.230212
0.230869
0.231052
0.231617
0.232144
0.232618
0.232742
0.233115
0.233417
0.23357
0.233743
0.23388
0.233924
0.234008
0.233965
0.233937
0.233992
0.234128
0.234382
0.235081
0.23689
0.237807
0.241043
0.246829
0.257978
0.262802
0.279628
0.305646
0.348171
0.404161
0.420171
0.493056
0.596225
0.714367
0.749128
0.876123
1.01906
1.16272
1.20497
1.33095
1.44825
1.55044
1.58329
1.64513
1.67959
1.68824
1.70038
1.66765
1.61587
1.54222
1.53959
1.43637
1.31669
1.18542
1.17134
1.0411
0.91407
0.806795
0.741046
0.729383
0.684438
0.692593
0.762531
0.794911
0.919378
1.12229
1.38483
1.47371
1.75758
2.08398
2.3933
2.66996
2.74092
2.97089
3.14252
3.26846
3.2991
0.220373
0.22059
0.220839
0.220923
0.221121
0.221352
0.221438
0.221628
0.221823
0.222026
0.222102
0.22226
0.222455
0.222527
0.222673
0.222831
0.222981
0.223047
0.223154
0.223298
0.223356
0.223446
0.223535
0.223603
0.223647
0.223641
0.223641
0.223652
0.22359
0.223485
0.223371
0.223362
0.223177
0.222989
0.22277
0.222737
0.222465
0.222222
0.222174
0.22191
0.221641
0.221422
0.22139
0.221169
0.221033
0.220944
0.220954
0.2209
0.221014
0.221075
0.221245
0.221495
0.221907
0.22205
0.222479
0.223041
0.223684
0.223897
0.224529
0.225297
0.226031
0.226279
0.226978
0.227749
0.22839
0.228623
0.229203
0.229786
0.230219
0.230405
0.230773
0.23112
0.231208
0.231454
0.231578
0.231651
0.231665
0.231664
0.231544
0.231443
0.231422
0.231375
0.231321
0.231823
0.232035
0.233232
0.235188
0.240169
0.241867
0.249938
0.261144
0.283723
0.311745
0.321908
0.359213
0.425195
0.495996
0.522227
0.601237
0.710291
0.810452
0.847857
0.941323
1.04501
1.12613
1.15806
1.21647
1.25567
1.26777
1.27835
1.26481
1.22219
1.16829
1.15954
1.08841
0.980833
0.882537
0.859433
0.767493
0.658506
0.584861
0.52915
0.526387
0.492619
0.50347
0.555196
0.580214
0.684874
0.850558
1.081
1.15266
1.42759
1.73397
2.05679
2.33105
2.42269
2.67633
2.88852
3.03665
3.08049
0.219877
0.220086
0.220341
0.22043
0.220607
0.220829
0.220961
0.221105
0.221291
0.221527
0.221579
0.221722
0.221917
0.222027
0.222128
0.222276
0.222481
0.222505
0.222599
0.222749
0.222845
0.222886
0.222968
0.223099
0.223105
0.223084
0.223095
0.223174
0.223048
0.22294
0.222879
0.222865
0.222654
0.222475
0.222348
0.222248
0.221975
0.221762
0.221763
0.221447
0.221184
0.221019
0.220978
0.220739
0.220603
0.220589
0.220538
0.220488
0.220596
0.22071
0.220819
0.22107
0.221489
0.221642
0.222036
0.222584
0.223273
0.223453
0.224069
0.224811
0.225634
0.225812
0.226494
0.227241
0.228001
0.22813
0.22868
0.229259
0.229836
0.229891
0.230228
0.23059
0.23081
0.230931
0.231021
0.231126
0.231276
0.23114
0.230989
0.230908
0.231026
0.230803
0.230697
0.231027
0.231402
0.23213
0.233872
0.237802
0.23987
0.246132
0.256531
0.274823
0.30248
0.308308
0.343099
0.397817
0.470149
0.486341
0.558484
0.652255
0.761509
0.786047
0.866888
0.958973
1.05816
1.0826
1.12242
1.15728
1.19191
1.20702
1.17148
1.12944
1.0947
1.10303
1.01031
0.907726
0.821556
0.822547
0.713987
0.612284
0.543715
0.505372
0.49488
0.462082
0.471048
0.528091
0.55041
0.640597
0.795615
1.02545
1.10471
1.35264
1.64786
1.97565
2.28495
2.34849
2.59108
2.81201
2.99501
3.03334
0.217564
0.217787
0.217992
0.218067
0.218266
0.218469
0.218544
0.21872
0.218915
0.219083
0.21915
0.219321
0.219483
0.219547
0.219691
0.219843
0.219971
0.220027
0.220159
0.220271
0.220322
0.220421
0.22052
0.220588
0.220627
0.220678
0.220678
0.220696
0.22067
0.220614
0.220524
0.220518
0.220412
0.220258
0.220102
0.220071
0.219891
0.219684
0.219649
0.219459
0.219257
0.219079
0.219052
0.218909
0.218791
0.218729
0.218734
0.218738
0.218822
0.218884
0.219048
0.219319
0.219667
0.219799
0.220225
0.220775
0.221353
0.221547
0.222191
0.222915
0.223593
0.223817
0.224531
0.22521
0.2258
0.226001
0.2266
0.22709
0.227509
0.227665
0.22808
0.228347
0.228452
0.228664
0.228851
0.228864
0.2289
0.228878
0.228818
0.228614
0.228597
0.2284
0.228152
0.227946
0.227962
0.227981
0.228185
0.229698
0.230375
0.232935
0.236387
0.245773
0.257823
0.261557
0.275957
0.308866
0.345715
0.357501
0.396109
0.460807
0.52363
0.543963
0.598828
0.670007
0.730531
0.751136
0.78889
0.821686
0.838309
0.847453
0.83417
0.807135
0.775378
0.773034
0.717912
0.641487
0.582183
0.571843
0.507812
0.435249
0.399748
0.372974
0.370235
0.35229
0.364855
0.402771
0.418931
0.488936
0.611287
0.791224
0.851716
1.07434
1.34911
1.65252
1.93265
2.01877
2.29138
2.52844
2.714
2.7667
0.215282
0.215489
0.215671
0.215738
0.215942
0.216121
0.216161
0.216367
0.216541
0.216682
0.216759
0.216927
0.217067
0.21711
0.217279
0.217412
0.217509
0.217589
0.217715
0.21781
0.217844
0.217972
0.218058
0.2181
0.21817
0.218232
0.218239
0.218242
0.218271
0.218232
0.218141
0.218165
0.218099
0.217978
0.217812
0.217854
0.217717
0.217545
0.217521
0.217407
0.217254
0.217093
0.217106
0.217021
0.216937
0.216869
0.216933
0.216977
0.217067
0.217104
0.217329
0.217597
0.217916
0.21803
0.218484
0.218988
0.219511
0.219694
0.22033
0.220976
0.221572
0.221796
0.222455
0.223054
0.223543
0.223771
0.224302
0.224748
0.22507
0.225283
0.22564
0.225894
0.225918
0.226203
0.226351
0.226377
0.226348
0.226419
0.226343
0.226155
0.226076
0.225956
0.225667
0.225274
0.225139
0.224931
0.224749
0.224851
0.224846
0.225854
0.227657
0.230974
0.235732
0.238011
0.247083
0.261135
0.278228
0.28571
0.311831
0.343654
0.375572
0.389577
0.43065
0.470123
0.501261
0.515972
0.55059
0.569441
0.572035
0.57721
0.579629
0.561696
0.532913
0.527609
0.502718
0.458596
0.414375
0.40359
0.37343
0.339417
0.314954
0.299538
0.301102
0.298157
0.306506
0.33036
0.340737
0.396233
0.486102
0.616987
0.656838
0.849124
1.08587
1.34895
1.59923
1.69327
1.96878
2.21212
2.4033
2.46482
0.214846
0.215044
0.215234
0.215305
0.215489
0.215667
0.215744
0.215905
0.216076
0.216238
0.216297
0.216453
0.216598
0.216664
0.216797
0.21693
0.21706
0.217106
0.217225
0.217327
0.217385
0.217474
0.217561
0.217644
0.217677
0.217732
0.217752
0.21779
0.217774
0.217741
0.217691
0.217694
0.217616
0.217508
0.217418
0.217389
0.217259
0.217116
0.217109
0.216966
0.216826
0.216715
0.216703
0.216611
0.21654
0.216538
0.216542
0.216591
0.216694
0.216773
0.216945
0.217214
0.217549
0.217679
0.218088
0.218586
0.21913
0.219306
0.219902
0.220535
0.221168
0.221354
0.221978
0.22256
0.223116
0.22327
0.223777
0.224214
0.224633
0.224739
0.225082
0.225336
0.225478
0.225634
0.225776
0.225816
0.2259
0.225846
0.225771
0.225604
0.225637
0.225391
0.225095
0.224707
0.224693
0.224297
0.224
0.223975
0.224182
0.224634
0.225865
0.228585
0.23314
0.234368
0.241311
0.253357
0.269922
0.274594
0.294901
0.32303
0.35584
0.365145
0.39618
0.432147
0.468118
0.479007
0.500751
0.518936
0.530911
0.537042
0.526681
0.511705
0.493972
0.49517
0.460198
0.421029
0.387566
0.38523
0.350358
0.319726
0.301775
0.292504
0.291369
0.287541
0.296427
0.320978
0.330736
0.376901
0.459673
0.586181
0.631627
0.799068
1.02276
1.28155
1.54851
1.62111
1.88533
2.13103
2.3468
2.40366
0.212591
0.212758
0.212955
0.21302
0.213171
0.213354
0.213424
0.213569
0.213723
0.213887
0.213944
0.214067
0.214228
0.214285
0.214398
0.214527
0.214655
0.214702
0.21479
0.214917
0.214964
0.215039
0.215129
0.215215
0.215253
0.215286
0.215346
0.215373
0.215371
0.215351
0.215338
0.215346
0.215271
0.215219
0.215146
0.21514
0.215028
0.214955
0.214948
0.214844
0.214751
0.214688
0.214691
0.214619
0.214608
0.214622
0.214655
0.214709
0.214859
0.214925
0.215112
0.215368
0.215706
0.215826
0.216202
0.216671
0.217169
0.217338
0.217858
0.218449
0.218993
0.219179
0.2197
0.220243
0.220696
0.220865
0.221277
0.221705
0.222027
0.222169
0.222435
0.22271
0.222788
0.222975
0.223067
0.223157
0.223182
0.223188
0.223086
0.222986
0.22296
0.222787
0.222461
0.222091
0.221987
0.221557
0.220985
0.220578
0.220494
0.220291
0.220147
0.221
0.222419
0.222983
0.225081
0.230719
0.237782
0.240219
0.248155
0.263066
0.278843
0.284116
0.297742
0.318376
0.337415
0.343764
0.353994
0.364014
0.371818
0.374761
0.369396
0.358111
0.352244
0.351517
0.335316
0.310911
0.299046
0.29673
0.282716
0.267436
0.262534
0.259423
0.259985
0.25983
0.267348
0.283605
0.289943
0.321218
0.377155
0.469283
0.4999
0.629308
0.797871
1.02265
1.24428
1.31983
1.55889
1.80853
2.01581
2.07904
0.212106
0.212262
0.212473
0.21254
0.212667
0.212846
0.21296
0.213059
0.213202
0.213406
0.213438
0.213541
0.213707
0.2138
0.213866
0.213986
0.214171
0.214178
0.214246
0.214385
0.21447
0.214492
0.214572
0.214722
0.214722
0.21473
0.214801
0.214892
0.214823
0.214795
0.214837
0.214839
0.214726
0.214681
0.214701
0.214623
0.214499
0.21446
0.214502
0.214336
0.214242
0.214249
0.214239
0.214129
0.214129
0.21424
0.214202
0.214235
0.214409
0.214537
0.214651
0.214885
0.215272
0.215405
0.215713
0.216156
0.216734
0.21687
0.217318
0.217886
0.218543
0.218651
0.219095
0.21963
0.220226
0.220275
0.220616
0.221057
0.221547
0.221532
0.221734
0.222041
0.222284
0.222312
0.222347
0.222488
0.22268
0.222521
0.222367
0.222328
0.222475
0.22213
0.221748
0.221442
0.221531
0.220906
0.220269
0.219854
0.219988
0.219481
0.219232
0.21975
0.221234
0.221326
0.223211
0.227469
0.234415
0.235651
0.242917
0.254423
0.270187
0.273261
0.28514
0.301257
0.32124
0.325653
0.332629
0.34061
0.350692
0.354315
0.345413
0.33707
0.332941
0.335699
0.316867
0.298816
0.28742
0.288874
0.273732
0.262286
0.257348
0.256354
0.25602
0.256297
0.262979
0.279061
0.284641
0.312264
0.362906
0.449666
0.481139
0.595477
0.752145
0.964985
1.20487
1.2544
1.474
1.7178
1.95804
2.01122
0.210066
0.210243
0.210394
0.210451
0.210615
0.210766
0.21082
0.210964
0.211116
0.211242
0.211294
0.211439
0.211556
0.211604
0.211727
0.211846
0.211945
0.211991
0.212106
0.21219
0.21223
0.212322
0.212406
0.21247
0.212506
0.212579
0.212607
0.212631
0.212657
0.212664
0.212641
0.212651
0.212637
0.212585
0.212539
0.212539
0.212495
0.212421
0.212421
0.212376
0.212325
0.212279
0.212287
0.212286
0.212285
0.212328
0.212362
0.212475
0.212597
0.212665
0.212855
0.213121
0.213401
0.213513
0.213871
0.21429
0.214708
0.214858
0.215342
0.215835
0.216293
0.216448
0.216932
0.217357
0.217744
0.21788
0.218282
0.2186
0.218892
0.218998
0.219286
0.21947
0.219562
0.219709
0.219853
0.219878
0.219926
0.219917
0.21989
0.219742
0.219743
0.219564
0.219321
0.218896
0.218817
0.218341
0.217775
0.217103
0.216974
0.216372
0.215783
0.215421
0.215407
0.215415
0.21568
0.217145
0.219422
0.220124
0.222842
0.228108
0.234258
0.236057
0.241356
0.249575
0.257724
0.260117
0.264095
0.268724
0.272512
0.273901
0.271252
0.267917
0.266226
0.266625
0.26023
0.252693
0.249261
0.249264
0.244888
0.241195
0.240648
0.241157
0.241669
0.243534
0.248945
0.258986
0.262782
0.28131
0.316144
0.374086
0.395019
0.479244
0.600403
0.763668
0.94334
0.999579
1.20562
1.42489
1.62637
1.68583
0.207949
0.2081
0.208251
0.208303
0.208447
0.208591
0.208635
0.208776
0.208908
0.209033
0.209086
0.209206
0.209326
0.209368
0.209484
0.209592
0.209687
0.209737
0.209829
0.209922
0.209957
0.210044
0.210122
0.210185
0.210229
0.210282
0.210328
0.210346
0.210382
0.210392
0.210388
0.210409
0.210394
0.210373
0.210328
0.210356
0.210316
0.210282
0.210287
0.210263
0.210235
0.210216
0.21024
0.210246
0.21028
0.210325
0.210384
0.210481
0.210624
0.210677
0.210875
0.211105
0.211379
0.211477
0.211803
0.21217
0.212551
0.212688
0.213104
0.213541
0.213938
0.21409
0.214486
0.214874
0.215191
0.215341
0.215658
0.215965
0.216187
0.216327
0.216543
0.216743
0.216782
0.216969
0.217061
0.217122
0.217123
0.217168
0.217102
0.217
0.216956
0.216838
0.216557
0.216186
0.216061
0.215649
0.215041
0.21437
0.214163
0.213534
0.212761
0.21206
0.211433
0.211389
0.210977
0.21103
0.211397
0.211723
0.212637
0.214406
0.21651
0.21743
0.219972
0.223224
0.226328
0.227581
0.230185
0.232265
0.233742
0.234484
0.234805
0.234092
0.233721
0.233925
0.233078
0.231275
0.23061
0.230613
0.23049
0.230317
0.231164
0.232439
0.233234
0.235627
0.239689
0.246253
0.248661
0.261309
0.283779
0.321673
0.334068
0.394415
0.47994
0.60006
0.733754
0.783292
0.951792
1.14046
1.31429
1.37054
0.207558
0.207702
0.20786
0.207912
0.208041
0.208184
0.208252
0.208365
0.208492
0.208635
0.208672
0.208782
0.208904
0.208963
0.209053
0.209157
0.20928
0.209306
0.20939
0.209487
0.20954
0.2096
0.209674
0.209768
0.209787
0.209831
0.209881
0.20993
0.20993
0.209938
0.209961
0.209973
0.209944
0.209926
0.209938
0.209915
0.209874
0.209855
0.209881
0.209828
0.209801
0.209817
0.209827
0.20982
0.209858
0.209959
0.209967
0.210058
0.210207
0.210299
0.210448
0.210669
0.210958
0.211067
0.21135
0.211704
0.212116
0.212235
0.212613
0.213033
0.213483
0.213589
0.213952
0.214327
0.214721
0.214793
0.215087
0.215387
0.21571
0.215745
0.215945
0.216147
0.216295
0.216368
0.216448
0.216519
0.21663
0.216559
0.216485
0.216397
0.216468
0.216227
0.215937
0.215586
0.215588
0.215045
0.214427
0.213772
0.213711
0.212927
0.212122
0.21139
0.210865
0.210651
0.210123
0.20999
0.210383
0.210436
0.21102
0.212322
0.214391
0.214882
0.21677
0.219388
0.222578
0.223423
0.225153
0.227041
0.229005
0.229785
0.229408
0.229306
0.229612
0.230352
0.229049
0.228113
0.228
0.22869
0.228246
0.22847
0.229548
0.231341
0.231837
0.234094
0.2379
0.244317
0.246563
0.257542
0.277802
0.312653
0.325916
0.378033
0.456388
0.567014
0.704179
0.740129
0.89571
1.0739
1.25995
1.30959
0.205549
0.205679
0.205826
0.205874
0.20599
0.206131
0.206181
0.20629
0.206414
0.206533
0.206574
0.206668
0.206794
0.206836
0.206927
0.207033
0.207127
0.207162
0.207235
0.207338
0.207374
0.20744
0.20752
0.207589
0.207617
0.207655
0.207718
0.207742
0.207765
0.207786
0.207804
0.207817
0.207806
0.207811
0.207803
0.20781
0.207786
0.207786
0.207795
0.20778
0.20778
0.207793
0.207811
0.207827
0.207888
0.207958
0.207996
0.20809
0.208239
0.208301
0.208462
0.208675
0.208922
0.209014
0.20928
0.209609
0.20994
0.210056
0.210396
0.21078