/*--------------------------------*- C++ -*----------------------------------*\
| =========                 |                                                 |
| \\      /  F ield         | OpenFOAM: The Open Source CFD Toolbox           |
|  \\    /   O peration     | Version:  v2012                                 |
|   \\  /    A nd           | Website:  www.openfoam.com                      |
|    \\/     M anipulation  |                                                 |
\*---------------------------------------------------------------------------*/
FoamFile
{
    version     2.0;
    format      ascii;
    class       volScalarField;
    location    "1e-06";
    object      kPrime2Mean;
}
// * * * * * * * * * * * * * * * * * * * * * * * * * * * * * * * * * * * * * //

dimensions      [0 4 -4 0 0 0 0];


internalField   nonuniform List<scalar> 
10098
(
1.73727e-06
1.47036e-06
6.85105e-07
9.96734e-07
1.85039e-06
1.79349e-06
8.18575e-07
7.6372e-07
1.39014e-06
1.69071e-06
8.71303e-07
5.02226e-07
1.02253e-06
8.82138e-07
4.83277e-07
8.16373e-07
1.65415e-06
1.44381e-06
9.23988e-07
9.1589e-07
1.57167e-06
1.52849e-06
1.05255e-06
6.06224e-07
1.4337e-06
1.22454e-06
4.98441e-07
8.39475e-07
1.66994e-06
1.64594e-06
7.05217e-07
6.40547e-07
1.32747e-06
1.69409e-06
8.22476e-07
3.48612e-07
2.39131e-08
1.93765e-08
1.46818e-08
1.79941e-08
2.08169e-08
1.85988e-08
2.70511e-08
2.02369e-08
1.91315e-08
1.86747e-08
4.2436e-08
1.7128e-08
1.86333e-08
1.33018e-08
2.63665e-08
7.97514e-09
7.405e-09
1.0697e-08
5.37399e-09
1.87121e-11
5.90253e-10
7.03701e-09
1.94688e-10
2.19051e-11
5.73768e-07
2.55626e-07
1.88655e-07
3.29325e-07
3.94476e-07
1.96601e-07
1.43018e-07
2.39427e-07
3.63175e-07
2.53442e-07
1.87564e-07
3.03448e-07
6.38422e-07
5.09718e-07
3.7472e-07
4.90983e-07
1.20802e-06
1.03499e-06
7.97522e-07
6.24502e-07
1.38814e-06
1.2219e-06
9.2104e-07
4.5552e-07
8.95834e-07
3.72893e-07
2.69519e-07
4.42933e-07
7.13622e-07
3.53393e-07
2.71385e-07
4.7503e-07
7.01837e-07
5.02397e-07
3.69489e-07
5.17318e-07
9.3965e-07
7.61972e-07
4.96637e-07
5.48013e-07
1.213e-06
1.07686e-06
6.22911e-07
4.48368e-07
1.02095e-06
1.21714e-06
6.42662e-07
2.95829e-07
3.82447e-07
1.7934e-07
1.42904e-07
1.96623e-07
2.27854e-07
1.08455e-07
9.00905e-08
1.13897e-07
1.7245e-07
1.17659e-07
1.04909e-07
1.49444e-07
3.27849e-07
2.77959e-07
2.27682e-07
3.17464e-07
7.82167e-07
7.06498e-07
6.16337e-07
5.43794e-07
1.12093e-06
9.96975e-07
7.98819e-07
4.54325e-07
7.19064e-07
2.62536e-07
1.94637e-07
3.0366e-07
5.2811e-07
2.28372e-07
1.90533e-07
3.14632e-07
4.76681e-07
3.31263e-07
2.6496e-07
3.46621e-07
6.56236e-07
5.18719e-07
3.7833e-07
4.27905e-07
9.40254e-07
8.71899e-07
5.39137e-07
3.89967e-07
8.66735e-07
1.1113e-06
5.41914e-07
2.673e-07
2.76877e-07
2.32086e-07
1.18133e-07
1.01319e-07
1.07404e-07
1.1378e-07
5.06993e-08
4.39542e-08
4.02678e-08
5.83461e-08
3.66031e-08
4.1445e-08
4.83907e-08
1.27167e-07
1.21151e-07
1.0455e-07
1.70938e-07
4.52342e-07
4.3687e-07
4.45888e-07
4.27885e-07
8.78472e-07
8.02218e-07
7.06328e-07
4.17884e-07
1.92683e-07
2.96397e-07
5.62963e-07
1.67904e-07
1.17922e-07
1.86249e-07
3.75243e-07
1.30833e-07
1.11116e-07
1.8703e-07
2.96436e-07
1.96305e-07
1.59254e-07
2.08707e-07
4.19386e-07
3.10292e-07
2.56377e-07
2.96183e-07
6.77693e-07
6.54912e-07
4.17532e-07
3.12398e-07
7.13277e-07
9.74835e-07
4.43352e-07
2.17275e-07
1.82397e-07
1.82861e-07
1.80695e-07
1.14215e-07
7.26513e-08
6.62009e-08
4.99321e-08
3.75326e-08
1.60516e-08
1.75911e-08
5.57339e-09
5.46668e-09
2.07101e-09
8.40942e-09
3.84173e-09
1.68901e-08
2.57564e-08
2.96807e-08
6.03522e-08
1.98809e-07
2.11213e-07
2.62805e-07
2.9901e-07
6.5356e-07
6.01064e-07
6.10252e-07
3.46755e-07
6.18028e-07
1.37819e-07
9.97049e-08
1.79862e-07
4.30906e-07
9.2346e-08
5.51171e-08
9.43366e-08
2.53146e-07
6.73239e-08
5.06296e-08
9.19506e-08
1.64278e-07
9.88973e-08
7.81856e-08
1.04815e-07
2.31534e-07
1.62852e-07
1.43687e-07
1.81471e-07
4.55518e-07
4.39747e-07
2.94717e-07
2.21468e-07
5.68955e-07
8.16638e-07
3.91483e-07
1.49456e-07
4.13378e-07
5.63667e-08
6.14807e-09
1.36897e-07
1.75779e-07
1.52553e-07
2.66746e-08
1.3427e-07
1.68641e-07
1.4317e-07
3.05698e-08
8.27283e-08
1.00388e-07
6.66403e-08
1.25304e-08
2.49086e-08
2.95223e-08
8.92104e-09
5.97122e-11
2.76161e-10
3.58479e-09
2.59597e-09
1.00423e-08
9.3591e-09
6.54712e-11
9.71539e-09
1.20377e-08
2.58471e-09
5.17328e-11
1.22852e-09
2.02171e-08
3.06406e-08
6.39696e-08
1.09571e-07
2.61674e-07
2.2241e-07
2.76344e-07
1.7832e-07
2.98373e-07
3.83136e-07
1.90196e-07
1.5021e-07
1.67505e-07
2.59301e-07
2.1061e-07
1.51612e-08
7.29976e-11
3.34388e-09
3.55838e-08
3.31672e-08
1.05118e-09
1.46796e-08
3.93391e-08
4.38578e-08
3.09948e-09
2.22027e-08
3.32502e-08
4.10599e-08
4.92758e-09
1.81384e-08
1.74846e-08
2.3882e-08
4.24454e-09
7.90373e-09
1.32999e-09
4.55039e-09
1.02451e-09
1.43658e-10
5.74654e-09
1.93516e-09
4.23245e-09
9.97829e-10
1.4069e-08
7.42238e-09
4.85982e-09
4.67976e-10
1.22882e-09
1.51368e-09
9.57185e-09
7.00733e-09
1.79132e-08
2.84255e-08
3.03787e-08
2.20433e-08
6.35294e-09
1.1196e-08
2.88772e-08
7.24367e-09
4.06729e-09
5.42086e-08
7.66916e-08
1.10373e-09
2.44168e-08
1.021e-07
1.9695e-07
2.6025e-10
2.97005e-08
9.19723e-08
2.40883e-07
9.63993e-10
1.44066e-08
4.47921e-08
1.7923e-07
3.60023e-10
2.48701e-09
1.231e-08
8.30373e-08
1.24505e-11
4.12328e-11
4.25417e-09
2.65696e-08
5.16902e-10
8.17781e-11
8.11232e-09
2.78466e-08
1.36546e-08
1.1001e-08
3.84256e-08
1.13961e-07
8.90453e-08
6.20782e-08
5.44082e-08
1.8881e-07
3.27362e-07
1.00262e-07
2.79466e-08
1.44708e-07
2.87559e-07
2.65114e-07
2.85241e-08
1.17164e-07
1.62713e-07
2.6204e-07
1.73916e-07
1.20958e-07
1.65768e-08
3.22125e-10
4.88996e-11
8.98219e-09
1.8589e-08
3.06864e-08
2.32251e-08
1.2078e-09
3.63156e-08
3.38129e-08
1.55257e-08
6.42331e-12
9.16394e-09
3.16618e-09
4.26915e-10
1.87543e-08
8.20791e-09
1.97525e-08
4.65513e-08
1.09384e-07
8.63272e-08
9.70372e-08
1.33588e-07
2.41375e-07
1.46473e-07
1.14268e-07
9.54193e-08
9.37106e-08
4.07552e-08
6.3405e-09
4.00233e-09
5.63421e-08
6.4053e-08
1.53209e-07
1.88117e-07
2.93033e-07
3.73557e-07
2.22717e-07
2.03923e-07
2.62305e-07
3.10479e-07
2.70797e-07
5.89183e-08
2.53484e-08
4.02142e-10
5.06503e-10
5.86126e-09
3.35582e-10
1.65953e-08
7.27379e-08
4.26787e-11
6.89909e-09
2.70607e-08
1.42682e-07
3.50507e-10
3.08106e-09
6.83434e-09
1.08357e-07
4.33129e-09
9.47404e-10
7.07432e-10
3.18266e-08
1.36248e-08
5.8868e-09
8.1427e-09
3.48924e-10
8.88871e-09
6.35238e-09
3.1989e-09
4.87521e-10
2.37782e-09
3.22334e-10
5.12685e-09
3.5363e-08
1.59841e-08
3.75664e-08
5.30938e-08
1.50798e-07
2.45374e-07
1.14769e-07
6.88113e-08
1.80523e-07
3.59138e-07
3.25236e-07
6.4583e-08
1.38834e-07
2.18182e-07
3.31169e-07
2.46491e-06
1.00873e-06
1.19545e-06
5.70622e-07
7.13979e-07
4.09151e-07
2.49291e-07
7.5623e-08
9.36693e-08
1.24892e-07
1.37167e-08
3.20018e-10
1.31734e-09
3.68877e-08
1.34293e-09
3.86658e-09
2.84951e-10
3.10011e-08
2.26752e-11
1.5032e-09
7.77818e-09
7.97393e-08
2.53789e-08
5.47785e-08
7.8944e-08
2.27597e-07
1.51207e-07
2.00974e-07
2.47526e-07
4.74611e-07
3.15102e-07
3.08719e-07
2.89348e-07
3.59654e-07
2.10617e-07
1.04721e-07
3.35525e-08
1.09914e-09
1.15286e-11
3.78987e-08
9.78229e-08
1.69952e-07
2.33715e-07
1.33358e-07
1.99426e-07
2.17407e-07
2.42218e-07
2.05336e-07
2.41198e-07
2.36121e-07
2.7105e-07
3.98913e-07
1.23724e-07
1.044e-07
8.00756e-08
7.34795e-08
3.61521e-08
3.19481e-08
1.71581e-08
5.02691e-10
9.96201e-09
8.15761e-09
4.11466e-09
2.83138e-08
7.25392e-09
7.05424e-09
1.41395e-08
2.68182e-08
2.24788e-08
2.32476e-08
4.66961e-08
1.18324e-09
5.05151e-08
4.46055e-08
6.94966e-08
1.62279e-08
4.82772e-08
4.77967e-08
4.38665e-08
4.61839e-08
4.3841e-08
1.26599e-08
5.8963e-09
3.37508e-13
8.56528e-09
4.64254e-09
1.49916e-08
5.60446e-08
7.63384e-08
5.36892e-08
5.90225e-08
9.47771e-08
2.33942e-07
2.22821e-07
7.59942e-08
9.45095e-08
1.49186e-07
2.64235e-07
2.9082e-06
3.41763e-06
2.48148e-06
3.82877e-06
1.37966e-06
2.05625e-06
1.23373e-06
1.63737e-06
7.867e-07
7.10934e-07
3.25079e-07
3.98057e-07
3.54336e-07
1.4283e-07
5.20395e-08
6.38536e-08
1.74563e-07
1.87828e-08
6.55694e-09
1.14554e-08
1.32255e-07
9.55844e-09
1.16687e-08
2.15902e-08
1.83654e-07
4.68512e-08
8.32759e-08
1.01389e-07
3.78197e-07
2.09997e-07
2.82533e-07
3.39711e-07
7.29294e-07
5.12433e-07
5.54193e-07
5.40735e-07
8.01011e-07
5.06729e-07
3.59607e-07
2.01476e-07
1.13558e-07
6.92817e-08
1.5608e-09
1.71067e-08
6.42154e-08
1.06983e-07
5.95132e-08
1.42123e-07
1.64795e-07
1.7503e-07
1.45485e-07
1.33245e-06
1.88637e-07
1.99018e-07
1.80902e-07
3.53193e-07
6.82343e-07
1.73086e-07
1.59845e-07
2.25795e-07
2.90057e-07
9.94666e-08
1.20956e-07
1.26939e-07
5.83777e-08
5.8185e-08
7.32518e-08
8.23585e-08
2.86283e-09
4.88244e-08
6.86476e-08
1.04593e-07
3.17149e-10
7.46466e-08
1.00263e-07
1.61823e-07
1.28253e-08
1.15526e-07
1.42489e-07
1.9824e-07
7.18078e-08
1.29544e-07
1.41112e-07
1.46307e-07
1.61681e-07
1.31377e-07
7.51304e-08
5.41096e-08
3.40711e-08
9.40245e-08
4.04812e-09
1.12234e-10
8.19889e-09
2.14552e-09
1.56081e-08
2.92838e-08
3.38942e-08
1.22308e-07
1.30209e-07
5.95066e-08
5.13471e-08
9.07375e-08
2.03132e-07
2.40963e-06
2.80176e-06
3.24758e-06
2.84804e-06
4.85419e-06
1.38426e-06
2.43791e-06
1.7887e-06
2.74975e-06
1.06758e-06
1.12909e-06
6.55813e-07
9.21663e-07
6.29115e-07
3.21491e-07
1.6939e-07
2.27038e-07
3.67117e-07
7.46664e-08
3.40672e-08
5.11617e-08
2.7366e-07
2.72644e-08
1.81328e-08
3.32886e-08
3.10384e-07
5.36197e-08
6.51237e-08
9.01992e-08
5.03259e-07
2.07558e-07
2.47363e-07
3.3487e-07
8.58514e-07
6.24063e-07
6.50953e-07
7.04088e-07
1.301e-06
8.23543e-07
6.80015e-07
4.20829e-07
4.44969e-07
2.79454e-07
8.41658e-08
3.22912e-09
7.09512e-09
1.77243e-08
9.97155e-09
7.08635e-08
1.01007e-07
1.06919e-07
9.08223e-08
9.32847e-07
6.8843e-08
6.50679e-08
5.84431e-08
2.45932e-07
7.8752e-07
1.09797e-07
1.26883e-07
2.87878e-07
5.36194e-07
1.28808e-07
1.7886e-07
2.79196e-07
2.27657e-07
1.24741e-07
1.77611e-07
2.34323e-07
6.44419e-08
1.36548e-07
1.83112e-07
2.49413e-07
3.48443e-08
1.79367e-07
2.30315e-07
3.19421e-07
5.79539e-08
2.31096e-07
2.87474e-07
3.56829e-07
1.36793e-07
2.48581e-07
2.66697e-07
2.65509e-07
2.85455e-07
2.13345e-07
1.65861e-07
1.17897e-07
9.96385e-08
2.21805e-07
2.96675e-08
5.00688e-09
7.93557e-10
2.91193e-08
2.8423e-10
1.03977e-08
3.87645e-09
3.81832e-08
5.4535e-08
2.59845e-08
1.64116e-08
4.58102e-08
1.41957e-07
1.68168e-06
2.04357e-06
2.08179e-06
2.61271e-06
4.89875e-06
8.4929e-07
1.65985e-06
1.77254e-06
3.24049e-06
8.31099e-07
8.53687e-07
6.86566e-07
1.30418e-06
5.93333e-07
2.72166e-07
1.75785e-07
3.49902e-07
4.20237e-07
5.78868e-08
2.06155e-08
6.71258e-08
3.09418e-07
1.09039e-08
4.56026e-11
1.45477e-08
2.94135e-07
1.26219e-08
8.23057e-10
1.95471e-08
3.80871e-07
7.10253e-08
4.11152e-08
1.31649e-07
5.23479e-07
3.68955e-07
2.91081e-07
4.20792e-07
1.19648e-06
6.48726e-07
5.8654e-07
3.84914e-07
7.16095e-07
3.91459e-07
1.95417e-07
2.16639e-08
6.04775e-09
1.16532e-08
4.60483e-09
1.9532e-08
3.56564e-08
3.21201e-08
2.5771e-08
9.95824e-08
1.08626e-07
1.98337e-07
2.55403e-07
1.66438e-07
6.49099e-08
2.30989e-07
1.40514e-07
7.37962e-08
3.58141e-08
8.05099e-08
1.21865e-08
1.69843e-10
2.23246e-08
6.05951e-11
1.4067e-08
6.98048e-08
1.87578e-08
4.88217e-08
8.77077e-08
1.96561e-07
2.53554e-08
1.4424e-07
1.66028e-07
2.8716e-07
4.038e-08
1.99901e-07
1.99471e-07
2.67157e-07
5.05586e-08
1.53457e-07
1.25552e-07
8.94246e-08
5.55247e-08
1.80285e-08
3.70826e-09
8.68098e-09
2.9666e-08
7.47985e-10
8.21539e-08
1.65989e-07
1.05032e-07
6.55168e-09
3.35035e-08
6.23954e-08
1.32059e-09
2.5155e-11
2.05027e-11
2.36037e-10
1.24857e-08
9.80134e-09
1.19344e-09
4.22718e-07
8.13021e-08
1.05459e-07
1.09094e-08
8.45642e-09
2.80078e-07
2.55162e-08
3.07204e-09
7.21777e-08
3.90664e-07
1.01261e-08
9.25161e-08
2.44999e-07
3.57452e-07
9.321e-08
2.14909e-07
3.72517e-07
2.21355e-07
1.69396e-07
3.02867e-07
4.85931e-07
1.26466e-07
2.60702e-07
3.5903e-07
5.28481e-07
1.07688e-07
2.92577e-07
3.56244e-07
4.82725e-07
1.2695e-07
2.43322e-07
2.14818e-07
2.56052e-07
2.57205e-07
7.80643e-08
5.74184e-08
5.78679e-08
3.67891e-08
1.35977e-07
9.61152e-10
1.06359e-10
9.80117e-10
1.2295e-07
4.84158e-09
6.52864e-11
1.57441e-09
8.17284e-11
4.91355e-10
2.39737e-09
1.4575e-11
2.20705e-10
2.9607e-08
3.23912e-07
1.10906e-06
1.56637e-06
2.10949e-06
3.18079e-06
5.63987e-07
2.5484e-06
2.46892e-06
3.51972e-06
8.90446e-07
2.31485e-06
1.75436e-06
2.22721e-06
9.27583e-07
1.21024e-06
8.07789e-07
8.60732e-07
7.65185e-07
3.8878e-07
2.49961e-07
2.09574e-07
5.53526e-07
8.9207e-08
5.13777e-08
2.57941e-08
3.96898e-07
1.93468e-08
9.64218e-09
2.60749e-09
3.33319e-07
2.79687e-08
2.25724e-08
5.35236e-08
2.43315e-07
2.98808e-07
2.31524e-07
4.79476e-07
1.17068e-06
7.67905e-07
9.87713e-07
1.29098e-06
1.69434e-06
9.47115e-07
8.4113e-07
7.27472e-07
2.91119e-07
3.86197e-07
7.99081e-08
5.0142e-08
1.48414e-09
4.36366e-09
3.48166e-13
7.37712e-12
5.62184e-12
2.04554e-12
7.51575e-12
5.29052e-12
2.20635e-12
8.25026e-12
3.57428e-12
5.10363e-12
3.53031e-12
4.08162e-12
5.69005e-12
3.12935e-12
4.94709e-12
3.85525e-12
5.16634e-12
5.10428e-12
2.62317e-12
5.61758e-12
4.4476e-12
4.69484e-12
4.55998e-12
6.59787e-12
8.22502e-12
4.17633e-12
9.82723e-12
9.38693e-12
9.89488e-12
9.34946e-12
1.49411e-11
1.65652e-11
1.5125e-11
2.00119e-11
2.00443e-11
3.07373e-11
2.79489e-11
2.86952e-11
1.72734e-11
9.10251e-11
2.0557e-11
2.61067e-11
2.55018e-11
2.25036e-10
4.06021e-11
2.74963e-11
1.22686e-10
5.36862e-10
1.55812e-10
9.00189e-11
2.01252e-09
3.03046e-10
8.7416e-10
9.59802e-10
3.22488e-09
1.58968e-09
2.65985e-09
3.59488e-09
3.30889e-09
4.24015e-09
4.48561e-09
5.94628e-09
1.97935e-09
5.19578e-09
3.95505e-09
4.79644e-09
8.08136e-10
3.29815e-09
1.88577e-09
2.35207e-09
4.08423e-10
1.58892e-09
8.23403e-10
1.18613e-09
6.0185e-10
9.391e-10
4.35478e-10
1.6489e-09
2.98512e-10
5.91202e-10
7.03564e-12
3.7862e-09
1.98633e-10
3.46416e-10
6.68951e-09
1.63819e-08
1.10933e-08
1.188e-08
5.09865e-08
1.00829e-07
4.50384e-08
2.84745e-08
5.6037e-08
9.70737e-10
2.51868e-07
4.35679e-10
2.91179e-09
4.65592e-08
5.11033e-07
6.15981e-08
8.99498e-08
3.0163e-07
6.44076e-07
2.15238e-07
2.83729e-07
5.11666e-07
4.73202e-07
3.38466e-07
4.6597e-07
6.96873e-07
3.02193e-07
4.42008e-07
5.53395e-07
7.24341e-07
2.26748e-07
4.67315e-07
5.72383e-07
6.51595e-07
2.04236e-07
3.91701e-07
4.04674e-07
3.53687e-07
3.64745e-07
1.23674e-07
1.63019e-07
1.14318e-07
8.55755e-08
2.19691e-07
1.59212e-08
1.58289e-08
5.67881e-09
3.23759e-07
4.76864e-09
7.95663e-09
1.07261e-08
3.69667e-08
3.71657e-08
8.27258e-09
3.81347e-09
6.04243e-09
4.41245e-09
2.4407e-11
3.57381e-11
5.28607e-11
2.63497e-11
3.17466e-11
4.65746e-11
2.93751e-11
2.86121e-11
2.97029e-11
4.3923e-11
2.2904e-11
2.58285e-11
3.5839e-11
2.62234e-11
2.27853e-11
2.31287e-11
3.32574e-11
2.26086e-11
2.11232e-11
2.46603e-11
2.72464e-11
1.88408e-11
1.89213e-11
2.4683e-11
2.3174e-11
1.69163e-11
2.08972e-11
3.12825e-11
1.68838e-11
2.06409e-11
3.05541e-11
3.02803e-11
2.4415e-11
3.69479e-11
6.87674e-11
3.50784e-11
6.54668e-11
1.31726e-10
8.41709e-11
1.347e-10
2.43913e-10
4.74726e-10
1.42537e-10
4.48534e-10
8.15253e-10
1.35652e-09
2.40011e-10
1.1131e-09
1.95031e-09
7.90946e-10
1.25691e-09
1.61589e-09
2.46485e-09
9.46115e-10
8.60724e-10
1.08012e-09
1.40864e-09
7.30671e-10
7.89991e-11
2.05488e-10
3.09575e-10
3.66323e-10
6.14832e-11
2.02018e-12
3.21458e-11
1.44672e-10
1.01975e-10
7.09495e-12
8.20756e-11
8.91894e-11
8.35526e-13
1.63192e-10
3.71838e-10
3.92885e-11
7.54119e-11
6.55905e-10
5.49135e-10
4.36599e-10
8.56393e-10
4.61951e-09
1.94072e-09
6.76334e-09
1.6017e-08
5.53936e-08
1.57252e-08
7.86302e-08
1.61822e-07
3.9648e-07
1.07989e-07
4.65057e-07
8.02535e-07
1.2353e-06
2.06797e-06
2.41433e-07
1.78002e-06
2.02362e-06
3.08751e-06
5.49057e-07
2.06782e-06
1.72137e-06
2.38753e-06
7.30773e-07
1.28955e-06
9.4828e-07
1.07874e-06
6.89983e-07
4.86184e-07
2.86627e-07
2.63905e-07
5.52444e-07
1.00698e-07
5.01538e-08
2.22336e-08
3.82417e-07
8.00987e-09
1.01523e-09
1.53254e-09
2.72356e-07
1.35034e-09
1.43594e-09
6.98781e-09
1.03416e-07
1.69554e-07
1.16714e-07
2.68983e-07
8.09292e-07
4.75992e-07
8.20797e-07
1.14675e-06
1.73679e-06
7.86989e-07
1.00254e-06
9.26505e-07
4.89117e-07
7.46081e-07
1.58504e-07
1.5521e-07
3.89704e-08
6.24736e-08
1.79646e-08
9.37984e-12
6.65153e-12
1.00001e-12
8.29806e-12
7.60367e-12
1.4837e-12
7.63491e-12
5.71734e-12
5.37517e-12
2.13047e-12
5.88884e-12
7.66608e-12
1.73373e-12
5.15123e-12
5.0408e-12
4.15594e-12
2.53418e-12
3.39213e-12
5.01484e-12
1.95268e-12
3.29302e-12
4.53705e-12
4.74849e-12
4.48957e-12
2.45103e-12
9.76805e-12
5.73299e-12
3.17385e-12
9.10284e-12
1.20247e-11
9.61796e-12
3.95578e-12
1.9493e-11
1.24054e-11
1.56495e-11
8.49695e-12
3.03535e-11
9.97401e-12
1.4634e-11
2.82881e-11
2.52805e-11
9.40149e-12
3.79391e-11
6.75141e-11
1.01032e-11
2.17834e-11
1.12751e-10
1.6128e-10
2.53377e-12
2.26746e-10
1.44416e-10
3.11397e-10
4.16336e-11
4.02667e-10
4.76757e-10
4.07322e-10
2.1846e-10
4.48991e-10
9.57269e-10
3.9189e-10
3.92417e-10
2.96894e-10
9.87494e-10
2.2319e-10
3.17755e-10
1.39383e-10
5.79451e-10
9.02869e-11
1.56924e-10
7.48834e-11
3.27793e-10
3.51592e-11
1.069e-10
1.19072e-10
2.75103e-10
2.89075e-11
1.52721e-10
1.08012e-10
3.14452e-10
1.63906e-12
3.64406e-10
8.49147e-12
2.13655e-10
1.91143e-09
1.83718e-09
1.31532e-09
1.26913e-10
2.98087e-08
1.43289e-08
1.70604e-08
3.79605e-09
9.49758e-08
2.56133e-08
1.15972e-07
1.19338e-09
6.91675e-08
2.6545e-11
3.41995e-07
1.8349e-08
7.0251e-09
1.31047e-07
5.81764e-07
1.41786e-07
1.65619e-07
3.79857e-07
5.11558e-07
3.40833e-07
3.94058e-07
6.60032e-07
3.62647e-07
4.76746e-07
5.50398e-07
7.22735e-07
2.49515e-07
5.16573e-07
6.0235e-07
6.43197e-07
1.8194e-07
4.17046e-07
4.37499e-07
3.19464e-07
2.89279e-07
7.64947e-08
1.61002e-07
7.02261e-08
3.21384e-08
1.12038e-07
4.14617e-09
1.91979e-10
1.71953e-10
2.3997e-07
2.75429e-10
1.00936e-10
1.35724e-09
5.0506e-08
9.13614e-08
7.47041e-09
1.02948e-08
2.54821e-08
4.45477e-09
1.31668e-11
1.77716e-11
4.362e-11
1.91243e-11
1.49461e-11
3.3822e-11
2.75111e-11
1.42283e-11
1.72301e-11
4.19467e-11
1.5882e-11
1.30372e-11
3.13323e-11
2.56857e-11
1.24716e-11
1.63289e-11
3.59255e-11
1.53855e-11
1.13867e-11
2.28839e-11
2.48459e-11
8.71432e-12
1.10046e-11
2.05707e-11
1.47187e-11
5.41513e-12
1.08272e-11
2.5231e-11
3.92621e-12
5.03056e-12
1.14316e-11
1.7793e-11
3.32367e-12
6.76726e-12
1.85002e-11
1.23189e-11
6.96252e-12
2.13852e-11
3.44084e-11
1.38674e-11
3.12182e-11
8.23327e-11
4.20178e-11
6.15374e-11
1.19718e-10
2.53369e-10
5.18367e-11
1.74441e-10
3.22972e-10
1.98235e-10
1.93096e-10
2.77629e-10
4.84997e-10
2.17338e-10
1.69553e-10
2.33061e-10
3.87471e-10
1.6153e-10
5.33272e-11
9.66484e-11
1.79113e-10
8.09043e-11
5.09737e-12
2.67837e-11
7.51505e-11
3.18142e-11
3.04159e-13
1.38616e-11
5.05028e-11
1.31088e-11
9.1787e-13
2.818e-11
6.00975e-11
1.79332e-12
6.94811e-12
5.38512e-11
6.65545e-11
2.10734e-11
7.17392e-11
4.37501e-10
2.40927e-10
6.51999e-10
1.99287e-09
8.2217e-09
2.58442e-09
1.3719e-08
3.34141e-08
1.0009e-07
2.85848e-08
1.34486e-07
2.52252e-07
5.20843e-07
1.05306e-06
6.31342e-08
7.67419e-07
1.28387e-06
2.27528e-06
2.28283e-07
1.0965e-06
1.37425e-06
2.29793e-06
4.26781e-07
7.57338e-07
7.81655e-07
1.2672e-06
5.21676e-07
2.71031e-07
1.86268e-07
3.53651e-07
4.75955e-07
3.77892e-08
5.06876e-09
2.46419e-08
3.39862e-07
7.96459e-10
2.84428e-08
1.14972e-08
2.13339e-07
1.26948e-08
3.55194e-08
3.40956e-09
2.67962e-08
6.25095e-08
7.3438e-09
8.02918e-08
4.54066e-07
2.07156e-07
4.00505e-07
5.55458e-07
1.37279e-06
4.16837e-07
8.17405e-07
5.75421e-07
6.53137e-07
1.0027e-06
1.50715e-07
1.57636e-07
1.02754e-07
1.68285e-07
4.35654e-08
5.33316e-13
3.49831e-13
9.01709e-13
4.12698e-13
1.34254e-13
9.33739e-13
2.74204e-13
6.59819e-14
3.18162e-13
3.18738e-13
1.73347e-13
1.5065e-13
3.80626e-13
8.15042e-14
7.43711e-14
1.85733e-13
1.96211e-13
7.56339e-16
1.26496e-13
2.70402e-13
3.78794e-14
6.7904e-14
3.0774e-14
1.8735e-16
1.92811e-13
9.47159e-15
3.15518e-13
2.64337e-13
2.24966e-13
5.45557e-13
1.18372e-12
3.57395e-13
1.25727e-12
1.66998e-12
1.9087e-12
1.41942e-13
3.48375e-12
1.96265e-12
1.28508e-13
3.13716e-12
2.75124e-12
5.75096e-13
4.26673e-14
6.21819e-12
1.38778e-17
5.78912e-14
2.73701e-12
1.00838e-11
5.33454e-12
4.11542e-12
3.31006e-12
7.48318e-12
3.76112e-12
1.16917e-11
1.42872e-11
3.58547e-12
1.30507e-13
1.67499e-11
3.33061e-11
9.97778e-13
9.06081e-13
1.13819e-11
3.70795e-11
2.0782e-14
1.33468e-12
5.62908e-12
1.91609e-11
1.86663e-13
9.14907e-13
3.23765e-12
9.60765e-12
4.60257e-14
3.81755e-12
5.63809e-12
1.57144e-11
1.68773e-12
7.499e-12
1.18743e-11
2.98892e-11
9.54473e-13
1.42498e-11
3.06546e-13
1.62962e-11
3.98597e-10
7.36708e-11
3.88905e-10
1.23226e-10
1.10443e-08
3.69519e-10
9.13933e-09
5.40296e-09
7.7168e-08
6.29844e-08
1.19222e-08
3.19593e-08
1.90594e-07
1.14415e-07
4.60437e-08
5.27498e-08
9.83618e-08
2.306e-08
1.12824e-07
9.81214e-09
3.13846e-09
2.16593e-08
1.1863e-07
2.99272e-08
5.72282e-08
2.04778e-07
1.03797e-07
1.72177e-07
1.89509e-07
4.1056e-07
8.10656e-08
3.13558e-07
3.12013e-07
4.75393e-07
6.99756e-08
3.12336e-07
2.79939e-07
2.23997e-07
1.4613e-07
2.05714e-08
6.07845e-08
2.99121e-09
7.89814e-09
5.85649e-10
5.16189e-08
1.58907e-07
2.45877e-07
1.19602e-11
1.62622e-07
2.73106e-07
1.55602e-07
8.25755e-08
2.48055e-09
6.94655e-08
1.90557e-08
1.98639e-09
1.65969e-09
4.62293e-12
1.34325e-12
9.04034e-13
5.97913e-12
1.3483e-12
9.18043e-13
7.81527e-12
1.01012e-12
2.17738e-12
2.47286e-12
4.27156e-12
2.33523e-12
2.20085e-12
6.46381e-12
1.67989e-12
3.08644e-12
4.10098e-12
2.98637e-12
3.16122e-12
3.104e-12
4.63113e-12
1.83337e-12
3.57738e-12
5.37709e-12
1.89316e-12
4.25887e-12
6.2681e-12
3.47975e-12
3.89636e-12
6.87843e-12
1.06902e-11
1.25182e-12
6.82618e-12
9.69202e-12
1.49746e-11
3.53356e-13
9.18364e-12
1.25913e-11
1.89889e-12
6.57435e-12
8.70662e-12
1.16549e-11
1.1892e-12
4.47703e-12
5.6153e-12
7.48264e-12
1.0382e-12
1.31577e-12
1.42845e-12
6.88721e-12
3.58186e-14
8.58411e-14
1.23429e-13
6.80975e-12
3.1361e-13
3.90729e-14
4.09742e-14
4.21199e-12
9.23595e-13
1.4911e-13
5.29646e-14
1.52085e-12
1.03489e-12
7.74242e-14
7.58421e-15
8.16944e-13
4.59854e-13
2.35922e-16
4.86083e-13
7.37896e-13
1.99424e-14
5.68358e-13
6.97989e-12
5.56361e-13
2.48086e-12
5.59867e-12
8.64678e-12
4.56547e-12
6.37489e-12
9.00669e-12
1.81183e-11
2.46095e-12
4.68653e-14
3.30024e-12
1.08561e-10
3.73898e-11
2.66707e-10
8.64997e-10
1.22525e-09
2.1206e-09
6.26544e-09
9.0825e-09
7.61049e-09
7.3286e-09
2.69098e-08
2.67116e-08
7.24092e-09
5.43676e-08
1.55656e-08
5.02779e-10
2.41373e-08
2.26828e-07
8.97496e-09
6.27386e-08
2.08156e-07
3.66911e-07
1.25007e-07
2.82659e-07
5.13119e-07
3.64464e-07
3.00839e-07
4.60099e-07
6.21958e-07
2.50482e-07
3.68437e-07
4.90981e-07
5.45713e-07
1.46416e-07
2.79834e-07
2.80493e-07
2.3184e-07
1.65809e-07
1.53344e-08
4.68014e-08
1.60302e-08
6.6403e-10
1.04897e-08
2.0877e-08
4.61939e-08
7.47402e-08
5.21824e-08
9.61891e-08
6.66696e-08
2.20319e-08
4.27924e-12
9.13132e-08
1.56701e-10
4.37614e-09
2.3003e-08
4.69593e-08
1.28789e-11
2.01969e-11
2.91508e-11
1.3801e-11
1.87305e-11
2.78373e-11
1.52397e-11
1.80897e-11
1.88729e-11
2.64509e-11
1.30312e-11
1.71981e-11
2.37196e-11
1.4582e-11
1.65725e-11
1.68332e-11
2.32046e-11
1.42222e-11
1.72798e-11
1.93866e-11
1.70511e-11
1.65763e-11
1.5056e-11
1.57133e-11
1.44293e-11
1.15889e-11
8.8425e-12
1.59195e-11
7.65222e-12
6.30426e-12
5.27119e-12
1.30943e-11
4.42914e-12
2.66896e-12
3.78196e-12
1.02727e-11
2.11904e-12
1.45229e-12
1.19536e-11
1.9956e-12
2.04863e-12
3.48416e-12
1.11516e-11
4.12811e-12
5.61816e-12
1.17901e-11
1.12011e-11
1.15514e-11
2.02856e-11
1.86736e-11
1.96052e-11
2.82661e-11
4.35314e-11
2.07297e-11
3.19649e-11
4.13762e-11
6.05486e-11
1.98068e-11
3.61583e-11
4.29153e-11
5.95596e-11
1.34801e-11
3.03453e-11
3.03017e-11
3.99889e-11
8.07542e-12
1.84618e-11
1.51586e-11
1.89911e-11
3.33598e-12
6.06636e-12
7.16289e-12
4.12621e-12
1.9095e-12
1.11e-12
1.03442e-12
2.1298e-12
4.46865e-15
3.06977e-14
1.87635e-12
4.30576e-12
2.92775e-12
1.47183e-11
1.46167e-10
5.93889e-11
3.31754e-10
9.29735e-10
4.24535e-09
1.00433e-09
7.96692e-09
1.76183e-08
4.75867e-08
9.85887e-08
8.54419e-09
1.27573e-07
2.58962e-07
4.24026e-07
4.7666e-08
4.02671e-07
5.3318e-07
7.25861e-07
1.23509e-07
5.08045e-07
4.99808e-07
5.68133e-07
1.97184e-07
2.87866e-07
1.93836e-07
1.55276e-07
1.91736e-07
3.99756e-08
1.79631e-08
1.11347e-09
1.32725e-07
4.43053e-09
1.82502e-08
5.04e-08
5.2258e-08
4.25743e-08
4.98383e-08
3.48049e-08
2.56634e-09
9.24912e-09
3.40532e-10
1.4677e-08
1.16899e-07
4.66274e-08
1.82631e-07
3.99226e-07
8.14514e-07
2.08711e-07
7.3467e-07
1.00287e-06
1.00346e-06
1.3288e-06
2.63143e-07
6.78247e-07
4.56266e-07
5.23404e-07
1.79903e-07
6.49041e-12
3.36202e-12
6.79491e-13
6.10538e-12
4.01618e-12
1.05693e-12
5.92771e-12
3.94766e-12
3.9236e-12
1.51286e-12
5.12746e-12
5.48245e-12
1.51851e-12
4.99178e-12
4.37267e-12
3.84483e-12
2.15544e-12
4.13867e-12
4.73341e-12
1.56212e-12
3.96926e-12
3.49745e-12
3.02108e-12
2.52147e-12
2.97257e-12
5.56377e-12
3.4226e-12
2.82974e-12
5.25352e-12
6.35367e-12
6.13007e-12
1.79297e-12
7.75634e-12
6.77778e-12
8.47836e-12
1.1739e-12
9.11571e-12
7.3301e-12
1.11933e-12
6.73928e-12
6.67881e-12
5.27341e-12
5.08323e-13
4.78698e-12
2.53186e-12
1.91073e-12
2.33959e-13
1.6622e-12
6.10623e-15
3.492e-13
2.31759e-15
5.1438e-14
3.0659e-12
1.76387e-13
1.09082e-12
3.01519e-12
8.68694e-12
7.11584e-14
3.08305e-12
6.45216e-12
8.8294e-12
2.01082e-13
3.08099e-12
5.26636e-12
3.68421e-12
6.33486e-13
1.30971e-12
1.50414e-12
1.39729e-13
1.06932e-12
2.31343e-14
8.32667e-17
3.49761e-12
7.58428e-13
2.65077e-12
3.14239e-12
5.01522e-12
5.00903e-12
9.1713e-12
8.81838e-12
7.56972e-12
9.86614e-12
1.61844e-11
3.95887e-12
1.9467e-11
2.63656e-12
6.99526e-12
8.98582e-11
1.60774e-10
1.06643e-10
6.66238e-11
2.18047e-09
2.38389e-09
2.68946e-09
8.59797e-10
1.4427e-08
7.7285e-09
1.98393e-08
1.8037e-11
6.7865e-09
6.01583e-10
1.03097e-07
1.80727e-08
1.23345e-08
5.93669e-08
2.06024e-07
1.08954e-07
1.49121e-07
2.38195e-07
2.36387e-07
2.52627e-07
3.28124e-07
3.47302e-07
1.68761e-07
2.93472e-07
3.89188e-07
3.00035e-07
8.51303e-08
1.94798e-07
2.10867e-07
1.02326e-07
7.3747e-08
9.0828e-09
3.52037e-08
6.42762e-09
2.32354e-11
5.79278e-09
7.60147e-09
2.89798e-08
7.87191e-08
3.51027e-08
5.44958e-08
3.70835e-08
2.83614e-08
8.52598e-11
1.37335e-07
1.65695e-09
5.04005e-09
3.50051e-08
1.13395e-07
7.30419e-12
1.10067e-11
2.48641e-11
1.04591e-11
9.63938e-12
2.06354e-11
1.44323e-11
9.36721e-12
1.12566e-11
2.5319e-11
9.17622e-12
8.96133e-12
2.01503e-11
1.41738e-11
8.83937e-12
1.11561e-11
2.42031e-11
9.4816e-12
8.58668e-12
1.79707e-11
1.52709e-11
8.99261e-12
1.08582e-11
1.85566e-11
1.03612e-11
6.41567e-12
1.01151e-11
1.675e-11
4.01114e-12
4.39422e-12
7.37595e-12
1.12664e-11
2.09869e-12
2.88318e-12
5.88998e-12
6.80041e-12
1.02414e-12
2.09018e-12
1.27885e-11
6.843e-13
1.24076e-12
3.6281e-12
8.91621e-12
1.51538e-12
3.46551e-12
9.28654e-12
6.90281e-12
5.39106e-12
1.26376e-11
1.39571e-11
1.02719e-11
1.5827e-11
3.12497e-11
1.33524e-11
2.14438e-11
2.92509e-11
5.27123e-11
1.18016e-11
2.97302e-11
3.53249e-11
5.95563e-11
8.2153e-12
2.67979e-11
2.85473e-11
4.41842e-11
4.53638e-12
1.58809e-11
1.60572e-11
2.42459e-11
1.84486e-12
4.96105e-12
9.29212e-12
5.75696e-12
1.35136e-12
7.08572e-13
1.89891e-12
3.8204e-12
1.21257e-13
2.45033e-13
1.93748e-13
3.71971e-12
5.95586e-13
1.39819e-14
1.27218e-11
2.08555e-11
2.35636e-11
1.06999e-10
6.21782e-10
2.26956e-10
1.21073e-09
3.29687e-09
9.1535e-09
2.52441e-08
1.41828e-09
3.20744e-08
7.12904e-08
1.50809e-07
1.04078e-08
1.28725e-07
2.01875e-07
3.49128e-07
3.43683e-08
1.82267e-07
2.25223e-07
3.47427e-07
7.08608e-08
9.40209e-08
8.05035e-08
1.13224e-07
8.4644e-08
2.10021e-09
5.47107e-11
1.74083e-09
6.77549e-08
2.44664e-08
4.40603e-08
3.26989e-08
2.87836e-08
5.48985e-08
5.24272e-08
2.11894e-08
1.87774e-09
1.03439e-09
1.81456e-09
3.85333e-09
4.69934e-08
1.23363e-08
7.73001e-08
1.91239e-07
4.96364e-07
9.6594e-08
4.84019e-07
6.65022e-07
8.86479e-07
1.3492e-06
1.85073e-07
5.5175e-07
5.01161e-07
6.99666e-07
1.7891e-07
3.7044e-13
2.09978e-13
5.51864e-13
2.91794e-13
7.9492e-14
5.73173e-13
2.19984e-13
3.52982e-14
1.61746e-13
2.15952e-13
1.91874e-13
5.32283e-14
2.42036e-13
1.33143e-13
1.4419e-14
7.64111e-14
6.49966e-14
6.40946e-14
1.91652e-14
1.06956e-13
1.68407e-14
1.1588e-15
1.89709e-14
4.88637e-14
4.2813e-15
3.7817e-15
3.81639e-16
1.65354e-14
4.4395e-14
8.1074e-14
2.88922e-13
1.86476e-13
1.49693e-13
4.35096e-13
5.42247e-13
3.44808e-13
3.96821e-13
7.81125e-13
4.72712e-13
2.49419e-13
2.65669e-13
2.18603e-13
7.86794e-13
3.52496e-15
3.19189e-15
1.79905e-13
8.83349e-13
6.66626e-13
1.9382e-12
1.14796e-12
2.12002e-12
4.21611e-12
8.14756e-12
1.09104e-12
6.52792e-12
1.04333e-11
1.52227e-11
8.70443e-13
1.12936e-11
1.4591e-11
1.57296e-11
5.02168e-13
1.31186e-11
1.05473e-11
9.73513e-12
2.60292e-13
7.52201e-12
3.85548e-12
3.26007e-12
3.1343e-14
2.00331e-12
6.84112e-13
8.34471e-14
9.06913e-15
5.75928e-16
6.08812e-13
5.06158e-13
1.54147e-12
1.65127e-12
4.2671e-12
8.40286e-13
5.10599e-12
6.28454e-12
5.59196e-12
1.71029e-12
4.89494e-12
9.83249e-12
1.10377e-11
8.48946e-12
1.21246e-11
2.61492e-13
6.41628e-10
9.86177e-10
2.44617e-10
1.34513e-10
7.48255e-09
6.91032e-09
1.99211e-09
7.12907e-10
1.45083e-08
5.8274e-09
1.50621e-08
7.307e-11
2.63887e-09
6.03259e-10
3.66792e-08
1.50846e-08
1.73498e-08
4.11662e-08
5.17432e-08
7.58771e-08
8.99221e-08
1.00953e-07
3.66882e-08
1.14426e-07
1.47824e-07
9.30555e-08
1.6383e-08
7.18796e-08
7.91812e-08
2.10341e-08
1.49053e-08
1.47852e-09
7.1963e-09
1.45872e-11
5.04934e-09
4.30803e-12
1.52679e-08
5.24138e-08
1.35883e-07
9.07719e-10
1.3765e-07
1.98859e-07
2.22725e-07
1.69638e-07
4.64942e-09
1.36075e-07
8.75266e-08
3.83807e-08
9.12511e-09
2.82582e-12
7.21784e-13
3.59171e-13
3.68178e-12
7.48936e-13
3.54265e-13
4.75374e-12
5.66519e-13
1.13787e-12
1.10579e-12
2.81495e-12
1.28338e-12
9.97029e-13
4.03365e-12
9.80854e-13
1.68891e-12
2.17223e-12
2.27639e-12
1.85628e-12
1.793e-12
3.46786e-12
1.3638e-12
2.19791e-12
2.76183e-12
1.66883e-12
2.54963e-12
2.86507e-12
2.9614e-12
2.18926e-12
3.6538e-12
5.34806e-12
1.35562e-12
3.55352e-12
4.75215e-12
7.02804e-12
4.33487e-13
4.35328e-12
5.32079e-12
1.06892e-12
2.61652e-12
3.33038e-12
3.8687e-12
2.08132e-13
1.41785e-12
1.36988e-12
1.21005e-12
2.35922e-16
9.4931e-14
6.61485e-14
1.99736e-13
5.90944e-13
9.17898e-13
2.8822e-12