/*--------------------------------*- C++ -*----------------------------------*\
| =========                 |                                                 |
| \\      /  F ield         | OpenFOAM: The Open Source CFD Toolbox           |
|  \\    /   O peration     | Version:  v2012                                 |
|   \\  /    A nd           | Website:  www.openfoam.com                      |
|    \\/     M anipulation  |                                                 |
\*---------------------------------------------------------------------------*/
FoamFile
{
    version     2.0;
    format      ascii;
    class       volScalarField;
    location    "1e-06";
    object      nut;
}
// * * * * * * * * * * * * * * * * * * * * * * * * * * * * * * * * * * * * * //

dimensions      [0 2 -1 0 0 0 0];


internalField   nonuniform List<scalar> 
10098
(
0.00176415
0.00176702
0.00178577
0.00180558
0.00182027
0.0018196
0.00181869
0.00181855
0.00181835
0.0018154
0.00180178
0.00175549
0.001768
0.00177188
0.0017955
0.00181475
0.00182736
0.00182671
0.00183197
0.00183336
0.00182865
0.00182351
0.00178445
0.00180943
0.00178044
0.00178577
0.00181175
0.00183771
0.00185869
0.00186038
0.00186728
0.00187284
0.00187733
0.00187577
0.00186555
0.00184107
0.001568
0.0015757
0.00158666
0.00159912
0.00160283
0.00161918
0.00164134
0.0016631
0.0016694
0.00169386
0.00172468
0.00175282
0.0017817
0.00178766
0.00181741
0.00184312
0.00186257
0.00186433
0.00187684
0.00188461
0.00188439
0.00188085
0.00187583
0.00187273
0.00156881
0.00157588
0.00158563
0.00159887
0.00160272
0.00161838
0.00163834
0.00166238
0.001669
0.00169343
0.00172225
0.00175305
0.00178263
0.00178884
0.00181978
0.00184723
0.00186592
0.00186801
0.00188457
0.00189511
0.00189099
0.00188606
0.00185179
0.00184478
0.00156745
0.00157228
0.00158033
0.00159042
0.00159404
0.00160903
0.00162976
0.0016513
0.00165815
0.0016838
0.00171598
0.00174711
0.00177993
0.00178794
0.00182368
0.00185624
0.00188287
0.00188731
0.00190806
0.00192334
0.00192861
0.00192689
0.00192642
0.0018767
0.00156789
0.00157121
0.00157765
0.00158913
0.00159332
0.00160659
0.00162452
0.00164891
0.001657
0.00168156
0.00171085
0.00174502
0.00177999
0.00178754
0.00182284
0.00185748
0.00188567
0.00189025
0.00191364
0.00193105
0.00193523
0.00193253
0.00184406
0.00183031
0.00156069
0.00156199
0.00156644
0.00157352
0.00157687
0.00158948
0.00160762
0.0016282
0.00163545
0.00166132
0.00169387
0.00172732
0.00176352
0.00177336
0.00181424
0.00185373
0.00188829
0.00189547
0.00192504
0.00194879
0.00196122
0.00196165
0.00196689
0.0018648
0.00155989
0.00156028
0.00155955
0.00156214
0.00157097
0.00157515
0.00158527
0.00160024
0.00162383
0.00163303
0.00165685
0.00168579
0.00172233
0.00176182
0.00177049
0.00180958
0.00185113
0.00188891
0.00189611
0.00192714
0.00195255
0.00196588
0.00196574
0.00189214
0.00182166
0.00155489
0.001549
0.00154853
0.00154593
0.00154619
0.0015496
0.00155242
0.0015617
0.00157631
0.00159474
0.00160206
0.00162699
0.00165894
0.00169364
0.00173232
0.00174371
0.00178871
0.00183448
0.00187678
0.00188678
0.0019257
0.0019587
0.00197936
0.00198223
0.00199479
0.00182772
0.00156108
0.0015528
0.00154769
0.00154743
0.0015424
0.00154056
0.00154601
0.00154988
0.00155599
0.00156695
0.00158861
0.00159852
0.00162044
0.0016478
0.00168587
0.00172897
0.00173845
0.00178033
0.00182794
0.00187514
0.00188499
0.00192402
0.00195821
0.00198181
0.00198457
0.00199942
0.00177552
0.00156343
0.00155372
0.00154313
0.00153374
0.00153249
0.00152579
0.00152143
0.00152057
0.00152259
0.0015276
0.00153779
0.00155282
0.00155985
0.00158235
0.00161244
0.00164724
0.0016875
0.00170004
0.00174817
0.00179905
0.00184835
0.0018611
0.00190928
0.00195216
0.00198214
0.00198787
0.00200927
0.00177705
0.00203241
0.00158111
0.00158286
0.00152043
0.001511
0.00158933
0.00158834
0.00158207
0.00153609
0.00156492
0.00156287
0.00155156
0.00154016
0.00153188
0.00153088
0.00152146
0.0015148
0.00151626
0.00151948
0.00152078
0.00152654
0.00154533
0.00155549
0.00157408
0.00159813
0.00163691
0.00168271
0.00169257
0.00173579
0.0017887
0.00184453
0.00185682
0.00190348
0.00191413
0.00198213
0.00198818
0.00201107
0.00171838
0.00203664
0.00204023
0.00204128
0.00178099
0.00177004
0.00205427
0.00200214
0.00091859
0.000981948
0.00101967
0.000988609
0.00094188
0.000976234
0.00103087
0.00100393
0.00093162
0.000948785
0.00101601
0.00101134
0.000920888
0.000920695
0.00100554
0.00103547
0.000929393
0.000908698
0.00100927
0.00108462
0.000977178
0.00093064
0.00104891
0.00117368
0.00111311
0.00103145
0.00108762
0.00127644
0.00124717
0.00114736
0.00115858
0.00128439
0.00127421
0.00117005
0.00113474
0.00116622
0.00122362
0.00112813
0.00112252
0.00120193
0.00124506
0.00119511
0.00117325
0.00120188
0.00152843
0.00153647
0.00148408
0.00156154
0.00156319
0.00156481
0.00151834
0.00155622
0.00154503
0.00154306
0.00153172
0.00151629
0.00149953
0.00149656
0.0014844
0.00147162
0.00145917
0.00145765
0.00145632
0.00145822
0.00146053
0.00146198
0.00148066
0.0015079
0.00153508
0.0015699
0.00158564
0.0016426
0.00169724
0.00175207
0.00176878
0.00183673
0.00189677
0.00194453
0.00195531
0.00199844
0.00175032
0.00205248
0.00206691
0.00206888
0.00177772
0.00208386
0.00201348
0.00208968
0.0015236
0.00153016
0.00152948
0.00155695
0.00156087
0.00156197
0.00156094
0.00155362
0.00154365
0.00154148
0.00152876
0.00151302
0.00149721
0.00149442
0.00147933
0.00146522
0.00145418
0.0014541
0.00144824
0.00144744
0.00145163
0.00145708
0.0014703
0.0014926
0.00152217
0.00156179
0.00157512
0.00162576
0.00168331
0.00174379
0.00176102
0.00182457
0.00188772
0.00193978
0.00195239
0.00199518
0.0018066
0.00205314
0.00206819
0.00207085
0.00177891
0.00178816
0.0020919
0.00197549
0.00142179
0.00145643
0.00148293
0.00149354
0.00151822
0.00153181
0.00153825
0.00154144
0.00154454
0.00153929
0.00152927
0.0015276
0.00151597
0.00149896
0.00147976
0.00147605
0.00145965
0.00144152
0.00142405
0.00142135
0.00141353
0.0014078
0.00140452
0.00140503
0.00141748
0.00143743
0.00146117
0.00149366
0.00150948
0.00156476
0.00162171
0.00168067
0.0016993
0.00177355
0.00184306
0.00190213
0.00191608
0.00197146
0.00188543
0.00204622
0.0020671
0.00207176
0.00188484
0.00209426
0.00200401
0.00210048
0.00134736
0.0013613
0.00140849
0.00144461
0.00147594
0.00148451
0.00151018
0.00152489
0.00153438
0.00153682
0.00154005
0.0015354
0.001527
0.00152512
0.00151251
0.00149533
0.00147701
0.00147347
0.00145449
0.00143525
0.00141856
0.00141728
0.00140491
0.00139727
0.0013945
0.00139919
0.00140577
0.00142237
0.00144624
0.00148392
0.00149673
0.00154651
0.00160493
0.00167001
0.00168896
0.00175834
0.00183079
0.00189476
0.00191106
0.00196517
0.00193753
0.00204467
0.00206729
0.00207206
0.00194915
0.00178678
0.00210161
0.00195371
0.00115665
0.00121464
0.00126506
0.00128621
0.00134
0.0013854
0.00142083
0.00143454
0.00146728
0.00148904
0.00150168
0.00150693
0.00151526
0.00151424
0.00150675
0.00150582
0.00149517
0.00147774
0.00145685
0.00145264
0.00143256
0.00140926
0.00138638
0.00138233
0.00136714
0.00135254
0.00134231
0.00134159
0.00134626
0.00135723
0.00137555
0.00140407
0.00141976
0.0014717
0.00153033
0.00159355
0.0016143
0.00169465
0.00177404
0.00184535
0.00186278
0.00193012
0.00195703
0.00202794
0.00205697
0.00206452
0.00200573
0.0020974
0.00198772
0.00210542
0.00106937
0.00113375
0.00119329
0.00125161
0.0012672
0.0013226
0.00136948
0.00141122
0.00142203
0.00145593
0.0014789
0.00149572
0.00149981
0.00150836
0.00150807
0.00150302
0.00150182
0.00149036
0.00147292
0.00145323
0.0014493
0.00142686
0.00140267
0.00138021
0.00137772
0.00135792
0.00134158
0.00133092
0.00133476
0.00133285
0.001341
0.00135792
0.0013924
0.00140417
0.00145102
0.00150982
0.0015803
0.00160106
0.00167643
0.00175849
0.00183537
0.00185549
0.00192087
0.00198086
0.00202398
0.00205586
0.0020629
0.00208495
0.00178797
0.0021052
0.00195179
0.000889395
0.000955968
0.00102324
0.00109139
0.00115075
0.00117411
0.00123572
0.00129288
0.00133855
0.0013554
0.0013972
0.00142893
0.00144947
0.00145704
0.00147164
0.00147644
0.00147308
0.00147339
0.00146521
0.00144882
0.00142737
0.001423
0.00140024
0.00137257
0.00134442
0.00133909
0.00131609
0.0012917
0.00127308
0.00127079
0.00126551
0.00126521
0.00127622
0.00129885
0.00131352
0.00135982
0.00141988
0.00148813
0.00151137
0.00159828
0.00168918
0.00177375
0.0017952
0.00187477
0.00187902
0.00199784
0.0020366
0.00204714
0.00205305
0.00206951
0.00197943
0.00210496
0.000870103
0.000928543
0.000996303
0.00106591
0.00113498
0.00115109
0.00121307
0.00127207
0.00132609
0.00133865
0.0013806
0.00141416
0.00144092
0.00144662
0.00146068
0.00146652
0.00146716
0.00146708
0.00145762
0.00144139
0.00142219
0.00141833
0.00139297
0.00136436
0.00133717
0.00133374
0.00130592
0.00127947
0.00126028
0.00126311
0.00125046
0.00124657
0.00125567
0.00128535
0.00129498
0.00133519
0.00139433
0.001472
0.00149473
0.00157605
0.00166853
0.00176081
0.00178526
0.0018624
0.0019106
0.00199136
0.00203424
0.0020435
0.00207321
0.00177961
0.00210318
0.00195553
0.000734916
0.00080251
0.000872694
0.000949671
0.00101725
0.00104179
0.00111041
0.00117851
0.00123444
0.00125384
0.001305
0.0013475
0.00137745
0.00138766
0.00140988
0.00142148
0.00142358
0.00142554
0.0014213
0.00140751
0.00138692
0.00138288
0.00135884
0.00132835
0.00129566
0.00128938
0.0012592
0.00122559
0.00119767
0.00119363
0.00117685
0.00116354
0.00116558
0.00118032
0.00119246
0.00123006
0.00128992
0.00136286
0.00138844
0.00148161
0.00142354
0.00168457
0.00171094
0.00180391
0.00160811
0.00190968
0.00200583
0.00201949
0.00186536
0.00191814
0.0019812
0.00209956
0.00071369
0.000772313
0.000840039
0.00091983
0.000999969
0.00101472
0.00108022
0.00115202
0.00121951
0.00123253
0.00128051
0.00132654
0.00136596
0.00137314
0.00139243
0.00140602
0.00141487
0.00141612
0.00140871
0.00139527
0.00137944
0.00137628
0.00134838
0.00131631
0.00128678
0.00128313
0.00124737
0.00121036
0.00118354
0.00118558
0.00116061
0.00114156
0.00114259
0.00116592
0.00117197
0.00120036
0.00125851
0.00134427
0.00136854
0.00145362
0.00140227
0.00166824
0.0016979
0.00178741
0.00162048
0.00166557
0.00200229
0.00201357
0.00190234
0.00174379
0.00209594
0.00199848
0.000532771
0.000569044
0.000615333
0.000634574
0.000654978
0.000715241
0.00073145
0.000758268
0.000775661
0.000834114
0.000862074
0.000879691
0.000883256
0.000920486
0.000952519
0.00096048
0.000913928
0.000931177
0.000977125
0.000971217
0.000892067
0.000884669
0.000927442
0.000916034
0.000813316
0.00078353
0.000820755
0.000813092
0.00071353
0.000665872
0.000701279
0.000709012
0.000660775
0.000586731
0.000609073
0.000669488
0.000668079
0.000642061
0.000657356
0.000755379
0.000802167
0.000831598
0.000841204
0.00092158
0.00100472
0.00100834
0.00105859
0.00113768
0.00117859
0.00118133
0.0011929
0.00121795
0.000462664
0.000529249
0.000600816
0.000670302
0.000734962
0.000766874
0.000848766
0.000921761
0.000984601
0.00101334
0.00108539
0.00113991
0.00118059
0.00119913
0.00124286
0.00126656
0.00127567
0.0012825
0.00129254
0.00128559
0.00126622
0.00126376
0.00124652
0.00121579
0.00117533
0.00116653
0.00113346
0.00109159
0.00104416
0.00103213
0.00100303
0.000976509
0.000952313
0.000941483
0.000951548
0.000979909
0.0010236
0.00108712
0.00111363
0.00122537
0.00126821
0.00146434
0.00149535
0.00140439
0.00151203
0.00181638
0.00191201
0.00193555
0.0016774
0.00202555
0.00204629
0.00207363
0.00044884
0.000501909
0.000563452
0.000640466
0.000713496
0.000736336
0.000812181
0.000890795
0.000963143
0.000985324
0.0010538
0.00111223
0.00116195
0.0011769
0.0012175
0.00124426
0.0012607
0.0012664
0.00127241
0.00126728
0.0012533
0.00125168
0.0012296
0.00119952
0.00116256
0.00115663
0.00111721
0.00107376
0.00102835
0.00102244
0.000984856
0.000952039
0.000929472
0.000926329
0.000930383
0.000945593
0.000991293
0.00106458
0.00109128
0.00118899
0.00127204
0.00144105
0.00147869
0.00154244
0.0015294
0.00155542
0.00190364
0.00174342
0.00180875
0.00171943
0.00206422
0.00191747
0.0006235
0.000619207
0.000614295
0.000612355
0.000607695
0.000602538
0.00060083
0.000595372
0.000590285
0.000584906
0.000582354
0.000577277
0.000571281
0.000569129
0.000563171
0.000557222
0.000551298
0.000548147
0.00054242
0.000535513
0.000532993
0.000526251
0.000519451
0.000512573
0.00050883
0.000501995
0.000493518
0.000490646
0.000481902
0.000473498
0.000464482
0.000460363
0.000451447
0.000441076
0.000432039
0.000426507
0.000416386
0.00040466
0.000400762
0.00038905
0.000377481
0.000366084
0.000361364
0.000350473
0.000338812
0.000329396
0.0003242
0.000315298
0.000306022
0.000303515
0.000295257
0.000289262
0.000283857
0.000281739
0.000277158
0.000274133
0.000272294
0.00027056
0.000269242
0.000269164
0.000270662
0.000269171
0.000271274
0.000274102
0.0002789
0.000277358
0.000282716
0.000287235
0.000293332
0.000291034
0.000296415
0.00029916
0.000300137
0.000299767
0.000302139
0.000300797
0.000300558
0.000296057
0.000293827
0.000288932
0.000287502
0.000282796
0.000283024
0.000289798
0.000291243
0.000305606
0.00032715
0.000363537
0.000372894
0.000417478
0.000467693
0.000532343
0.000592992
0.000617869
0.000687148
0.000764666
0.00083183
0.000858911
0.000928056
0.000992357
0.00104231
0.00106229
0.00110895
0.00114337
0.00116234
0.00117135
0.00118432
0.00118316
0.00117044
0.00116959
0.00115356
0.00112439
0.00108715
0.00107928
0.00104343
0.000996566
0.000947982
0.000936378
0.000899381
0.000860309
0.000831467
0.000815523
0.000821451
0.000832079
0.000869161
0.000932028
0.000957763
0.00106102
0.00118532
0.00131921
0.00135583
0.00129131
0.00157371
0.00172365
0.00183757
0.00186608
0.0016222
0.00192474
0.00188415
0.00204667
0.000632825
0.0006287
0.000623924
0.000622026
0.000617904
0.000613002
0.000610433
0.000606353
0.000601391
0.000595716
0.000593852
0.000589019
0.000583247
0.000580495
0.000575771
0.000569978
0.000563314
0.000561389
0.000555833
0.00054911
0.000545954
0.000540623
0.000533916
0.000526016
0.00052367
0.000516974
0.000508646
0.000504467
0.000497691
0.000489173
0.000479271
0.000475872
0.000467457
0.000457145
0.000445481
0.000442692
0.000432206
0.000420083
0.000415121
0.000405004
0.000393111
0.000380114
0.000376203
0.000365624
0.000353674
0.000341355
0.000338529
0.00032904
0.000319123
0.000314549
0.000308146
0.000301398
0.000294859
0.000291969
0.000288522
0.000285174
0.000281917
0.000280518
0.000280204
0.000280382
0.000280127
0.000280113
0.000283248
0.000286584
0.000288909
0.000290158
0.000296306
0.00030113
0.00030383
0.000305522
0.000311212
0.000313825
0.000311017
0.000315034
0.000317328
0.000315425
0.000311441
0.000310983
0.000307999
0.000301499
0.000296547
0.000293487
0.000290751
0.000293794
0.000293603
0.000304636
0.000322051
0.000354341
0.000366012
0.000402941
0.000449454
0.0005108
0.000575512
0.000593134
0.00065973
0.000735528
0.000810312
0.000830488
0.000897528
0.000961834
0.00102081
0.00103632
0.00108057
0.00111594
0.0011433
0.00115085
0.00116033
0.00115994
0.00115328
0.0011537
0.00113275
0.00110418
0.00107076
0.0010668
0.00102458
0.000977337
0.000929995
0.000925455
0.000880232
0.000838615
0.000808814
0.000800329
0.000800542
0.000804499
0.00083975
0.000909894
0.00093479
0.0010277
0.00115254
0.00129337
0.00133569
0.00146789
0.00157379
0.00142212
0.00182699
0.00168907
0.00191832
0.00172529
0.00203253
0.00194941
0.00067636
0.000667749
0.000669742
0.000668304
0.000666111
0.000661844
0.000659937
0.000657081
0.000653778
0.000648854
0.000647358
0.000644959
0.000639335
0.000637265
0.000634195
0.000629656
0.000624107
0.000622385
0.000619568
0.000612786
0.000610428
0.00060691
0.000601501
0.000594771
0.000592607
0.000589204
0.000580503
0.00057743
0.000572209
0.000565726
0.000556061
0.000552954
0.000547825
0.000536447
0.00052637
0.000522843
0.000515013
0.000500695
0.000496177
0.000486836
0.000474692
0.000460582
0.000455961
0.000446842
0.000432011
0.000419775
0.00041538
0.000407464
0.000393476
0.000389362
0.000381225
0.000374909
0.000364778
0.000361679
0.000358139
0.000354264
0.000349631
0.000347635
0.000349725
0.000349212
0.000350042
0.000349056
0.000356371
0.000358548
0.000363357
0.000363037
0.000373453
0.000376547
0.000382183
0.000381803
0.000391368
0.000391498
0.000390935
0.000392949
0.000378652
0.000393702
0.000391769
0.000375495
0.000364591
0.000374654
0.000370581
0.000359312
0.000350678
0.000335139
0.000331108
0.00032484
0.000323771
0.000335383
0.000339192
0.000359515
0.000383392
0.000433413
0.000481261
0.000497021
0.000545378
0.000619474
0.000683206
0.000705737
0.000765459
0.000834231
0.00088894
0.000908477
0.000954953
0.000997438
0.00102526
0.00103608
0.00105272
0.00105739
0.0010511
0.00105199
0.0010379
0.00101237
0.000979362
0.000973109
0.000936435
0.000888129
0.000840327
0.000829946
0.0007879
0.000740947
0.000709988
0.00069153
0.000693816
0.000692216
0.000723641
0.000783624
0.000807437
0.000900038
0.00102095
0.00116586
0.0012065
0.00114115
0.00138975
0.00144039
0.00162165
0.00177665
0.00156495
0.00174844
0.00190012
0.00200545
0.000683489
0.000680998
0.00067723
0.00067576
0.000673474
0.000669932
0.000667428
0.000665266
0.000662044
0.000657247
0.000656186
0.000653349
0.000648785
0.000646222
0.00064361
0.000639521
0.00063356
0.000632688
0.000629277
0.000623701
0.000620764
0.000617763
0.000612889
0.000605621
0.000604466
0.000600253
0.000593202
0.000589074
0.000584978
0.000578632
0.000569082
0.000566584
0.000560798
0.000551363
0.000538824
0.000538019
0.000529411
0.000516554
0.000511048
0.000502921
0.000491377
0.00047591
0.00047228
0.000462805
0.000449503
0.000433602
0.000432286
0.000423182
0.000410429
0.00040368
0.000397972
0.000390845
0.000380575
0.000376377
0.000374306
0.00037062
0.000364291
0.000362734
0.000365377
0.000365958
0.000363918
0.000364802
0.000371821
0.000375681
0.000376631
0.000379447
0.000388968
0.000393766
0.000394801
0.000398594
0.000406853
0.000408695
0.00040335
0.000410024
0.000414284
0.000410869
0.000404433
0.000405733
0.000403175
0.000391504
0.00038306
0.000375712
0.000364814
0.000348849
0.000340572
0.000335577
0.000333928
0.000338677
0.00034005
0.000357643
0.000383293
0.000422338
0.000470471
0.000481187
0.000530293
0.000594961
0.00066482
0.00068
0.000736591
0.000801395
0.000866637
0.000880278
0.000920865
0.000962702
0.00100255
0.00101118
0.00102071
0.00102531
0.00102946
0.0010322
0.00101008
0.000983008
0.000958487
0.000957913
0.00091289
0.000862071
0.000819035
0.000817991
0.000766987
0.000717107
0.000686342
0.000676793
0.000673577
0.000666967
0.00069564
0.000763859
0.000785952
0.000869748
0.000960615
0.00113989
0.00118471
0.00132131
0.0013041
0.00140587
0.0017321
0.0017576
0.0017002
0.00176287
0.00198566
0.00199709
0.000623619
0.000519842
0.000619133
0.000636411
0.000532154
0.000625781
0.000643581
0.000566917
0.00056306
0.000651356
0.000668332
0.000575651
0.000675349
0.000689503
0.000628302
0.000634226
0.000680375
0.000679293
0.000652215
0.000672395
0.000670708
0.000668236
0.000664196
0.000659519
0.000658134
0.000655716
0.000649403
0.000647127
0.000643552
0.000638586
0.000631781
0.000629657
0.000625939
0.000617406
0.000609702
0.000607608
0.000601845
0.000590468
0.000586795
0.0005798
0.00056923
0.000556689
0.000552847
0.000545111
0.000531009
0.000519138
0.000515621
0.000508146
0.000494006
0.000489351
0.000481784
0.000474659
0.000464632
0.000461299
0.000457807
0.00045335
0.000448741
0.000446919
0.000448997
0.000448509
0.000449265
0.000448931
0.000456211
0.000458584
0.000462707
0.00046337
0.000451452
0.000432028
0.000456275
0.000465106
0.000399825
0.000440171
0.000424602
0.00039633
0.000391066
0.000418198
0.000406202
0.000379213
0.00037817
0.000417717
0.000407421
0.000367482
0.000365442
0.000420716
0.00041351
0.000393257
0.000380585
0.000365792
0.00036189
0.000359678
0.000360277
0.00038462
0.000412294
0.000419626
0.00044661
0.000504762
0.000556496
0.000572522
0.000619327
0.000682064
0.000734477
0.000751509
0.000795042
0.000838672
0.000871022
0.00088242
0.000902364
0.000912196
0.000910802
0.000901687
0.000901714
0.000881628
0.000830531
0.000803466
0.000813261
0.000769142
0.000697294
0.000650998
0.000667312
0.000624242
0.000558721
0.000466753
0.000479637
0.000493652
0.00046655
0.000455244
0.000470635
0.000548225
0.000586485
0.000679642
0.000698105
0.00076951
0.000876087
0.000947658
0.00106016
0.00113462
0.00116873
0.00121936
0.0012646
0.00128932
0.000742937
0.000737485
0.000739639
0.000738946
0.000737007
0.000735319
0.000734964
0.000732719
0.000730869
0.00072932
0.00072827
0.000726196
0.000724334
0.000723722
0.000721184
0.00071903
0.000717252
0.000715808
0.000713314
0.000711033
0.000710218
0.000707084
0.0007044
0.000702131
0.000700348
0.000697099
0.000694013
0.000693135
0.000688801
0.000684997
0.000681507
0.00067949
0.000674653
0.000669941
0.000665939
0.000662496
0.000656667
0.000650821
0.000648855
0.000641018
0.000633537
0.000626496
0.000622914
0.000613864
0.000605258
0.00059833
0.000592946
0.000583808
0.000575425
0.000573559
0.000563177
0.00055576
0.00055024
0.000547813
0.000540851
0.000537308
0.000536509
0.000533827
0.000531819
0.00053315
0.000537383
0.000534654
0.000537311
0.00054233
0.000549624
0.00054667
0.000539427
0.000514983
0.000564282
0.000560691
0.000472301
0.000553946
0.00054549
0.000482009
0.000472088
0.000528359
0.000525475
0.000461022
0.000461952
0.000538075
0.000534484
0.000447132
0.000446929
0.000500968
0.000496815
0.000471125
0.000446603
0.000423397
0.000418832
0.000397753
0.000385712
0.000384419
0.000392584
0.000394264
0.000413341
0.000444191
0.000477662
0.000490601
0.000532628
0.0005774
0.000616486
0.000633209
0.000676527
0.000712987
0.000738222
0.000750559
0.000776215
0.000786252
0.000782588
0.000785105
0.000782417
0.000764577
0.000736355
0.00073054
0.000705869
0.000666437
0.000622316
0.000610482
0.000578059
0.000540253
0.00050942
0.000490133
0.000493121
0.000494853
0.000517551
0.000565542
0.000583935
0.000668134
0.000738992
0.000908576
0.000944055
0.000997125
0.00115449
0.00131494
0.00152666
0.0015689
0.00162502
0.001788
0.00185919
0.00187921
0.000747907
0.000728814
0.000744679
0.000743986
0.000733511
0.000740774
0.000739909
0.000738444
0.000736719
0.000734861
0.000734171
0.000732449
0.000730508
0.000729556
0.000727843
0.000725786
0.000723499
0.000722726
0.000720619
0.000718185
0.000717015
0.0007149
0.000712316
0.000709394
0.000708407
0.000705698
0.000702455
0.000700844
0.000698003
0.000694418
0.000690288
0.000688788
0.000684989
0.000680273
0.000674968
0.000673516
0.000668357
0.000662159
0.000659584
0.000654053
0.000647045
0.000639019
0.000636436
0.000629434
0.000620871
0.000611786
0.00060942
0.000601614
0.000592477
0.000588314
0.000581967
0.000575023
0.000567775
0.00056466
0.000561041
0.000557257
0.000553616
0.000552009
0.000552481
0.000552946
0.000553328
0.00055332
0.000557642
0.000561291
0.000564055
0.000565084
0.000532233
0.000510608
0.000560722
0.000553482
0.000453332
0.000524211
0.000524288
0.000467233
0.000456745
0.000507591
0.000509087
0.000454836
0.000457718
0.000531849
0.00053195
0.000452799
0.000455356
0.000519094
0.000510048
0.000490044
0.000465953
0.000439524
0.000429717
0.000411023
0.000395055
0.00038893
0.000392239
0.000393009
0.000405126
0.00043308
0.00046614
0.00047527
0.000509689
0.00055371
0.00059684
0.000609387
0.000645384
0.000682273
0.000714237
0.00072446
0.0007428
0.000754204
0.000757783
0.000761499
0.000750973
0.000734609
0.000712508
0.000711385
0.000678722
0.000640228
0.000601092
0.000596555
0.000557108
0.000518195
0.000492129
0.000480093
0.000478613
0.000475929
0.000501181
0.000552862
0.000570993
0.000645606
0.000754172
0.000886857
0.000927581
0.0010651
0.00121145
0.00137274
0.00150888
0.0015448
0.00166566
0.00176589
0.00184528
0.00186475
0.000770759
0.000732548
0.000768255
0.000767694
0.000740443
0.000765335
0.000764681
0.000763611
0.000762457
0.000760903
0.000760344
0.00075944
0.000757739
0.000757047
0.000755983
0.000754549
0.000752815
0.000752174
0.000751121
0.000749021
0.000748206
0.00074692
0.000745112
0.000742908
0.000742079
0.000740707
0.00073789
0.0007368
0.000734831
0.000732462
0.00072915
0.000727953
0.000725834
0.000721993
0.000718472
0.000717077
0.00071413
0.00070903
0.000707295
0.000703696
0.000699028
0.000693232
0.000691226
0.00068742
0.000680887
0.000675044
0.000672806
0.000668874
0.000661253
0.000658838
0.000654155
0.000650517
0.00064395
0.000641824
0.000639761
0.000637286
0.00063375
0.000632165
0.000633766
0.000633165
0.000633239
0.000632262
0.000631632
0.000598518
0.000640198
0.000639554
0.000554459
0.000536125
0.000587164
0.000577807
0.000475752
0.000544128
0.000557365
0.000490804
0.00047447
0.000522342
0.000526544
0.000474577
0.000471058
0.000541138
0.000544076
0.000471077
0.000468715
0.000588738
0.000591055
0.00053244
0.000514549
0.000516166
0.000507432
0.000479204
0.000454332
0.000428605
0.000414558
0.00040918
0.000402744
0.000409672
0.00042426
0.000428278
0.000444879
0.000475945
0.00050537
0.000515162
0.000538991
0.000569834
0.000594672
0.000603774
0.000618219
0.000628527
0.000632309
0.000635172
0.000628251
0.000612381
0.000596865
0.000594041
0.000570633
0.000534389
0.000507879
0.000501667
0.000475221
0.000442555
0.000430294
0.000424969
0.00042693
0.000430461
0.00045767
0.000504345
0.000518941
0.000562637
0.000619277
0.000799733
0.000833956
0.000927227
0.00106671
0.0012615
0.00139329
0.00143487
0.00155937
0.00167083
0.00175533
0.00177911
0.000774766
0.000773796
0.000772354
0.000771764
0.00077094
0.000769666
0.000768683
0.000767989
0.000766904
0.000765251
0.000764878
0.000763985
0.000762497
0.000761564
0.000760804
0.000759517
0.000757542
0.000757258
0.000756187
0.000754359
0.000753292
0.000752357
0.000750748
0.000748274
0.00074787
0.000746461
0.000744052
0.000742527
0.000741144
0.000738915
0.000735545
0.000734615
0.000732561
0.000729291
0.000724841
0.000724611
0.000721604
0.000717056
0.000714974
0.000712066
0.000707798
0.000701861
0.000700405
0.000696671
0.000691205
0.000684154
0.000683588
0.000679317
0.000673061
0.00066942
0.000666491
0.000662597
0.000656815
0.000654217
0.000653086
0.000650837
0.000646829
0.000645724
0.000647261
0.000647327
0.000645644
0.000646077
0.000649901
0.000647373
0.000651375
0.000652863
0.000610899
0.000581407
0.000653406
0.000649345
0.000522521
0.000620962
0.000612714
0.000533287
0.000528914
0.000594471
0.000591307
0.000514314
0.0005202
0.000605491
0.000606068
0.000507643
0.000521691
0.000612986
0.000603379
0.000572561
0.00056386
0.000533481
0.000520439
0.000495734
0.000469191
0.000442031
0.000421198
0.000418207
0.000410506
0.00041125
0.000421199
0.000424169
0.000440256
0.000464267
0.000493034
0.000500014
0.000522073
0.000547991
0.000575464
0.000582645
0.00059288
0.000601553
0.000609792
0.000613796
0.000601104
0.000586544
0.000574784
0.000576527
0.000547389
0.000515639
0.000490837
0.000490512
0.000460467
0.00043448
0.000422614
0.000420965
0.000421401
0.000429554
0.000456198
0.000500453
0.000514167
0.000578219
0.000668276
0.000784072
0.000819812
0.000942081
0.00108214
0.0012336
0.00137615
0.00140814
0.0015284
0.00164129
0.00173808
0.00175963
0.000690021
0.000576336
0.000687246
0.000709066
0.000591787
0.000695361
0.000720581
0.000629143
0.000622779
0.000725363
0.00074236
0.000635399
0.000746757
0.000765025
0.000686555
0.000690488
0.00078079
0.000780408
0.000706343
0.000778293
0.000777732
0.00077696
0.000775713
0.000774279
0.000773807
0.000773024
0.000771018
0.000770238
0.000769045
0.000767375
0.000765159
0.00076441
0.000763118
0.000760384
0.000757946
0.000757202
0.000755316
0.000751836
0.000750633
0.000748489
0.000745364
0.000741659
0.000740471
0.000738383
0.000734032
0.000730268
0.000729185
0.000727278
0.000722262
0.000720556
0.000718286
0.00071626
0.000712164
0.000710828
0.000710097
0.000708473
0.000706117
0.000705313
0.000680456
0.000636997
0.000702512
0.000696312
0.000587412
0.000558659
0.000606032
0.000610515
0.000536822
0.000516513
0.000546129
0.000558355
0.000479818
0.000533009
0.000521707
0.000490176
0.000483822
0.000517845
0.000508984
0.000476394
0.000478579
0.00053203
0.000524388
0.000479054
0.000499642
0.000597205
0.000596115
0.000522676
0.000519867
0.000609625
0.000599766
0.000536648
0.000539588
0.000508897
0.000479814
0.000471137
0.000447737
0.000429305
0.000421507
0.000418606
0.00041362
0.000425058
0.000438226
0.00044145
0.000448645
0.000467914
0.000484607
0.000489415
0.000494121
0.000500822
0.000505458
0.000507319
0.000498233
0.000485458
0.000478665
0.000477805
0.000459269
0.000431333
0.000422812
0.000421422
0.000407038
0.000389112
0.00039834
0.000408506
0.000412174
0.00039894
0.00034726
0.000354486
0.000360152
0.000389177
0.000452918
0.00059765
0.000615666
0.000691157
0.000832134
0.000961932
0.00113736
0.00121101
0.00121288
0.00131153
0.00140872
0.00142767
0.000810843
0.000806551
0.000809332
0.000809007
0.000808145
0.000807433
0.000807287
0.000806335
0.000805602
0.00080504
0.000804584
0.000803803
0.000803166
0.000802935
0.000802015
0.000801307
0.000800799
0.000800229
0.000799432
0.000798767
0.000798489
0.000797472
0.000796676
0.000796075
0.000795421
0.000794417
0.000793487
0.0007932
0.000791748
0.000790523
0.000789437
0.000788705
0.000787118
0.000785632
0.000784461
0.000783225
0.000781415
0.000779686
0.000779045
0.00077668
0.000774586
0.000772767
0.000771636
0.000769184
0.000766949
0.000765304
0.000763647
0.000761333
0.000759346
0.000758918
0.000756204
0.000754441
0.000753223
0.000752545
0.000750729
0.000749932
0.000749913
0.000749013
0.000748419
0.000748724
0.000749895
0.000748802
0.000739721
0.000693618
0.000752251
0.000750984
0.000661184
0.000631253
0.000713235
0.000720367
0.000573783
0.00067652
0.000676213
0.000597586
0.000583312
0.000652325
0.000653939
0.000572463
0.000570588
0.000662808
0.000667851
0.000575739
0.000605942
0.000728182
0.000726299
0.000628083
0.000612271
0.000676927
0.000672128
0.000640025
0.000615727
0.000583831
0.000554442
0.000542032
0.000509719
0.000480152
0.000458968
0.000450378
0.000434317
0.000425775
0.000423154
0.000421767
0.000422716
0.000426602
0.000430567
0.000432334
0.000436253
0.00043685
0.000434397
0.000434738
0.000431338
0.000423289
0.000415173
0.000413975
0.000406676
0.000396185
0.000391405
0.000392057
0.000392594
0.000398988
0.000416042
0.000440112
0.000443407
0.000468851
0.000407149
0.000441185
0.000427508
0.000429485
0.000509387
0.00068608
0.000704503
0.000792952
0.000900961
0.00102152
0.0011356
0.00117486
0.00129824
0.00141237
0.00150555
0.00153429
0.000814041