/*--------------------------------*- C++ -*----------------------------------*\
| =========                 |                                                 |
| \\      /  F ield         | OpenFOAM: The Open Source CFD Toolbox           |
|  \\    /   O peration     | Version:  v2012                                 |
|   \\  /    A nd           | Website:  www.openfoam.com                      |
|    \\/     M anipulation  |                                                 |
\*---------------------------------------------------------------------------*/
FoamFile
{
    version     2.0;
    format      ascii;
    class       volScalarField;
    location    "1e-06";
    object      omega;
}
// * * * * * * * * * * * * * * * * * * * * * * * * * * * * * * * * * * * * * //

dimensions      [0 0 -1 0 0 0 0];


internalField   nonuniform List<scalar> 
10098
(
1721.47
1709.84
1670.01
1636.22
1602.83
1592.45
1549.66
1509.93
1474.59
1465.65
1427.35
1390.04
1727.1
1716.87
1681.61
1645.48
1608.17
1597.4
1558.01
1517.35
1478.97
1468.68
1432.15
1394.71
1780.72
1767.65
1723.17
1687.89
1652.82
1641.27
1593
1549.05
1511.19
1501.44
1458.38
1416.75
2123.09
2092.94
2061.49
2031.22
2020.4
1989.09
1957.11
1927.57
1916.78
1885.81
1853
1820.61
1786.22
1774.9
1737.5
1698.46
1658.23
1646.26
1602.99
1558.29
1515.96
1504.46
1464.01
1423.53
2131.32
2107.85
2080.44
2040.56
2027.39
2001.82
1976.27
1937.9
1922.57
1896.19
1870.32
1832.12
1791.44
1783.02
1751.67
1710.87
1663.64
1652.17
1613.26
1570.18
1520.93
1508.29
1470.22
1433.11
2202.56
2172.12
2140.38
2109.27
2097.93
2065.76
2033.62
2002.25
1990.98
1958.55
1925.28
1890.55
1854.57
1842.27
1802.98
1761.12
1717.91
1704.71
1657.52
1608.47
1561.61
1548.75
1503.88
1459.83
2212.8
2188.99
2160.85
2120.67
2106.82
2080.64
2053.84
2014.82
1998.52
1971.15
1943.71
1904.44
1861.64
1852.53
1819.15
1776
1725.21
1712.51
1670.09
1622.65
1568.36
1554.01
1511.94
1470.95
2289.27
2258.53
2226.59
2194.89
2183.31
2150.39
2118.01
2085.23
2073.65
2039.88
2005.9
1969.38
1932.15
1918.95
1877.87
1833.5
1787.62
1773.17
1722.06
1668.47
1616.84
1602.4
1552.66
1504.24
2311.3
2300.22
2276.4
2247.89
2207.26
2192.91
2166.46
2138.99
2099.01
2081.85
2053.7
2025.3
1984.73
1940.01
1930.44
1895.67
1850.31
1796.05
1782.21
1736.63
1684.86
1624.95
1608.74
1562.44
1517.31
2421.17
2390.52
2379.66
2349.02
2317.03
2284.82
2273.12
2240.05
2207.62
2173.66
2161.75
2127.14
2092.72
2054.77
2016.51
2002.73
1960.58
1914.24
1865.99
1850.44
1796.08
1738.13
1681.65
1665.56
1610.85
1557.53
2473.79
2442.16
2402.19
2391.03
2367.47
2338.98
2297.75
2283.14
2256.84
2229.4
2188.26
2170.42
2141.85
2113.23
2071.28
2024.96
2015.22
1980
1932.85
1875.43
1860.67
1812.68
1757.1
1691.22
1673.06
1622.54
1573.16
2579.37
2545.94
2512.59
2481.34
2470.51
2440.2
2408.19
2375.51
2363.82
2331.17
2299.01
2264.19
2252.03
2217.28
2182.9
2143.97
2105.08
2091.17
2048.92
2001.47
1951.51
1935.19
1878.71
1817.1
1756.07
1738.29
1678.68
1619.88
1568.15
2897.59
2885.4
2838.33
2784.2
2730.9
2720.83
2687.4
2646.96
2602.06
2592.12
2565.7
2533.63
2492.78
2481.72
2458.51
2430.18
2388.24
2373.72
2347.87
2321.12
2278.8
2260.69
2232.16
2204.21
2160.93
2113.62
2104.09
2069.67
2021.43
1961.53
1946.22
1897.12
1838.86
1766.89
1746.8
1692.17
1638.56
1578.31
1526.66
1516.76
1478.58
1437.2
1397.93
1389.38
2986.74
2967.85
2912.15
2858.07
2812.27
2798.14
2757.02
2716.39
2680.23
2668.61
2635.01
2601.16
2569.39
2558.91
2528.44
2496.1
2463.34
2452.08
2419.73
2387.64
2352.85
2340.93
2306.49
2272.31
2233.39
2194.86
2181.31
2139.78
2092.61
2042.45
2025.93
1968.71
1904.73
1839.96
1820.67
1756.07
1690.76
1633.66
1582.53
1567.42
1520.33
1478.75
1442.14
1431.73
3059.2
3037.61
2973.55
2923.03
2880.94
2865.08
2815.93
2778.16
2746.93
2735.27
2694.48
2662.19
2635.98
2627.06
2589.64
2556.47
2529.64
2521.93
2483.38
2447.13
2419.24
2413.21
2373.65
2332.24
2300.51
2268.54
2253.17
2204.27
2162.56
2120.39
2104.7
2039.29
1975.28
1915.01
1898.35
1822.64
1749.4
1692.42
1641.08
1621.56
1565.1
1523.93
1489.17
1477.64
3068.83
3050.85
2994.21
2937.94
2890.21
2876.63
2834.91
2793.26
2756.22
2745.37
2712.37
2678.35
2645.91
2635.99
2606.17
2573.77
2540.58
2529.7
2498.21
2465.95
2431.5
2419.8
2386.61
2352.8
2314.79
2277.05
2264.63
2225.52
2180.12
2131.15
2115.18
2060.05
1995.84
1927.77
1907.07
1838.67
1767.37
1704.4
1647.8
1631.63
1580.1
1535.04
1495.26
1484.15
3244.41
3177.54
3119.04
3100.54
3040.49
2987.06
2942
2927.65
2881.2
2841.18
2807.27
2796.61
2759.33
2726.59
2697.93
2689.46
2655.51
2623.52
2594.23
2586.31
2550.8
2516.97
2486.49
2479.48
2442.66
2405.07
2371.48
2339.3
2325.84
2282.93
2242.5
2201.23
2186.78
2127.31
2065.22
2001.31
1983.6
1906.35
1830.34
1765.74
1709.14
1688.54
1629.48
1583.33
1545.13
1532.81
3336.9
3319.22
3255.52
3185.94
3125.5
3109.17
3053.5
2997.23
2948.86
2936.12
2893.88
2851.71
2814.21
2804.21
2771.6
2737.83
2705.44
2696.38
2667.51
2635.85
2602.85
2592.72
2562.39
2530.5
2496.42
2485.17
2453.32
2419.76
2383.04
2346.51
2335.6
2299.23
2257.03
2210.84
2196.42
2145.55
2083.4
2013.85
1992.57
1922.43
1847.16
1778.44
1716.4
1699.5
1643.75
1595.09
1551.82
1540.13
3452.05
3392.04
3335.5
3322.03
3263.89
3202.36
3147.14
3132.45
3078.29
3025.04
2979.07
2966.59
2922.96
2881.69
2845.82
2836.27
2801.7
2768.73
2738.34
2730.53
2699.89
2669.37
2638.75
2631.08
2599.17
2567.96
2535.67
2528.03
2494.31
2460.29
2425.22
2392.8
2381.5
2344.31
2305.62
2265.83
2253.25
2201.74
2143.75
2079.08
2061.26
1986.39
1910.4
1839.51
1778.31
1757.23
1696.27
1645.16
1603.41
1590.48
3495.39
3445.11
3386.37
3333.86
3319.32
3264.01
3203
3149.06
3134.93
3082.87
3029.22
2982.48
2970.83
2928.87
2886.87
2849.58
2840.46
2807.81
2774.28
2742.41
2734.47
2706.19
2675.6
2643.69
2635.04
2606.03
2575.43
2541.84
2531.9
2501.3
2469.01
2432.78
2397.76
2388.32
2354.58
2315.34
2272.76
2260.49
2214.79
2157.18
2089.73
2069.34
2000.73
1925.1
1852
1785.56
1768.4
1709.48
1657.16
1610.35
1598.29
3452.81
3421.48
3382.27
3336.07
3291.3
3283.1
3237.41
3186.02
3138.33
3127.65
3081.13
3031.92
2988.12
2977.77
2937.38
2896.47
2860.07
2851.6
2818.69
2785.45
2754.06
2746.91
2718.17
2688.42
2657.37
2650.29
2621.31
2591.99
2558.8
2551.14
2520.44
2489.58
2453.42
2420.72
2411.88
2379.31
2342.19
2304.32
2294.06
2251.05
2199.58
2138.68
2122.12
2053.98
1981.82
1907.86
1844
1823.37
1761.75
1706.45
1661.5
1648.22
3437
3399.89
3361.98
3320.11
3283.21
3271.15
3226.25
3178.12
3135
3123.19
3076.93
3029.39
2987.44
2977.09
2936.55
2896.06
2860.29
2852.04
2818.89
2785.38
2754.36
2747.49
2718.58
2688.19
2657.79
2651.07
2622.24
2591.89
2559.51
2552.15
2521.88
2490.2
2454.7
2422.04
2413.86
2381.55
2344.82
2307.11
2297.33
2256.97
2206.53
2145.9
2128.15
2064.75
1993.16
1918.96
1850.55
1833.85
1773.77
1718.24
1668.29
1656.16
3275.97
3268.1
3253.72
3224.36
3196.62
3193.42
3164.4
3126.63
3090.82
3084.07
3047.9
3006.16
2967.92
2959.76
2923.81
2885.35
2850.37
2842.91
2811.16
2777.87
2746.17
2739.51
2710.83
2680.52
2649.17
2642.63
2614.18
2584.31
2550.22
2542.94
2513.21
2483.17
2446
2413.17
2406.66
2376.96
2342.04
2307.91
2300.62
2266.53
2224.51
2171.93
2158.09
2100.21
2036.08
1963.54
1900.28
1881.16
1820.74
1763.13
1715.99
1702.8
3245.49
3226.89
3207.95
3193.87
3181.19
3170.24
3137.84
3108.63
3081.99
3072.11
3033.48
2996.21
2963.04
2954.06
2915.96
2879.23
2847.2
2839.82
2805.98
2772.67
2743.15
2737.14
2706.16
2674.49
2645.47
2640.48
2609.47
2576.45
2545.11
2540.85
2508.22
2473.32
2439.11
2409.82
2402.19
2368.31
2335.04
2305.45
2298.64
2263.83
2222.99
2174.37
2160.97
2105.81
2042.27
1971.81
1905.23
1889.77
1831.23
1773.98
1722.04
1710.25
2958.07
2997.09
3047.53
3034.34
3036.62
3040.56
3042.74
3020.03
3001.95
2999.66
2979.86
2947.89
2919.06
2913.38
2884.61
2850.67
2819.45
2813.1
2783.26
2750.79
2719.61
2713.36
2683.77
2652.28
2620.05
2613.86
2583.25
2550.5
2513.88
2507.03
2474.2
2441.03
2400.93
2367.16
2361.69
2331.95
2299.46
2271.4
2267.57
2242.8
2212.93
2172.77
2163.26
2118.08
2065.84
1999.8
1941.36
1924.64
1867.6
1810.8
1763.4
1750.86
2512.38
2641.21
2736.1
2781.69
2810.04
2842.32
2877.94
2883.48
2878.75
2890.12
2889.72
2871.38
2848.34
2849.21
2831.54
2803.61
2773.73
2770.04
2746.09
2715.4
2682.66
2676.77
2650.09
2617.93
2582.27
2574.56
2545.17
2509.46
2467.57
2456.46
2423.28
2385.49
2339.68
2295.78
2293.75
2265.35
2232.32
2203.05
2202.58
2191.05
2170.69
2141.38
2135.32
2105.05
2061
2008.09
1957.35
1943.46
1888.88
1837.73
1794.14
1782.48
2440.66
2544.05
2658.59
2715.11
2772.44
2789.08
2836.09
2846.6
2857.81
2861.98
2865.34
2850.07
2835.96
2833.76
2816.34
2790.11
2765.38
2760.68
2735.13
2705.21
2675.55
2669.95
2640.38
2608.31
2574.52
2568.54
2535.02
2498.37
2457.05
2450.05
2411.07
2370.41
2323.71
2285.46
2279.02
2245
2212.33
2190.2
2189.66
2173.93
2157.47
2133.26
2129.57
2099.39
2060.63
2008.28
1959.37
1946.01
1895.5
1843.5
1798.36
1787.09
373.421
376.487
379.953
381.34
384.711
388.424
389.659
393.667
397.424
401.393
403.338
407.198
411.752
413.422
418.082
422.754
427.427
430.048
434.702
440.399
442.546
448.314
454.189
460.252
463.78
470.048
478.127
480.961
489.77
498.442
508.22
512.98
523.283
536.076
547.858
555.609
570.174
588.82
595.312
616.204
639.075
664.543
675.535
703.38
737.66
769.252
787.078
821.452
863.72
875.303
918.197
952.055
988.468
1002.23
1032.31
1052.02
1065.22
1078.64
1080.67
1075.7
1059.49
1070.64
1045.2
1021.52
987.765
997.237
961.098
937.415
908.375
919.983
895.178
887.228
883.998
889.548
882.399
896.451
898.921
929.732
952.398
1008.45
1023.59
1111.66
1200.89
1331.29
1367.26
1525.54
1678.74
1847.6
1890.62
2063.85
2215.06
2343.75
2436.83
2486.85
2574.49
2634.77
2670.87
2693.12
2722.45
2732.16
2729.93
2735.84
2732.1
2717.56
2697.74
2696.49
2678.26
2652.71
2623.95
2618.97
2592.91
2560.73
2525.26
2517.69
2485.02
2444.05
2397.94
2386.18
2344.91
2295.57
2241.12
2188.79
2184.63
2145.64
2110.5
2084.98
2087.29
2083.83
2078.08
2066.74
2066.09
2054.36
2028.7
1991.12
1952.36
1943.31
1900.92
1855.81
1815.75
1805.77
366.992
369.868
373.155
374.485
377.396
380.817
382.642
385.553
389.096
393.163
394.537
398.079
402.294
404.38
407.905
412.26
417.356
418.861
423.16
428.428
431.028
435.268
440.723
447.388
449.414
455.147
462.549
466.524
472.713
480.849
490.87
494.466
503.317
514.925
529.097
532.501
546.139
563.512
571.086
587.067
607.889
633.507
641.575
665.061
695.437
730.819
739.12
770.079
808.099
826.23
853.912
885.567
921.619
937.136
954.647
973.729
994.327
1002.41
997.785
994.38
993.386
992.434
966.678
946.663
932.187
925.418
892.637
872.68
862.059
855.414
833.578
827.619
838.916
826.538
820.456
833.976
850.825
858.766
879.205
930.986
963.839
1018.56
1102.02
1226.47
1288.8
1407.17
1559.44
1731.11
1808.86
1951.03
2110.28
2250.54
2381.66
2409.33
2505.49
2576.13
2637.35
2649.34
2682.87
2698.1
2709.78
2711.65
2708.27
2696.23
2684.15
2681.97
2661.94
2637.38
2613.05
2608.98
2579.66
2547.51
2514.33
2509.53
2472.04
2429.91
2383.86
2377.93
2329.31
2276.39
2219.44
2173.99
2164.41
2118.3
2080.96
2064.91
2067.08
2056.96
2053.65
2050.83
2054.65
2040.03
2017.7
1984.77
1950.74
1940.79
1900.22
1856.98
1817.65
1808.16
338.987
340.504
343.191
344.093
345.568
348.218
349.39
351.236
353.347
356.382
357.344
358.922
362.415
363.723
365.704
368.582
372.073
373.211
375.014
379.32
380.858
383.082
386.508
390.84
392.296
394.364
400.164
402.29
405.714
410.039
416.941
419.255
422.703
431.431
439.461
442.387
448.664
461.724
466.053
474.92
487.437
503.618
509.142
520.047
540.493
559.075
565.874
578.306
604.587
612.726
629.185
642.382
667.416
675.168
683.479
693.642
707.54
713.208
706.243
708.561
707.441
710.258
690.226
686.379
675.908
676.865
653.258
648.563
638.204
639.2
620.892
622.48
623.969
621.023
610.499
621.701
625.731
633.317
635.53
669.19
680.242
717.282
754.216
848.222
877.709
975.947
1078.66
1251.89
1303.98
1465.36
1625.49
1812.26
1958.81
2018.42
2156.53
2278.96
2366.82
2402.24
2475.42
2522.96
2551.05
2564.62
2584.82
2589.26
2584.11
2586.54
2578.65
2561.77
2538.96
2535.79
2512.73
2482.96
2447.25
2440.37
2404.61
2359.53
2305.38
2292.92
2240.71
2178.8
2107.95
2042.19
2034.59
1982.15
1939.32
1915.32
1920.26
1924.85
1937.29
1946.7
1952.91
1960.83
1957.19
1939.81
1918.09
1914.07
1886.53
1851.83
1819.15
1811.54
334.561
336.146
338.496
339.411
340.857
343.057
344.619
345.963
347.955
350.932
351.592
353.33
356.152
357.789
359.359
361.875
365.63
366.16
368.217
371.7
373.632
375.358
378.318
382.955
383.648
386.114
390.595
393.475
395.839
399.845
406.392
408.146
411.847
418.559
428.221
428.634
435.19
446.014
451.044
458.041
468.976
485.195
489.168
499.757
516.163
537.889
539.688
553.259
574.111
585.823
596.418
610.363
631.843
640.924
645.941
654.841
670.223
674.094
668.227
667.594
672.934
671.075
655.757
648.277
646.899
641.375
623.4
615.435
614.35
607.863
594.534
592.44
601.633
591.254
585.029
591.525
602.614
601.494
607.641
633.138
651.716
675.284
715.573
791.221
832.223
906.21
1007.77
1160.57
1235.7
1365.23
1516.82
1705.12
1895.47
1921.5
2048.91
2190.35
2319.07
2335.68
2400.3
2463.8
2519.6
2525.75
2538.86
2550.88
2562.62
2563.59
2549.08
2533.66
2521.72
2520.49
2490.53
2458.57
2430.44
2428.55
2384.62
2333.15
2283.74
2281.48
2217.55
2142.66
2073.1
2019.83
2004.63
1934.1
1890.14
1885.82
1890.4
1881.51
1893.21
1922.05
1935
1936.48
1931.86
1925.89
1912.72
1905.79
1877.49
1847.51
1818.25
1811.07
315.516
316.654
318.33
318.895
319.947
321.646
322.374
323.537
324.981
326.758
327.322
328.383
330.505
331.296
332.532
334.378
336.429
337.065
338.279
340.87
341.806
343.181
345.32
347.741
348.503
349.731
352.964
354.195
355.972
358.469
362.011
363.173
364.946
369.553
373.81
374.978
378.037
384.923
387.266
391.462
398.368
407.252
410.082
415.575
426.968
437.238
440.325
446.835
461.215
466.158
474.292
482.299
495.012
499.278
503.886
510.382
517.759
520.49
518.281
520.535
521.087
521.917
513.36
512.253
508.583
508.166
497.229
495.784
491.868
491.339
482.346
483.241
484.995
482.22
477.036
482.032
484.953
487.029
488.232
504.169
510.921
527.083
545.924
592.593
609.734
660.404
719.75
835.317
875.674
990.75
1121.95
1299.72
1459.6
1514.87
1679.95
1838.52
1971.97
2017.27
2140.16
2225.11
2291.87
2314.97
2370.83
2399.42
2415.62
2423.7
2433.53
2428.78
2414.13
2414.08
2396.87
2372.53
2335.11
2329.96
2290.5
2243.86
2173.39
2160.83
2092.15
2018.81
1916.55
1833.06
1820.24
1753.89
1699.69
1680.14
1688.73
1705.79
1742.99
1778.17
1793.9
1825.58
1851.73
1855.82
1855.64
1856.51
1846.82
1825.56
1803.68
1798.9
300.697
301.766
302.704
303.108
304.26
305.261
305.477
306.77
307.841
308.726
309.314
310.482
311.508
311.845
313.232
314.388
315.311
316.094
317.404
318.555
318.978
320.585
321.889
322.899
323.824
325.325
326.65
327.035
329.022
330.633
332.009
332.995
335.099
337.05
338.586
340.37
342.949
345.515
346.461
350.319
354.001
357.539
359.593
364.653
369.621
373.732
377.301
383.338
389.189
390.532
398.391
404.383
409.206
411.319
417.731
421.574
423.244
425.87
428.79
428.961
426.646
429.415
428.553
425.739
420.981
423.821
421.207
417.755
413.007
416.117
413.865
411.474
410.174
411.761
411.295
411.188
410.66
415.128
418.723
424.422
425.565
439.026
454.618
476.028
481.107
517.292
562.688
623.613
638.093
728.762
836.164
961.517
1084.02
1145.38
1303.59
1461.17
1593.78
1657.33
1801.56
1916.98
2000.47
2040.78
2125.9
2180.85
2211.08
2229.08
2261.81
2270.49
2261.04
2263.6
2259.46
2236.97
2197.43
2189.24
2154.23
2095.98
2013.52
1989.01
1914.45
1816.56
1697.54
1582.91
1577.04
1505.16
1447.94
1424.32
1438.67
1484.51
1540.77
1598.55
1617.11
1686.34
1736.06
1764.72
1779.35
1789.97
1796.61
1789.29
1775.69
1774.24
298.018
298.99
299.972
300.379
301.315
302.299
302.788
303.664
304.666
305.703
306.099
307.086
308.136
308.655
309.604
310.701
311.886
312.307
313.414
314.627
315.235
316.299
317.543
318.904
319.386
320.605
321.991
322.757
323.934
325.41
327.114
327.79
329.314
331.216
333.47
334.08
336.226
338.91
340.16
342.586
345.846
349.834
351.188
354.777
359.451
364.749
366.147
370.931
376.922
379.793
384.283
389.506
395.312
397.823
401.189
404.979
408.868
410.455
411.193
412.158
413.201
413.604
411.558
410.134
409.285
408.875
405.737
403.883
402.965
402.373
399.809
398.808
400.495
398.662
397.729
398.824
401.104
401.736
404.329
410.657
414.965
422.781
435.604
456.32
466.223
491.827
529.635
586.734
611.463
680.007
773.194
894.388
1029.23
1068.77
1215.77
1375.01
1530.49
1575.55
1717.14
1838.51
1946.06
1976.51
2060.66
2121.19
2169.23
2184.59
2213.73
2226.13
2227.11
2232.11
2220.27
2199.37
2164.43
2163.47
2116.43
2056.91
1972.65
1962.96
1869.3
1764.57
1639.95
1543.7
1523.66
1438.17
1381.57
1378.35
1391.61
1423.1
1486.89
1560.03
1588.05
1648.98
1706.21
1742.39
1768.39
1773.81
1782.89
1779.02
1770.69
1768.86
285.921
286.568
287.456
287.779
288.383
289.224
289.587
290.241
290.936
291.796
292.112
292.668
293.58
293.945
294.551
295.32
296.199
296.54
297.099
298.123
298.526
299.159
300.006
300.986
301.383
301.933
303.085
303.549
304.279
305.12
306.349
306.838
307.483
308.857
310.066
310.62
311.525
313.423
314.12
315.355
317.076
319.411
320.288
321.743
324.629
327.306
328.408
330.258
334.235
335.555
338.215
340.49
344.598
345.968
347.751
349.981
352.947
354.175
354.273
355.821
356.938
357.889
356.341
357.07
356.745
357.474
355.199
355.559
354.723
355.38
353.167
353.805
354.171
354.125
352.783
354.56
355.25
356.589
357.116
361.736
363.328
368.673
374.432
388.07
392.588
409.218
429.243
465.268
476.685
521.538
574.762
661.81
751.824
786.896
891.807
1037.47
1168.78
1219.84
1351.45
1492.13
1603.75
1646.71
1746.81
1834.16
1894.28
1919.12
1968.48
1998.69
2006.1
2013.71
2014.38
1997.15
1958.8
1952.96
1908.74
1837.12
1739.26
1714
1616.37
1489.47
1360.29
1246.08
1233.28
1145.03
1100.33
1100.81
1118.29
1169.88
1252.8
1351.2
1382.49
1479.94
1565.19
1630.24
1673.05
1688.82
1716.33
1728.85
1730.11
1731.75
283.793
284.417
285.276
285.612
286.147
286.907
287.447
287.896
288.544
289.474
289.687
290.212
291.032
291.533
291.959
292.647
293.678
293.824
294.365
295.274
295.821
296.245
296.988
298.143
298.314
298.851
299.831
300.552
300.947
301.708
303.006
303.371
303.937
305.053
306.749
306.708
307.611
309.265
310.162
310.991
312.494
314.901
315.494
316.845
319.154
322.42
322.612
324.569
327.743
329.695
331.309
333.633
337.204
338.781
339.969
341.985
345.164
346.043
346.169
347.279
349.454
349.507
348.494
348.718
350.016
349.425
347.824
347.712
348.722
347.756
346.2
346.375
348.405
346.757
345.938
347.197
349.451
349.025
349.884
353.648
356.862
359.77
365.495
376.88
383.499
395.758
414.742
445.688
460.857
496.399
546.575
621.415
717.597
737.083
835.166
966.396
1114.88
1146.22
1267.37
1403.51
1542.8
1571.51
1659.29
1748.72
1837.31
1857.42
1892.42
1923.13
1953.82
1965.8
1948.77
1925.57
1904.43
1912.58
1846.1
1760.98
1674.32
1676.42
1551.31
1410
1287.05
1200.66
1174.26
1075.87
1032.35
1054.6
1070.18
1107.18
1189.6
1306.55
1346.96
1434.74
1521.69
1600.43
1659.18
1667.36
1694.59
1712.67
1722.47
1723.51
274.097
274.653
275.308
275.544
276.04
276.684
276.954
277.434
277.999
278.592
278.808
279.25
279.896
280.152
280.584
281.153
281.729
281.939
282.344
283.018
283.288
283.696
284.28
284.894
285.119
285.474
286.216
286.529
286.941
287.492
288.208
288.481
288.831
289.669
290.395
290.636
291.126
292.198
292.617
293.204
294.162
295.391
295.826
296.471
298.067
299.518
299.969
300.761
302.965
303.769
304.957
306.196
308.445
309.213
310.129
311.614
313.472
314.11
314.386
315.785
316.954
317.396
316.948
318.064
318.554
318.798
317.807
318.637
318.75
318.885
317.792
318.627
319.16
318.997
318.299
319.584
320.264
320.728
320.898
323.508
324.678
326.925
329.395
336.438
339.224
347.008
356.72
376.777
384.115
406.521
432.964
482.879
537.244
555.209
616.301
719.165
819.9
854.181
957.569
1083.7
1194.63
1232.62
1334.78
1431.74
1507.54
1535.33
1596.91
1641.06
1659.09
1671.1
1675.06
1663.52
1620.84
1618.47
1564.23
1488.51
1377.98
1357.37
1248.53
1119.62
1004.06
913.453
898.386
823.01
795.517
810.476
826.832
879.625
975.515
1093.68
1133.41
1251.8
1374.52
1468.64
1541.51
1562.95
1617.21
1648.5
1666.83
1672.36
265.507
266.03
266.481
266.673
267.209
267.665
267.766
268.335
268.796
269.159
269.408
269.878
270.266
270.399
270.918
271.324
271.617
271.911
272.34
272.685
272.824
273.331
273.712
273.972
274.285
274.71
275.041
275.145
275.685
276.063
276.33
276.614
277.088
277.46
277.663
278.151
278.623
279.021
279.217
279.922
280.48
280.933
281.359
282.147
282.86
283.379
284.075
284.996
285.861
286.071
287.393
288.42
289.308
289.724
291.026
292.007
292.71
293.311
294.389
295.133
295.466
296.202
296.903
297.276
297.163
297.971
298.27
298.315
297.919
298.789
298.896
298.847
298.645
299.379
299.569
299.706
299.591
300.658
301.309
302.107
302.189
304.372
306.503
309.373
309.986
315.463
322.361
332.172
334.54
350.153
369.736
395.614
425.161
439.142
484.701
543.798
606.147
634.494
717.87
807.053
887.591
924.029
1018.76
1102.15
1164.54
1194.07
1262.39
1304.06
1317.65
1328.49
1344.47
1327.87
1284.62
1275.2
1236.97
1158.46
1059.58
1029.87
951.76
851.211
757.402
680.859
679.142
636.031
614.318
623.346
637.474
697.758
786.872
898.809
932.47
1070.24
1204.77
1320.17
1408.08
1441.56
1516.34
1566.18
1596.36
1606.83
263.92
264.404
264.882
265.081
265.531
265.984
266.216
266.612
267.051
267.493
267.664
268.074
268.479
268.696
269.058
269.45
269.867
270.021
270.395
270.769
270.987
271.314
271.68
272.088
272.243
272.593
272.95
273.2
273.489
273.841
274.238
274.425
274.762
275.135
275.626
275.749
276.152
276.616
276.911
277.308
277.827
278.468
278.73
279.299
279.989
280.864
281.093
281.86
282.761
283.302
284.029
284.959
286.014
286.521
287.312
288.26
289.322
289.742
290.435
291.227
292.126
292.409
292.865
293.36
293.98
294.104
294.271
294.502
294.941
294.954
294.985
295.134
295.691
295.558
295.659
295.977
296.598
296.711
297.2
298.115
298.995
299.963
301.701
304.452
306.111
309.56
315.18
324.109
328.408
339.777
356.378
379.907
410.223
418.638
456.81
510.679
575.116
594.043
665.075
749.086
837.725
864.062
945.022
1026.37
1102.36
1126.62
1179.88
1221.91
1249.68
1263.67
1260.9
1245.63
1214.01
1217.52
1157.46
1080.88
993.544
985.027
888.664
790.383
709.006
652.906
641.073
594.824
577.988
596.163
608.789
656.101
743.926
861.134
902.247
1025.66
1162.49
1284.3
1386.83
1411.99
1489.14
1543.6
1582.93
1592.52
256.127
256.475
256.961
257.132
257.439
257.884
258.079
258.394
258.739
259.164
259.313
259.56
259.99
260.162
260.409
260.739
261.109
261.245
261.44
261.848
262.012
262.21
262.504
262.853
262.989
263.13
263.524
263.692
263.874
264.096
264.461
264.611
264.711
265.083
265.377
265.514
265.653
266.123
266.312
266.507
266.844
267.344
267.55
267.749
268.355
268.888
269.125
269.424
270.266
270.578
271.096
271.603
272.548
272.886
273.383
274.086
274.986
275.332
275.714
276.508
277.231
277.559
277.733
278.46
278.915
279.201
279.15
279.764
280.009
280.264
280.078
280.604
280.809
280.984
280.767
281.328
281.545
281.801
281.733
282.609
282.943
283.675
284.205
286.126
286.802
288.822
291.004
296.337
298.17
304.757
312.622
327.675
344.064
350.124
369.424
403.959
440.859
454.033
493.06
552.981
610.475
630.898
682.577
748.163
804.218
824.463
863.655
898.923
922.124
931.724
931.054
913.128
893.659
890.775
849.914
780.478
727.865
715.068
656.332
583.213
539.008
500.911
497.043
466.954
459.81
474.342
484.2
524.539
597.448
703.556
737.395
859.552
993.244
1129.26
1238.72
1274.65
1368.85
1443.64
1494.44
1509.4
254.562
254.878
255.384
255.573
255.808
256.225
256.565
256.729
257.039
257.562
257.641
257.84
258.259
258.546
258.65
258.941
259.468
259.479
259.629
260.036
260.319
260.357
260.607
261.13
261.14
261.226
261.602
261.958
261.922
262.102
262.6
262.701
262.703
263.021
263.634
263.467
263.568
264.057
264.388
264.355
264.631
265.319
265.429
265.515
266.025
266.93
266.813
267.076
267.848
268.462
268.602
269.065
270.073
270.526
270.73
271.346
272.495
272.755
272.945
273.617
274.775
274.819
274.892
275.503
276.544
276.371
276.288
276.817
277.748
277.401
277.203
277.68
278.561
278.089
277.852
278.385
279.255
278.822
278.711
279.529
280.53
280.467
280.903
282.601
284.031
284.986
286.968
291.429
294.234
298.857
306.088
318.588
336.229
338.839
356.78
385.621
424.275
431.444
466.801
516.68
578.64
591.103
634.664
690.373
756.007
771.017
796.697
826.244
862.773
875.41
858.126
839.951
832.619
842.599
786.264
724.52
679.006
683.852
615.072
550.871
509.233
483.122
474.824
445.836
438.801
457.792
466.309
499.941
567.497
674.135
711.045
820.86
948.227
1089.58
1217.43
1240.19
1329.55
1411.16
1477.42
1490.03
247.984
248.353
248.679
248.811
249.151
249.472
249.607
249.903
250.226
250.502
250.624
250.929
251.192
251.315
251.577
251.847
252.084
252.196
252.458
252.677
252.793
253.015
253.243
253.448
253.553
253.779
253.967
254.084
254.264
254.466
254.642
254.746
254.936
255.115
255.308
255.404
255.61
255.804
255.935
256.13
256.371
256.627
256.761
257.029
257.343
257.692
257.838
258.208
258.623
258.852
259.234
259.712
260.225
260.467
260.927
261.479
262.039
262.278
262.758
263.304
263.828
264.042
264.457
264.903
265.32
265.492
265.803
266.124
266.428
266.558
266.753
266.946
267.17
267.248
267.357
267.491
267.711
267.772
267.904
268.14
268.421
268.678
269.101
269.797
270.262
271.043
272.202
274.267
275.291
277.923
281.676
288.392
296.748
299.428
309.822
326.753
346.094
352.202
373.262
403.729
435.816
445.811
474.957
512.144
546.881
558.025
580.527
602.669
618.464
624.826
621.114
611.849
600.875
601.551
573.974
537.305
508.15
504.381
470.445
434.594
410.307
391.722
388.613
373.725
371.505
383.136
389.659
418.07
473.673
556.108
584.844
685.705
811.125
941.291
1060.96
1096.46
1208.37
1299.07
1369.45
1388.77
241.545
241.84
242.142
242.261
242.543
242.83
242.927
243.213
243.473
243.722
243.847
244.079
244.326
244.423
244.659
244.88
245.078
245.206
245.395
245.602
245.693
245.891
246.074
246.237
246.364
246.518
246.696
246.773
246.953
247.097
247.242
247.356
247.489
247.645
247.742
247.899
248.026
248.197
248.29
248.47
248.641
248.824
248.97
249.162
249.414
249.615
249.826
250.077
250.417
250.538
250.924
251.264
251.671
251.85
252.271
252.69
253.112
253.342
253.756
254.2
254.565
254.83
255.177
255.573
255.826
256.113
256.365
256.68
256.805
257.1
257.234
257.437
257.463
257.726
257.753
257.871
257.882
258.094
258.086
258.217
258.242
258.558
258.693
259.045
259.126
259.727
260.219
261.192
261.442
263.022
264.843
267.985
271.745
273.586
279.272
288.267
298.213
302.456
315.065
331.562
348.16
354.73
372.705
393.003
411.108
418.222
433.71
445.816
453.39
456.887
458.409
452.614
445.575
444.675
433.854
414.153
397.262
393.047
377.96
358.746
344.241
332.381
332.341
325.5
325.449
333.726
338.499
361.217
401.804
464.5
484.545
570.814
676.187
796.76
908.486
948.35
1062.71
1165.92
1245.48
1269.76
240.392
240.665
240.983
241.105
241.343
241.625
241.794
241.992
242.238
242.534
242.616
242.82
243.071
243.217
243.377
243.586
243.859
243.915
244.078
244.296
244.437
244.552
244.724
244.971
245.022
245.148
245.332
245.493
245.562
245.694
245.906
245.983
246.065
246.217
246.475
246.464
246.572
246.769
246.921
246.989
247.147
247.422
247.507
247.642
247.878
248.258
248.282
248.504
248.845
249.109
249.303
249.622
250.074
250.3
250.572
250.967
251.501
251.679
251.987
252.405
252.958
253.07
253.347
253.722
254.242
254.28
254.49
254.797
255.253
255.217
255.327
255.533
255.899
255.805
255.812
255.943
256.288
256.126
256.093
256.233
256.605
256.504
256.591
256.915
257.393
257.477
257.862
258.698
259.449
260.255
261.764
264.395
268.427
269.22
274.052
281.649
291.796
294.302
305.113
319.256
336.268
340.508
355.339
372.826
392.03
397.255
408.364
419.175
429.156
433.11
430.024
425.96
421.947
424.461
409.569
393.451
379.487
380.271
362.193
345.362
332.855
325.161
323.217
316.712
317.117
326.568
330.877
350.235
387.77
447.54
469.56
545.952
646.219
763.482
884.543
914.145
1025.43
1129.84
1221.23
1243.21
234.563
234.779
235.084
235.184
235.375
235.657
235.77
235.959
236.18
236.425
236.507
236.636
236.917
237.015
237.163
237.364
237.567
237.639
237.732
237.984
238.072
238.185
238.356
238.534
238.601
238.656
238.889
238.976
239.069
239.191
239.359
239.428
239.477
239.66
239.794
239.851
239.913
240.12
240.206
240.291
240.442
240.636
240.722
240.805
241.061
241.277
241.37
241.487
241.849
241.988
242.206
242.452
242.836
242.985
243.236
243.587
243.981
244.137
244.389
244.796
245.16
245.31
245.505
245.913
246.213
246.35
246.467
246.844
247.061
247.175
247.177
247.485
247.607
247.684
247.604
247.798
247.896
247.895
247.751
247.907
248.008
248.023
247.905
248.154
248.288
248.373
248.294
248.82
249.053
249.465
249.651
251.215
252.761
253.319
254.654
259.146
263.859
265.451
269.725
278.574
287.16
289.947
296.592
307.473
317.52
320.675
325.993
332.581
338.622
340.575
339.598
336.929
337.051
337.595
331.477
320.855
316.622
315.777
307.852
296.954
293.217
289.29
289.073
286.014
288.299
295.138
298.326
311.997
338.135
381.703
397.093
456.27
533.612
636.837
738.447
771.931
880.699
989.964
1080.74
1107.65
229.223
229.467
229.659
229.737
229.988
230.184
230.209
230.472
230.675
230.812
230.919
231.128
231.276
231.317
231.545
231.706
231.797
231.922
232.098
232.207
232.246
232.452
232.584
232.643
232.769
232.927
233.013
233.029
233.228
233.344
233.383
233.481
233.638
233.719
233.717
233.901
234.03
234.087
234.126
234.33
234.449
234.493
234.618
234.82
234.949
234.995
235.21
235.431
235.581
235.602
235.948
236.199
236.371
236.468
236.84
237.114
237.29
237.457
237.833
238.098
238.237
238.464
238.8
239.012
239.081
239.357
239.636
239.78
239.763
240.074
240.266
240.307
240.216
240.507
240.595
240.529
240.423
240.639
240.647
240.518
240.405
240.622
240.635
240.51
240.385
240.626
240.668
240.603
240.461
240.871
241.154
241.437
241.697
242.323
243.419
244.888
246.546
247.73
250.857
254.375
257.854
259.771
265.004
269.923
273.805
275.838
281.05
284.43
285.772
286.778
289.025
288.773
286.797
286.498
285.799
282.324
277.969
276.594
274.501
271.274
268.442
266.339
267.229
267.593
269.324
273.468
275.6
286.528
304.733
333.054
341.859
388.228
450.502
527.23
608.915
641.028
743.464
844.022
931.329
959.9
228.201
228.421
228.634
228.719
228.921
229.12
229.216
229.392
229.582
229.767
229.838
230.012
230.179
230.263
230.414
230.571
230.733
230.792
230.938
231.075
231.154
231.278
231.407
231.548
231.603
231.727
231.84
231.924
232.018
232.127
232.241
232.3
232.402
232.498
232.633
232.667