/*--------------------------------*- C++ -*----------------------------------*\
| =========                 |                                                 |
| \\      /  F ield         | OpenFOAM: The Open Source CFD Toolbox           |
|  \\    /   O peration     | Version:  v2012                                 |
|   \\  /    A nd           | Website:  www.openfoam.com                      |
|    \\/     M anipulation  |                                                 |
\*---------------------------------------------------------------------------*/
FoamFile
{
    version     2.0;
    format      ascii;
    class       volScalarField;
    location    "1e-06";
    object      p;
}
// * * * * * * * * * * * * * * * * * * * * * * * * * * * * * * * * * * * * * //

dimensions      [1 -1 -2 0 0 0 0];


internalField   nonuniform List<scalar> 
10098
(
298173
299060
298309
299076
304298
305956
303901
305594
310118
312822
310950
313269
298072
298855
298252
299125
304319
305823
303855
305640
310180
312787
310910
313305
297963
298833
298313
299120
304242
305806
303942
305662
310196
312802
311014
313333
283676
286915
287983
287219
287488
290626
290744
291169
291925
293871
294142
294840
297809
298530
298183
299125
304060
305484
303720
305563
310207
312625
310868
313375
283177
286389
287839
287069
287083
290148
290625
291117
291678
293552
294071
294978
297808
298336
298174
299327
304222
305499
303799
305739
310418
312709
310879
313418
283224
286480
287848
286941
287088
290272
290636
290871
291608
293643
294095
294893
297684
298289
298237
299323
304103
305465
303881
305754
310322
312707
310989
313450
283048
286221
287906
287040
286930
289982
290619
291104
291475
293366
294011
295003
297585
298008
298145
299386
304133
305301
303788
305813
310415
312642
310912
313493
283078
286315
287855
286845
286917
290111
290616
290644
291399
293508
294035
294901
297457
298009
298235
299351
303997
305306
303934
305839
310308
312657
311073
313532
283223
282893
286066
287894
286943
286755
289826
290588
290937
291249
293232
293931
294993
297346
297716
298125
299405
304017
305128
303851
305895
310393
312588
311021
313577
284635
283017
282961
286223
287793
286679
286762
290029
290557
290438
291181
293479
293966
294834
297203
297783
298251
299294
303830
305176
304070
305913
310232
312618
311251
313619
283411
284727
283111
282788
285981
287820
286773
286609
289749
290525
290602
290981
293192
293851
294913
297075
297484
298136
299348
303837
304986
304002
305970
310308
312537
311216
313671
280572
283594
284499
282809
282916
286222
287664
286399
286635
290061
290484
290082
290909
293585
293904
294654
296901
297641
298325
299184
303589
305083
304314
305984
310064
312580
311535
313720
316445
275748
275953
278152
279450
277831
278013
280923
282167
280286
280436
283439
284617
282935
282802
286010
287726
286543
286531
289823
290485
290294
290822
293339
293800
294760
296773
297351
298218
299230
303521
304881
304253
306057
310127
312482
311506
313779
316735
316042
317742
320576
323157
319929
321379
275121
275832
277820
278550
277054
277734
280580
281277
279401
280051
283123
283821
281979
282328
285773
287100
285575
286012
289714
290097
289314
290242
293401
293661
294259
296448
297424
298377
299048
303336
305082
304696
306127
309957
312590
311914
313806
316329
315703
317631
320398
322633
319298
320967
275630
276739
278419
278712
277576
278672
281220
281432
279847
280989
283833
284000
282296
283180
286538
287315
285698
286682
290516
290354
289246
290705
294253
293870
294146
296362
297734
298597
298820
302936
305080
304865
305939
309540
312498
312260
313892
316363
316006
318153
320801
322895
319745
321663
275473
276267
278263
278818
277543
278315
281034
281536
279912
280699
283574
284061
282397
282917
286192
287305
285788
286458
290139
290277
289328
290477
293579
293690
294252
296198
297322
298453
298959
302940
304832
304811
306102
309593
312319
312205
313949
316558
315905
317845
320800
323024
319726
321437
275654
276164
275450
276669
278485
278538
277434
278637
281194
281184
279710
280968
283733
283716
282112
283108
286391
287069
285441
286561
290432
290191
288916
290502
294386
293789
294043
296037
297605
298704
298817
302648
305026
305203
306153
309305
312396
312686
314054
316439
315883
318067
320960
322926
319623
321590
272058
272800
275489
276391
275329
276112
278303
278743
277461
278221
280989
281393
279865
280667
283468
283877
282352
282858
286043
287137
285686
286376
290032
290148
289146
290341
293395
293614
294233
295914
297110
298509
299023
302667
304672
305054
306369
309356
312102
312553
314108
316682
315797
317711
320964
323097
319662
321347
272126
272845
272093
273074
275732
276412
275316
276329
278511
278659
277372
278399
281123
281176
279701
280801
283530
283610
282126
282953
286113
286914
285424
286434
290141
290047
288878
290362
294096
293712
294145
295783
297323
298742
299010
302401
304842
305445
306547
309135
312157
313036
314278
316683
315764
317864
321142
323062
319563
321459
271641
272022
273225
271930
272384
275552
276684
275202
275719
278300
278903
277390
277933
280892
281405
279889
280453
283246
283829
282440
282704
285746
287044
285785
286267
289703
290042
289238
290235
293308
293540
294418
295707
296754
298483
299265
302426
304369
305198
306798
309176
311723
312836
314332
316955
315635
317426
321146
323260
319618
321154
268362
271887
272137
273244
271913
272520
275719
276746
275153
275839
278479
278902
277299
278033
280993
281274
279724
280527
283286
283600
282215
282753
285771
286801
285533
286290
289684
289905
288992
290178
293541
293599
294349
295576
296945
298715
299316
302170
304570
305684
307129
308984
311783
313375
314568
317017
315581
317544
321358
323266
319518
321218
268242
271308
272051
273653
271814
271895
275572
277056
275067
275248
278282
279169
277344
277541
280755
281544
279932
280173
282987
283856
282584
282539
285398
286994
285993
286181
289226
289986
289500
290195
292931
293474
294749
295595
296334
298397
299629
302193
303986
305332
307403
309007
311235
313100
314610
317367
315399
317009
321366
323472
319602
320832
268173
271546
272106
273444
271685
272127
275682
276897
274893
275407
278410
279023
277157
277701
280902
281329
279671
280287
283072
283545
282240
282605
285463
286669
285570
286185
289255
289776
289048
290059
293135
293490
294444
295388
296628
298692
299657
301852
304281
306008
307793
308734
311306
313790
314882
317289
315314
317162
321609
323446
319445
320910
268321
271162
272228
274105
271822
271738
275731
277417
275057
274968
278438
279525
277403
277324
280776
281749
280061
280025
282855
283927
282777
282500
285153
286993
286231
286223
288847
289997
289802
290236
292603
293573
295185
295615
296083
298390
300140
301950
303691
305591
308149
308880
310780
313450
314974
318133
315256
316592
321665
323853
319662
320649
266753
270050
271014
272364
270144
270851
274573
275756
273508
274103
277403
278028
275925
276444
279954
280466
278725
279255
282211
282793
281526
281771
284635
285997
284974
285465
288375
289207
288555
289424
292221
292724
293979
294730
295933
298273
299638
301037
303486
305851
307965
307791
309959
313509
314452
316779
314053
315806
321127
322778
318348
319650
267992
271516
271867
272849
271498
272525
275557
276303
274715
275687
278466
278663
277024
277944
280994
280956
279518
280543
283194
283172
282078
282892
285570
286302
285282
286402
289333
289544
288638
290184
293405
293562
294004
295132
296966
298887
299798
301074
304217
306909
308621
308046
310655
314975
315409
317813
315163
317027
322306
323558
319428
320906
268143
270892
271748
273263
271470
271869
275272
276500
274572
275011
278038
278828
276980
277304
280547
281137
279626
279993
282728
283359
282381
282481
285040
286424
285747
286161
288727
289551
289289
290196
292566
293286
294679
295204
296205
298561
300395
301128
303431
306411
308976
308076
309854
314311
315247
318086
314781
316056
322003
323717
319404
320205
208269
209313
209642
210237
211242
211477
211989
212900
213498
213642
214124
215132
215204
215652
216586
217147
217225
217705
218767
218817
219276
220278
220860
220962
221464
222580
222666
223155
224178
224797
224965
225492
226507
227093
227330
227874
228877
229145
229662
230569
231159
231550
232074
232896
233484
233947
234472
235222
235755
236292
236954
237638
238134
238684
239425
240200
240558
241131
242106
243019
243128
243760
245149
246166
245951
246664
248518
249563
249129
249870
252477
251879
252494
254763
255977
255494
256174
258571
259804
259427
260138
262478
263742
263268
263983
266262
267663
266882
267601
270193
270990
272203
271033
271727
274734
275847
274278
275058
277825
278448
276796
277440
280516
280839
279422
280150
282778
283067
282133
282627
285116
286097
285435
286208
288794
289285
288897
290155
292793
293267
294195
294995
296574
298818
300403
300802
303755
307094
309332
307788
309948
315048
315573
318222
314760
316237
322310
323740
319238
320381
207282
208352
208732
209382
210412
210693
211264
212196
212818
213000
213528
214543
214650
215137
216081
216654
216762
217274
218335
218414
218903
219903
220496
220622
221145
222251
222360
222870
223891
224512
224698
225238
226248
226837
227093
227646
228641
228918
229448
230352
230945
231349
231889
232700
233282
233762
234314
235055
235597
236165
236835
237511
238033
238626
239366
240140
240519
241152
242121
243006
243125
243809
245185
246191
245981
246750
248614
249704
249216
249954
252546
251951
252601
254862
256068
255635
256274
258646
259836
259545
260228
262530
263761
263540
264173
266368
267825
267408
268097
270276
271333
272826
271530
271844
274814
276308
274585
274854
277685
278811
277056
277135
280251
281155
279740
279854
282466
283361
282577
282442
284761
286327
286023
286153
288369
289420
289625
290307
292254
293281
294987
295164
295989
298593
301003
300917
303021
306700
309710
307913
309278
314532
315580
318613
314560
315472
322073
324053
319311
319947
206221
207300
207741
208421
209466
209807
210394
211342
211996
212247
212805
213817
213983
214485
215432
216027
216193
216725
217777
217905
218405
219396
220004
220177
220719
221810
221962
222478
223488
224122
224345
224898
225896
226497
226785
227357
228349
228649
229193
230095
230700
231124
231684
232500
233097
233594
234167
234917
235459
236043
236737
237403
237935
238543
239296
240047
240451
241093
242060
242922
243084
243805
245123
246080
245925
246701
248476
249483
249028
249772
252196
251616
252418
254666
255807
255399
256086
258412
259521
259265
259981
262195
263307
263142
263763
265828
267028
266770
267519
269288
270289
271597
270760
271202
273805
275290
273973
274483
277052
278181
276672
277074
279963
280743
279429
279899
282385
283025
282255
282504
284805
286007
285655
286161
288398
289192
289186
290160
292374
293282
294391
294889
296301
298945
301173
300620
303246
307384
310050
307590
309306
315096
315697
318563
314410
315611
322206
323994
319016
320131
205291
206415
206875
207610
208706
209053
209704
210712
211388
211651
212253
213304
213470
214023
215014
215617
215787
216349
217426
217545
218087
219112
219721
219892
220454
221562
221701
222248
223281
223911
224129
224697
225706
226303
226590
227165
228166
228455
229009
229919
230520
230935
231504
232325
232912
233408
234000
234761
235282
235889
236617
237271
237792
238446
239231
239965
240375
241105
242090
242929
243104
243896
245238
246169
246049
246906
248710
249728
249436
250352
252854
252253
252765
254990
256098
255630
256320
258622
259699
259412
260105
262298
263383
263278
263914
265939
267125
267093
267827
269562
270640
272030
271395
271683
274126
275826
274616
274697
277178
278802
277306
277104
279882
281348
280082
279803
282172
283581
283006
282472
284474
286466
286527
286268
287954
289511
290225
290485
291825
293418
296006
295325
295705
298744
302019
300968
302587
307117
310671
308143
308939
314835
316142
319390
314616
315073
322275
324612
319509
319866
203958
205078
205593
206346
207429
207856
208506
209490
210205
210510
211145
212184
212424
212970
213944
214585
214791
215389
216454
216637
217170
218189
218832
219033
219627
220733
220936
221472
222502
223168
223428
224018
225033
225662
225977
226597
227614
227946
228506
229451
230092
230532
231128
231985
232609
233113
233733
234533
235063
235679
236428
237100
237610
238253
239047
239777
240150
240854
241806
242610
242719
243482
244753
245613
245398
246239
247907
248767
248232
249128
251379
250895
251601
253848
254994
254595
255208
257584
258719
258513
259164
261420
262487
262422
263130
265199
266267
266308
266979
268612
269600
270713
270463
270874
272850
274271
273502
273917
275913
277233
276039
276383
278810
279890
278784
279138
281410
282349
281737
281862
284032
285472
285293
285648
287720
288792
288977
289806
291810
292944
294214
294132
295488
298537
301205
299259
301457
306638
309432
305741
306750
313386
314354
317165
312647
313788
320890
322709
317535
318451
203246
204403
204980
205768
206880
207355
208058
209077
209827
210201
210848
211903
212189
212779
213766
214431
214694
215282
216354
216574
217138
218152
218810
219061
219651
220735
220961
221521
222537
223197
223473
224065
225067
225695
226019
226624
227617
227943
228526
229432
230059
230488
231083
231931
232552
233043
233659
234479
234984
235609
236390
237074
237586
238258
239091
239843
240247
240965
241981
242822
243028
243799
245120
246039
245993
246824
248527
249514
249297
250187
252558
251994
252612
254714
255772
255408
256128
258333
259340
259119
259845
261939
262881
262853
263646
265540
266401
266571
267314
268863
269695
270583
270759
271337
272864
273875
273858
274488
275948
276976
276618
277235
279013
279936
279452
280129
281908
282636
282341
282855
284670
285758
285714
286469
288386
289170
289236
290443
292700
293652
295252
294923
296697
299833
302473
300438
302937
308582
311044
307360
308795
316204
316185
318561
314508
315529
322185
323843
319139
320276
202228
203393
204012
204842
205959
206480
207232
208248
209018
209428
210118
211173
211502
212130
213109
213788
214086
214712
215778
216031
216626
217632
218300
218580
219198
220276
220529
221114
222121
222788
223091
223703
224697
225332
225683
226305
227294
227635
228227
229140
229776
230211
230820
231673
232302
232799
233432
234265
234768
235410
236209
236894
237400
238090
238938
239687
240093
240834
241849
242684
242897
243701
245007
245904
245879
246742
248392
249333
249113
250004
252209
251771
252468
254532
255588
255247
255947
258109
259128
258937
259633
261700
262651
262674
263441
265308
266118
266433
267130
268641
269502
270419
270784
271345
272754
273896
274139
274640
276003
277278
277145
277489
279068
280359
279980
280214
281765
282981
282842
282875
284405
286018
286264
286492
287994
289365
289863
290500
292100
293567
295659
294634
295699
299439
302674
300058
301792
308015
310979
307150
307836
314814
315817
318548
314328
314860
321782
323876
319251
319780
201206
202377
203045
203892
205024
205592
206348
207390
208190
208661
209368
210428
210803
211442
212435
213137
213488
214129
215189
215486
216094
217103
217786
218111
218739
219809
220098
220693
221698
222380
222716
223341
224331
224982
225358
225992
226987
227346
227953
228874
229526
229972
230597
231470
232116
232615
233259
234122
234615
235260
236097
236796
237292
237978
238861
239611
240020
240745
241774
242599
242835
243610
244902
245779
245806
246634
248234
249151
249000
249856
251972
251609
252319
254314
255358
255086
255809
257904
258910
258771
259487
261499
262415
262487
263282
265050
265888
266199
266938
268390
269174
269967
270472
271091
272222
273086
273636
274190
275110
276124
276467
276945
278056
279255
279364
279842
281040
282231
282386
282749
284047
285544
285895
286423
287858
289229
289594
290452
292380
293842
295859
294699
296173
300270
303265
300069
301948
308515
311015
306775
307591
315110
315612
317996
314060
314895
321490
323251
318860
319887
200318
201524
202205
203097
204267
204843
205655
206738
207556
208033
208777
209873
210252
210938
211967
212681
213036
213706
214793
215092
215737
216771
217462
217784
218430
219524
219801
220424
221452
222133
222465
223105
224110
224760
225132
225772
226779
227127
227745
228682
229331
229765
230397
231283
231927
232418
233075
233956
234430
235092
235959
236663
237141
237851
238769
239521
239923
240690
241767
242583
242830
243656
244966
245844
245894
246763
248386
249302
249176
250050
252179
251782
252522
254526
255560
255247
255986
258064
259054
258868
259580
261587
262474
262531
263301
265031
265887
266172
266878
268302
269075
269871
270481
271087
272137
273008
273804
274375
275197
276286
276972
277417
278290
279626
280060
280347
281253
282721
283122
283166
284146
285994
286606
286756
287843
289628
290238
290733
292186
294062
297130
294872
295788
300475
303817
300368
301735
308824
311653
308206
308542
315453
316087
318631
314609
314908
321584
323755
319618
319959
199038
200231
200954
201854
203006
203642
204446
205504
206349
206863
207634
208714
209155
209838
210851
211595
211986
212689
213765
214121
214761
215790
216510
216864
217544
218631
218967
219581
220606
221323
221695
222355
223366
224048
224450
225130
226149
226540
227168
228127
228814
229271
229924
230840
231516
232008
232693
233607
234090
234751
235634
236360
236828
237524
238441
239193
239566
240301
241350
242143
242337
243126
244383
245211
245193
246034
247556
248400
248197
249089
251094
250800
251470
253430
254500
254270
254927
257007
258051
257939
258607
260640
261668
261818
262558
264354
265227
265577
266298
267813
268625
269427
270175
270861
271861
272642
273655
274256
274878
275791
276806
277297
277826
278969
279744
280210
280733
282033
282644
283017
283749
285386
285957
286455
287477
289206
289451
290117
291797
293427
295707
292781
294341
299459
302224
297784
299227
306804
308911
303979
304401
313033
313975
316163
312604
313542
319854
321586
317738
318581
198383
199604
200375
201303
202482
203153
203999
205093
205967
206538
207317
208417
208900
209618
210655
211425
211866
212564
213651
214040
214709
215742
216481
216875
217540
218624
218983
219624
220641
221355
221738
222396
223403
224090
224501
225165
226185
226575
227211
228162
228846
229298
229948
230866
231546
232031
232697
233635
234110
234774
235674
236406
236879
237581
238544
239323
239728
240470
241573
242409
242681
243468
244770
245653
245758
246583
248130
249052
249001
249831
251820
251584
252315
254193
255214
255025
255771
257726
258692
258586
259334
261232
262195
262228
262979
264665
265481
265818
266552
267949
268666
269385
270095
270788
271682
272345
273392
274069
274562
275313
276523
277179
277488
278406
279565
280253
280544
281669
282610
283300
283910
285390
286035
286914
288121
289747
289737
290859
293275
294771
297428
295123
296504
301615
304141
300187
301738
309258
311087
307556
308420
315158
315344
317119
314273
315148
320651
322183
319211
320285
197444
198665
199462
200426
201603
202306
203195
204279
205164
205757
206575
207675
208191
208949
209978
210763
211231
211966
213050
213468
214171
215195
215941
216357
217052
218130
218509
219176
220190
220913
221318
221997
222996
223692
224122
224805
225822
226225
226879
227831
228523
228982
229648
230569
231255
231746
232433
233377
233849
234532
235446
236182
236651
237370
238340
239119
239524
240291
241385
242214
242496
243311
244596
245468
245587
246439
247951
248848
248817
249677
251615
251407
252150
253998
255016
254860
255599
257528
258489
258398
259136
261017
261979
262006
262737
264425
265271
265621
266325
267719
268457
269201
269935
270608
271501
272177
273280
273949
274444
275197
276561
277216
277473
278449
279779
280450
280619
281831
282947
283597
284024
285615
286334
287084
288090
289920
289871
290857
293017
294646
297337
294328
295774
301406
304039
299965
301172
308813
310744
306881
307419
314652
315179
317176
314476
314960
320302
322222
319667
320161
196502
197718
198555
199518
200697
201440
202318
203421
204330
204980
205806
206907
207469
208229
209271
210077
210602
211348
212427
212888
213594
214621
215384
215847
216553
217625
218041
218712
219723
220463
220908
221597
222596
223307
223773
224462
225481
225907
226569
227529
228234
228713
229391
230328
231027
231532
232226
233192
233664
234346
235285
236031
236506
237220
238210
238988
239405
240154
241251
242081
242388
243170
244447
245306
245472
246294
247762
248641
248670
249506
251369
251228
251967
253748
254751
254664
255409
257267
258214
258190
258973
260765
261699
261809
262586
264212
265064
265426
266175
267542
268273
269019
269740
270475
271373
272041
273132
273865
274362
275070
276462
277175
277357
278201
279648
280385
280430
281506
282755
283518
283858
285366
286176
287043
288130
289982
289851
290896
293309
294812
297359
294443
295806
301162
303588
299643
300892
308160
309808
306510
307154
314011
314404
316065
313924
314655
319365
321049
319113
320008
195727
196963
197792
198795
200013
200737
201667
202818
203729
204371
205236
206372
206919
207731
208819
209630
210148
210925
212036
212480
213227
214295
215057
215508
216235
217336
217727
218429
219481
220218
220646
221354
222379
223087
223534
224234
225271
225673
226356
227343
228041
228500
229195
230153
230844
231333
232048
233033
233474
234185
235162
235903
236351
237098
238130
238903
239302
240100
241254
242063
242364
243206
244510
245359
245524
246390
247901
248772
248798
249659
251560
251360
252147
253971
254954
254813
255579
257462
258416
258313
259044
260863
261828
261906
262636
264260
265086
265407
266106
267448
268179
268928
269615
270290
271195
271864
272933
273636
274130
274827
276256
277002
277169
277984
279533
280366
280400
281426
282788
283688
284022
285429
286221
287262
288441
290276
289917
291129
293771
295370
297851
295164
296772
302867
305179
301396
302448
309873
311238
307509
307809
314358
314913
316599
314713
314962
319502
321513
320137
320386
194575
195787
196645
197651
198827
199606
200534
201628
202561
203229
204111
205226
205833
206641
207691
208530
209077
209883
210976
211480
212226
213266
214057
214539
215298
216387
216844
217539
218572
219349
219817
220542
221563
222300
222772
223513
224556
225002
225687
226679
227418
227898
228609
229582
230304
230795
231533
232538
233004
233702
234674
235440
235889
236616
237633
238417
238791
239561
240676
241480
241736
242548
243801
244622
244728
245578
247007
247837
247815
248703
250509
250387
251071
252828
253852
253802
254481
256320
257327
257372
258101
259992
260959
261105
261791
263482
264390
264784
265493
266954
267758
268556
269337
270094
271075
271803
272968
273707
274302
275056
276546
277314
277546
278361
279950
280793
280789
281755
283102
284019
284204
285488
286178
287225
288190
289878
289327
290367
292783
294071
296110
292677
294175
299384
301051
296718
297950
305784
307877
304830
305272
312292
313074
314533
313535
314162
318178
319707
319099
319823
194012
195237
196137
197147
198341
199156
200097
201229
202186
202916
203801
204925
205574
206404
207477
208337
208945
209744
210838
211381
212143
213191
213999
214529
215281
216365
216852
217574
218605
219378
219864
220586
221601
222345
222841
223557
224594
225046
225737
226728
227465
227954
228661
229638
230372
230873
231589
232607
233078
233785
234778
235552
236023
236759
237808
238612
239030
239803
240954
241792
242125
242929
244213
245080
245298
246127
247566
248453
248557
249377
251155
251110
251855
253541
254523
254533
255279
257005
257983
258052
258799
260513
261378
261529
262291
263880
264736
265070
265799
267139
267860
268609
269286
270031
270969
271647
272675
273435
274030
274742
276094
276893
277191
277978
279481
280359
280498
281464
282806
283781
284179
285488
286243
287361
288580
290327
289983
291178
293866
295327
297659
295164
296793
302508
304629
301170
302360
308998
309998
306947
307499
313483
313868
314994
314360
314915
318238
319448
319633
320501
193245
194476
195384
196420
197619
198448
199425
200555
201527
202255
203166
204304
204967
205831
206909
207786
208394
209222
210332
210884
211679
212733
213554
214083
214856
215955
216448
217197
218235
219018
219507
220245
221267
222019
222509
223240
224291
224744
225452
226450
227197
227680
228402
229388
230124
230618
231353
232389
232848
233575
234585
235366
235823
236580
237644
238457
238865
239662
240824
241666
241995
242825
244118
244988
245209
246062
247512
248396
248507
249368
251129
251085
251882
253579
254526
254520
255309
257051
257971
257972
258684
260417
261333
261511
262220
263764
264630
264954
265656
266999
267729
268481
269148
269861
270814
271500
272506
273237
273865
274582
275903
276703
277035
277815
279297
280214
280402
281346
282667
283734
284204
285473
286182
287428
288703
290435
290038
291356
294107
295565
297774
295311
296999
302537
304411
300941
302117
308799
310046
307196
307618
313426
313883
314966
314641
315001
318126
319364
320205
320809
192203
193400
194316
195345
196521
197372
198325
199440
200414
201167
202088
203207
203900
204753
205824
206707
207346
208194
209287
209876
210663
211715
212548
213106
213903
214992
215529
216270
217311
218116
218639
219395
220423
221188
221705
222476
223526
224008
224720
225735
226503
227004
227743
228745
229498
229999
230759
231807
232275
232986
234007
234798
235254
235995
237062
237862
238252
239025
240172
240986
241286
242095
243349
244168
244356
245199
246584
247410
247504
248389
250084
250084
250792
252437
253423
253481
254189
255916
256899
257026
257769
259509
260430
260667
261412
262995
263897
264289
265035
266460
267276
268092
268806
269610
270651
271414
272451
273268
273999
274787
276111
276952
277403
278232
279670
280581
280850
281771
282996
284007
284467
285596
286202
287302
288444
289952
289432
290492
292960
294201
296074
293344
294869
299933
301536
298133
299296
305910
307435
305025
305612
311568
312396
313559
313801
314468
317400
318477
320001
320801
191706
192928
193875
194910
196107
196980
197961
199103
200102
200893
201818
202962
203685
204563
205655
206568
207236
208077
209196
209809
210618
211684
212542
213137
213924
215026
215568
216325
217371
218185
218721
219471
220508
221294
221814
222553
223623
224107
224829
225849
226625
227129
227860
228879
229648
230148
230884
231962
232432
233157
234199
235009
235480
236229
237328
238159
238579
239357
240544
241400
241745
242547
243847
244722
244975
245794
247224
248110
248273
249093
250793
250837
251606
253209
254174
254255
255024
256693
257609
257709
258475
260126
260993
261154
261905
263432
264295
264653
265394
266734
267467
268228
268867
269648
270641
271350
272273
273066
273801
274564
275759
276591
277108
277944
279270
280179
280595
281573
282767
283780
284430
285664
286359
287475
288839
290499
290219
291411
294051
295495
297556
295447
296916
301895
303652
300855
302005
307836
309081
306781
307505
312702
313161
313974
314310
314939
317282
317894
319825
320752
191011
192219
193174
194239
195420
196315
197330
198446
199449
200250
201205
202336
203085
203994
205069
205989
206676
207551
208658
209299
210137
211188
212053
212662
213479
214570
215139
215924
216955
217773
218326
219100
220123
220914
221451
222217
223276
223777
224520
225527
226308
226824
227574
228584
229355
229868
230628
231700
232182
232929
233966
234778
235257
236031
237123
237957
238386
239188
240361
241217
241582
242409
243683
244560
244846
245692
247084
247970
248180
249027
250674
250762
251551
253120
254065
254184
254962
256597
257513
257637
258356
259940
260822
261067
261838
263334
264148
264519
265239
266573
267322
268091
268731
269485
270492
271214
272120
272893
273661
274426
275579
276415
276986
277820
279092
280033
280514
281489
282632
283707
284434
285632
286286
287509
288900
290490
290233
291539
294178
295551
297554
295631
297155
301940
303610
301053
302185
307812
308989
306948
307601
312548
313030
313900
314384
314859
317119
317720
320048
320777
190089
191267
192225
193262
194426
195325
196300
197422
198423
199247
200195
201312
202076
202964
204045
204966
205682
206560
207656
208316
209139
210199
211070
211708
212532
213623
214218
214989
216037
216870
217450
218234
219267
220064
220628
221415
222478
222997
223735
224766
225561
226090
226853
227882
228658
229181
229957
231039
231520
232247
233311
234129
234597
235351
236456
237273
237686
238469
239634
240458
240797
241607
242862
243691
243949
244790
246147
246976
247166
248039
249655
249753
250470
252017
252987
253143
253881
255496
256457
256646
257404
259037
259989
260251
260999
262532
263443
263870
264639
266012
266816
267655
268322
269175
270277
271067
271982
272829
273712
274540
275674
276549
277229
278101
279325
280255
280822
281767
282809
283811
284571
285669
286175
287239
288592
289978
289563
290580
293051
294238
295895
293857
295255
299741
301205
298711
299865
305414
306806
305053
305858
310885
311770
312855
313618
314473
316832
317576
320325
321241
189648
190856
191833
192881
194068
194992
195998
197132
198164
199001
199954
201107
201893
202808
203907
204863
205584
206459
207595
208274
209126
210208
211105
211741
212560
213676
214275
215072
216129
216983
217561
218341
219398
220223
220768
221530
222633
223149
223900
224942
225759
226278
227032
228089
228894
229398
230152
231284
231761
232511
233594
234437
234911
235679
236813
237674
238098
238879
240096
240972
241330
242131
243445
244334
244619
245432
246848
247741
247961
248766
250408
250517
251307
252833
253784
253935
254716
256294
257226
257380
258146
259701
260601
260818
261589
263073
263910
264233
264995
266344
267098
267903
268508
269301
270361
271112
271937
272745
273615
274417
275452
276311
277045
277929
279067
279987
280670
281697
282713
283713
284626
285858
286447
287541
289036
290619
290436
291581
294121
295516
297380
295773
297072
301481
303038
300955
302095
307113
308309
306632
307508
311985
312527
313315
314026
314773
316690
317049
319726
320639
189014
190189
191170
192245
193405
194334
195369
196476
197490
198345
199332
200453
201257
202202
203278
204223
204975
205890
206991
207696
208576
209629
210520
211188
212045
213132
213760
214584
215616
216464
217070
217879
218907
219722
220307
221111
222177
222718
223496
224515
225322
225872
226652
227681
228478
229018
229808
230909
231410
232184
233246
234083
234580
235371
236482
237329
237781
238595
239771
240628
241028
241861
243123
243992
244333
245179
246529
247402
247690
248536
250102
250279
251064
252544
253488
253701
254478
256003
256931
257152
257901
259404
260313
260609