/*--------------------------------*- C++ -*----------------------------------*\
| =========                 |                                                 |
| \\      /  F ield         | OpenFOAM: The Open Source CFD Toolbox           |
|  \\    /   O peration     | Version:  v2012                                 |
|   \\  /    A nd           | Website:  www.openfoam.com                      |
|    \\/     M anipulation  |                                                 |
\*---------------------------------------------------------------------------*/
FoamFile
{
    version     2.0;
    format      ascii;
    class       volScalarField;
    location    "1e-06";
    object      p_rgh;
}
// * * * * * * * * * * * * * * * * * * * * * * * * * * * * * * * * * * * * * //

dimensions      [1 -1 -2 0 0 0 0];


internalField   nonuniform List<scalar> 
10098
(
297170
298049
297289
298047
303260
304909
302844
304529
309042
311737
309855
312164
297069
297844
297232
298096
303281
304776
302799
304574
309104
311702
309815
312200
296961
297821
297293
298091
303204
304759
302885
304596
309121
311717
309918
312227
282767
285999
287060
286289
286550
289680
289790
290207
290956
292893
293156
293846
296806
297518
297162
298096
303022
304436
302664
304497
309131
311540
309773
312270
282268
285473
286915
286138
286144
289202
289671
290155
290708
292574
293085
293983
296805
297325
297153
298298
303184
304451
302742
304673
309343
311624
309783
312313
282315
285563
286925
286010
286150
289326
289682
289909
290638
292665
293108
293899
296681
297278
297217
298293
303064
304418
302825
304688
309246
311622
309893
312344
282139
285305
286982
286109
285992
289036
289665
290142
290506
292388
293024
294008
296581
296997
297125
298356
303095
304253
302731
304747
309340
311557
309817
312388
282169
285399
286931
285914
285978
289165
289662
289683
290429
292530
293048
293906
296454
296998
297214
298322
302959
304258
302877
304773
309232
311572
309978
312426
282321
281984
285149
286970
286012
285816
288880
289634
289975
290278
292254
292945
293998
296343
296704
297104
298375
302979
304080
302794
304828
309317
311502
309926
312471
283740
282115
282052
285306
286869
285748
285823
289083
289603
289476
290211
292501
292980
293839
296199
296771
297230
298265
302791
304128
303013
304847
309156
311532
310155
312513
282522
283832
282208
281879
285065
286897
285842
285670
288802
289571
289640
290011
292214
292864
293918
296071
296472
297115
298318
302798
303938
302945
304903
309231
311451
310121
312566
279690
282705
283604
281907
282007
285305
286740
285468
285696
289114
289530
289119
289939
292607
292917
293659
295897
296628
297305
298154
302550
304035
303257
304918
308987
311494
310439
312614
315329
274923
275122
277315
278606
276982
277158
280061
281298
279410
279554
282550
283722
282032
281893
285093
286802
285611
285592
288877
289531
289332
289852
292360
292813
293765
295769
296339
297197
298200
302482
303833
303196
304990
309051
311396
310410
312673
315619
314915
316605
319428
321999
318760
320198
274296
275001
276982
277706
276205
276878
279718
280408
278526
279170
282234
282925
281077
281419
284857
286176
284643
285073
288768
289143
288352
289272
292422
292674
293264
295444
296412
297356
298018
302297
304033
303638
305060
308881
311504
310818
312700
315213
314576
316494
319251
321475
318128
319787
274805
275907
277581
277868
276726
277816
280358
280563
278972
280107
282944
283105
281394
282271
285621
286391
284767
285743
289570
289399
288283
289735
293274
292883
293151
295358
296722
297576
297790
301897
304032
303807
304872
308463
311411
311164
312786
315246
314880
317016
319654
321737
318576
320482
274648
275436
277425
277975
276694
277459
280171
280668
279036
279817
282685
283165
281494
282007
285275
286380
284857
285519
289192
289322
288366
289506
292600
292703
293256
295194
296309
297432
297929
301901
303784
303754
305035
308516
311233
311109
312843
315442
314778
316707
319652
321865
318557
320256
274840
275345
274625
275838
277648
277695
276584
277781
280332
280315
278834
280086
282844
282820
281209
282198
285474
286145
284509
285622
289484
289236
287953
289531
293407
292802
293047
295033
296592
297683
297787
301609
303978
304145
305086
308228
311309
311589
312948
315323
314756
316930
319812
321767
318454
320409
271255
271992
274675
275571
274504
275280
277466
277900
276612
277365
280126
280524
278989
279785
282579
282981
281449
281948
285126
286213
284754
285436
289085
289193
288184
289371
292416
292627
293238
294910
296098
297488
297993
301628
303623
303996
305302
308280
311015
311456
313002
315566
314670
316574
319816
321938
318492
320166
271334
272048
271290
272266
274918
275592
274490
275497
277674
277816
276522
277543
280261
280307
278826
279919
282641
282714
281223
282043
285195
285989
284492
285494
289193
289092
287916
289392
293117
292725
293149
294779
296310
297720
297979
301361
303793
304387
305479
308059
311070
311940
313172
315566
314637
316727
319994
321903
318393
320278
270854
271230
272428
271127
271575
274737
275865
274377
274887
277462
278060
276540
277077
280030
280536
279013
279571
282357
282933
281537
281794
284829
286119
284853
285328
288756
289087
288275
289264
292329
292553
293422
294702
295741
297461
298235
301386
303320
304140
305731
308099
310636
311739
313225
315839
314508
316288
319998
322101
318448
319973
267581
271100
271345
272447
271111
271712
274905
275926
274327
275008
277641
278058
276449
277177
280131
280405
278848
279645
282397
282704
281312
281842
284854
285876
284601
285350
288737
288950
288029
289207
292561
292612
293353
294572
295932
297693
298286
301130
303521
304625
306062
307907
310696
312278
313461
315900
314454
316406
320210
322106
318348
320036
267461
270522
271259
272856
271011
271087
274758
276236
274241
274416
277444
278325
276493
276684
279892
280675
279056
279290
282098
282959
281681
281629
284480
286069
285060
285241
288279
289031
288537
289224
291951
292487
293753
294591
295321
297375
298598
301154
302937
304273
306335
307930
310148
312003
313503
316250
314272
315871
320217
322313
318431
319650
267391
270759
271314
272646
270882
271318
274868
276077
274067
274575
277572
278179
276307
276845
280039
280460
278795
279404
282182
282649
281336
281694
284545
285744
284638
285245
288307
288820
288085
289088
292156
292502
293448
294383
295615
297670
298627
300812
303232
304949
306725
307656
310219
312694
313775
316172
314186
316024
320460
322287
318274
319729
267540
270375
271436
273307
271019
270930
274917
276596
274230
274136
277600
278681
276552
276467
279913
280879
279185
279142
281966
283030
281874
281590
284235
286068
285298
285283
287899
289041
288839
289264
291623
292585
294189
294610
295069
297368
299109
300910
302642
304533
307082
307803
309693
312353
313867
317015
314129
315454
320517
322694
318492
319467
265972
269263
270222
271566
269341
270043
273758
274935
272682
273271
276565
277184
275075
275587
279090
279597
277849
278372
281321
281897
280622
280860
283717
285072
284041
284524
287427
288251
287591
288453
291241
291736
292983
293725
294919
297250
298607
299997
302437
304792
306897
306713
308871
312412
313345
315661
312925
314668
319978
321619
317178
318468
267211
270729
271074
272051
270694
271716
274743
275483
273889
274855
277627
277819
276173
277087
280131
280086
278642
279660
282304
282276
281174
281982
284652
285377
284349
285461
288385
288588
287675
289213
292425
292574
293007
294127
295952
297864
298766
300034
303167
305850
307553
306968
309568
313878
314302
316696
314036
315889
321157
322399
318257
319724
267361
270105
270955
272465
270666
271060
274457
275679
273745
274178
277200
277983
276130
276447
279684
280267
278750
279110
281838
282463
281477
281570
284122
285499
284814
285221
287779
288595
288325
289224
291586
292298
293682
294199
295191
297539
299364
300088
302381
305353
307908
306998
308767
313213
314140
316968
313653
314918
320854
322557
318233
319023
207868
208908
209234
209825
210827
211059
211567
212474
213069
213210
213688
214692
214760
215205
216135
216692
216767
217244
218302
218348
218803
219801
220379
220478
220976
222088
222170
222655
223674
224289
224453
224976
225987
226569
226802
227342
228341
228604
229117
230021
230607
230993
231513
232330
232914
233372
233893
234639
235168
235700
236358
237037
237529
238075
238811
239581
239936
240504
241474
242382
242486
243114
244498
245510
245291
245999
247848
248889
248450
249186
251788
251184
251795
254059
255268
254780
255455
257846
259075
258693
259398
261734
262992
262512
263223
265496
266892
266105
266819
269406
270197
271405
270230
270917
273919
275027
273451
274225
276987
277603
275946
276582
279653
279969
278545
279267
281888
282170
281230
281716
284197
285171
284502
285267
287845
288329
287933
289183
291813
292279
293199
293989
295561
297796
299372
299762
302705
306036
308264
306710
308861
313950
314466
317104
313632
315098
321160
322580
318067
319199
206881
207947
208324
208970
209997
210274
210842
211770
212389
212567
213092
214103
214206
214690
215630
216199
216304
216812
217870
217944
218430
219426
220015
220137
220657
221759
221864
222370
223387
224004
224186
224722
225728
226312
226565
227114
228105
228378
228904
229803
230392
230792
231327
232134
232712
233187
233736
234472
235010
235573
236239
236910
237428
238016
238752
239522
239896
240525
241489
242369
242483
243163
244534
245535
245321
246085
247944
249029
248537
249269
251856
251257
251902
254158
255359
254920
255555
257922
259107
258811
259488
261785
263011
262784
263412
265602
267053
266632
267315
269488
270540
272028
270726
271035
273999
275488
273758
274021
276846
277966
276206
276277
279388
280285
278863
278970
281576
282464
281673
281531
283843
285401
285089
285212
287421
288464
288661
289335
291274
292292
293990
294158
294976
297571
299971
299876
301972
305641
308641
306835
308190
313434
314472
317495
313432
314334
320924
322892
318140
318765
205819
206895
207332
208010
209051
209389
209972
210917
211567
211814
212369
213377
213539
214038
214981
215573
215734
216263
217311
217435
217931
218919
219523
219692
220231
221317
221466
221977
222984
223614
223832
224382
225376
225973
226256
226824
227813
228109
228648
229546
230147
230567
231123
231934
232527
233020
233589
234334
234872
235451
236141
236803
237330
237934
238682
239429
239828
240465
241428
242285
242442
243159
244472
245425
245265
246036
247806
248808
248348
249087
251507
250922
251719
253961
255098
254685
255366
257688
258792
258531
259242
261450
262556
262387
263003
265062
266256
265994
266737
268501
269496
270799
269956
270393
272990
274469
273146
273650
276213
277336
275821
276217
279099
279873
278552
279015
281495
282128
281350
281592
283887
285081
284722
285220
287450
288236
288222
289188
291394
292294
293394
293884
295287
297922
300141
299579
302197
306325
308981
306512
308218
313999
314589
317445
313281
314473
321057
322833
317844
318948
204889
206010
206467
207199
208291
208635
209282
210286
210959
211218
211816
212864
213026
213575
214563
215163
215328
215887
216960
217076
217613
218635
219240
219407
219966
221069
221205
221748
222776
223403
223617
224181
225186
225779
226061
226633
227629
227914
228464
229370
229967
230378
230943
231760
232342
232834
233422
234177
234694
235297
236020
236671
237187
237836
238617
239347
239752
240477
241458
242292
242462
243249
244587
245513
245388
246240
248040
249053
248756
249668
252164
251558
252065
254285
255388
254915
255601
257898
258970
258677
259365
261553
262633
262523
263153
265173
266353
266316
267044
268774
269847
271232
270591
270874
273310
275005
273789
273864
276339
277957
276455
276247
279018
280477
279205
278920
281281
282683
282102
281560
283556
285540
285594
285327
287005
288554
289261
289513
290845
292429
295009
294319
294691
297721
300987
299927
301537
306057
309603
307064
307851
313737
315034
318272
313488
313934
321125
323451
318337
318684
203557
204673
205185
205934
207014
207437
208083
209064
209776
210077
210708
211744
211980
212523
213493
214130
214333
214927
215988
216168
216697
217712
218351
218548
219138
220240
220440
220971
221998
222660
222915
223501
224512
225137
225449
226065
227078
227405
227961
228902
229539
229975
230566
231419
232039
232539
233154
233950
234476
235087
235831
236499
237005
237643
238433
239158
239526
240226
241174
241973
242077
242835
244102
244957
244738
245573
247237
248092
247552
248443
250689
250200
250901
253143
254285
253881
254488
256859
257989
257778
258424
260675
261736
261666
262369
264433
265496
265531
266196
267824
268807
269914
269659
270064
272035
273450
272675
273084
275074
276388
275188
275526
277946
279019
277907
278254
280520
281451
280832
280951
283113
284546
284359
284707
286771
287836
288012
288834
290830
291955
293216
293126
294473
297514
300173
298218
300407
305578
308363
304663
305662
312288
313246
316047
311518
312649
319740
321549
316363
317268
202845
203998
204572
205356
206465
206936
207636
208651
209397
209768
210411
211463
211746
212331
213314
213977
214235
214820
215888
216104
216665
217675
218329
218576
219162
220243
220464
221020
222033
222688
222960
223549
224546
225170
225490
226091
227080
227402
227981
228882
229506
229930
230521
231365
231981
232468
233080
233896
234397
235017
235794
236473
236981
237648
238476
239224
239623
240337
241349
242185
242386
243153
244468
245383
245332
246159
247857
248838
248617
249502
251868
251300
251913
254009
255063
254693
255408
257609
258610
258384
259105
261194
262130
262098
262885
264774
265629
265794
266532
268075
268902
269784
269955
270527
272048
273053
273031
273655
275109
276131
275766
276378
278149
279065
278575
279245
281018
281739
281437
281943
283751
284832
284781
285528
287437
288213
288271
289471
291719
292663
294254
293918
295683
298810
301441
299396
301887
307523
309975
306281
307707
315106
315077
317443
313379
314390
321035
322682
317967
319093
201826
202988
203603
204430
205544
206061
206810
207822
208588
208995
209681
210733
211058
211682
212658
213333
213627
214250
215312
215561
216153
217154
217818
218095
218708
219783
220032
220613
221616
222280
222578
223187
224176
224807
225154
225772
226757
227094
227682
228591
229223
229654
230258
231107
231732
232225
232853
233681
234180
234818
235612
236293
236794
237480
238324
239068
239469
240206
241216
242046
242255
243054
244356
245248
245218
246076
247721
248658
248433
249319
251519
251076
251768
253827
254878
254532
255227
257384
258398
258202
258893
260955
261900
261918
262679
264542
265346
265656
266347
267853
268708
269620
269979
270535
271939
273074
273311
273807
275163
276432
276294
276631
278203
279488
279102
279330
280874
282083
281937
281963
283486
285092
285330
285551
287045
288409
288899
289528
291119
292578
294662
293628
294684
298416
301642
299017
300742
306956
309910
306071
306748
313715
314709
317429
313199
313721
320632
322715
318079
318597
200804
201972
202636
203480
204608
205172
205926
206964
207760
208228
208931
209987
210359
210995
211983
212682
213029
213666
214723
215016
215620
216625
217304
217626
218250
219316
219601
220192
221193
221871
222203
222824
223810
224457
224829
225459
226450
226805
227408
228325
228972
229414
230035
230903
231545
232040
232680
233538
234027
234668
235500
236195
236687
237368
238246
238992
239396
240117
241141
241962
242192
242963
244251
245122
245145
245968
247563
248476
248320
249171
251282
250914
251619
253609
254648
254371
255089
257179
258180
258035
258747
260754
261664
261731
262521
264283
265116
265422
266155
267602
268381
269168
269667
270281
271406
272264
272808
273357
274271
275278
275615
276087
277192
278384
278487
278958
280149
281333
281481
281837
283128
284617
284961
285481
286909
288272
288630
289479
291399
292852
294861
293693
295158
299247
302233
299028
300898
307455
309946
305696
306502
314011
314503
316877
312931
313755
320340
322090
317688
318703
199916
201119
201796
202684
203852
204423
205232
206312
207126
207599
208340
209432
209808
210490
211515
212226
212577
213243
214327
214622
215263
216293
216981
217298
217941
219031
219304
219923
220947
221624
221952
222588
223589
224235
224603
225239
226242
226586
227199
228132
228777
229207
229835
230716
231356
231843
232495
233372
233842
234499
235362
236061
236535
237240
238155
238902
239299
240061
241134
241946
242188
243009
244315
245188
245233
246097
247715
248626
248495
249365
251489
251087
251822
253821
254850
254532
255266
257339
258324
258132
258839
260841
261723
261774
262539
264264
265115
265394
266095
267514
268281
269072
269676
270276
271321
272187
272977
273541
274357
275440
276120
276559
277425
278755
279183
279462
280362
281823
282216
282254
283227
285067
285671
285814
286894
288671
289273
289760
291205
293073
296133
293866
294773
299451
302785
299327
300685
307764
310584
307127
307453
314354
314978
317512
313480
313768
320433
322593
318446
318776
198636
199825
200545
201441
202590
203223
204023
205078
205919
206430
207197
208273
208710
209390
210400
211140
211527
212226
213298
213651
214287
215312
216028
216378
217054
218138
218470
219080
220101
220814
221182
221838
222845
223523
223921
224597
225612
225999
226622
227577
228260
228712
229361
230273
230945
231433
232114
233023
233502
234159
235037
235758
236222
236914
237826
238574
238942
239672
240717
241505
241695
242479
243731
244554
244532
245368
246885
247724
247516
248403
250404
250105
250769
252725
253790
253555
254207
256281
257321
257204
257866
259895
260917
261062
261797
263587
264454
264799
265515
267024
267831
268627
269370
270051
271045
271820
272827
273423
274039
274945
275954
276439
276961
278098
278866
279326
279841
281135
281738
282104
282830
284459
285022
285513
286527
288249
288486
289144
290815
292437
294709
291774
293326
298435
301191
296742
298176
305744
307841
302900
303312
311935
312866
315044
311474
312402
318704
320425
316565
317397
197981
199198
199966
200890
202066
202733
203575
204667
205537
206104
206880
207976
208455
209170
210203
210970
211407
212101
213184
213570
214235
215264
215999
216389
217050
218130
218485
219123
220135
220846
221225
221879
222882
223565
223972
224631
225648
226033
226665
227612
228292
228740
229385
230299
230975
231455
232118
233051
233521
234181
235077
235804
236272
236971
237929
238703
239104
239841
240939
241771
242038
242820
244118
244996
245097
245917
247459
248376
248320
249145
251130
250889
251615
253488
254503
254309
255050
257001
257961
257850
258593
260486
261444
261472
262217
263898
264709
265040
265769
267160
267872
268585
269290
269978
270866
271523
272564
273235
273722
274467
275671
276321
276623
277535
278687
279368
279653
280770
281705
282388
282991
284463
285101
285972
287171
288789
288772
289886
292293
293781
296430
294116
295489
300591
303108
299145
300687
308198
310017
306476
307331
314059
314235
316000
313143
314008
319500
321021
318038
319101
197041
198259
199053
200013
201187
201886
202771
203852
204734
205323
206138
207234
207746
208501
209526
210307
210772
211503
212583
212998
213696
214717
215459
215871
216563
217637
218012
218675
219684
220404
220805
221480
222475
223166
223593
224271
225284
225683
226333
227281
227969
228424
229086
230002
230684
231171
231853
232793
233261
233939
234849
235580
236045
236760
237725
238499
238899
239662
240752
241576
241854
242663
243944
244811
244925
245772
247279
248172
248136
248991
250924
250711
251449
253292
254306
254144
254879
256803
257758
257662
258395
260270
261227
261249
261975
263657
264498
264843
265541
266930
267663
268401
269130
269797
270685
271355
272452
273115
273604
274351
275709
276357
276608
277577
278901
279565
279728
280933
282041
282684
283105
284688
285399
286142
287140
288962
288906
289883
292035
293656
296339
293322
294759
300382
303006
298923
300121
307753
309674
305801
306329
313553
314070
316056
313346
313820
319151
321060
318494
318977
196099
197312
198146
199105
200281
201020
201895
202994
203899
204546
205368
206466
207024
207781
208819
209621
210142
210884
211960
212417
213119
214142
214902
215361
216063
217131
217544
218210
219218
219954
220394
221079
222075
222782
223244
223929
224943
225365
226023
226979
227680
228154
228828
229761
230456
230956
231646
232608
233076
233753
234687
235430
235899
236609
237595
238368
238780
239525
240618
241443
241745
242522
243795
244649
244810
245628
247091
247964
247989
248821
250678
250532
251266
253042
254041
253948
254688
256542
257483
257453
258232
260018
260947
261052
261824
263445
264291
264648
265391
266753
267479
268219
268934
269664
270557
271219
272304
273031
273522
274224
275609
276316
276492
277329
278770
279500
279539
280608
281850
282606
282938
284438
285241
286100
287181
289024
288885
289923
292328
293822
296360
293436
294791
300138
302555
298600
299840
307099
308738
305430
306065
312911
313294
314945
312794
313514
318214
319887
317940
318824
195324
196557
197382
198382
199597
200317
201244
202391
203299
203937
204798
205930
206474
207282
208366
209174
209689
210462
211569
212009
212752
213816
214575
215022
215745
216842
217229
217927
218976
219709
220132
220837
221857
222561
223005
223700
224733
225131
225810
226793
227487
227941
228632
229585
230272
230758
231468
232449
232885
233592
234564
235301
235744
236487
237514
238283
238677
239471
240620
241424
241721
242558
243857
244702
244862
245723
247229
248096
248116
248973
250869
250664
251446
253265
254243
254097
254858
256736
257685
257577
258302
260116
261076
261149
261873
263493
264313
264629
265322
266659
267384
268128
268809
269479
270378
271042
272104
272802
273290
273980
275403
276143
276303
277113
278655
279481
279508
280527
281882
282775
283102
284502
285286
286319
287491
289318
288952
290155
292789
294380
296853
294157
295756
301842
304145
300354
301397
308812
310168
306429
306719
313258
313803
315479
313583
313822
318350
320351
318964
319202
194172
195380
196235
197238
198411
199186
200110
201200
202130
202795
203673
204784
205388
206192
207239
208073
208617
209419
210508
211009
211751
212788
213575
214053
214808
215893
216346
217038
218066
218839
219303
220024
221041
221774
222242
222979
224018
224459
225141
226129
226863
227339
228046
229014
229733
230219
230953
231953
232415
233109
234076
234838
235282
236005
237018
237796
238166
238931
240042
240841
241093
241900
243149
243965
244066
244911
246336
247161
247134
248017
249818
249691
250370
252122
253141
253086
253760
255594
256596
256636
257359
259245
260207
260348
261029
262715
263617
264006
264710
266165
266964
267756
268531
269282
270258
270980
272140
272872
273461
274210
275693
276455
276681
277489
279072
279907
279897
280856
282197
283106
283284
284561
285243
286283
287240
288920
288361
289393
291801
293080
295111
291670
293159
298360
300017
295676
296898
304723
306806
303750
304182
311192
311964
313413
312404
313021
317027
318545
317926
318639
193609
194830
195727
196734
197924
198735
199674
200801
201755
202482
203363
204483
205128
205955
207024
207881
208485
209280
210371
210910
211668
212712
213516
214042
214791
215870
216354
217072
218099
218868
219350
220068
221079
221819
222311
223023
224055
224504
225191
226177
226910
227395
228098
229071
229800
230297
231008
232022
232489
233192
234180
234950
235416
236147
237192
237991
238405
239174
240320
241154
241482
242281
243560
244422
244636
245460
246894
247776
247875
248691
250464
250413
251154
252835
253812
253817
254558
256278
257252
257316
258057
259766
260626
260771
261529
263113
263963
264292
265015
266350
267066
267809
268480
269220
270152
270825
271846
272600
273189
273895
275241
276033
276326
277106
278602
279474
279606
280565
281900
282868
283259
284560
285308
286418
287629
289369
289017
290204
292884
294337
296661
294156
295777
301483
303595
300127
301308
307937
308928
305867
306408
312383
312758
313874
313229
313774
317086
318285
318460
319317
192841
194069
194973
196007
197202
198028
199001
200127
201096
201820
202728
203862
204521
205382
206456
207330
207934
208758
209865
210412
211203
212254
213071
213596
214366
215460
215950
216694
217729
218508
218993
219727
220745
221493
221979
222706
223753
224201
224905
225899
226642
227121
227839
228820
229552
230042
230773
231804
232258
232981
233986
234763
235216
235968
237028
237836
238240
239032
240190
241027
241352
242177
243465
244330
244546
245395
246840
247719
247825
248682
250437
250389
251180
252873
253814
253804
254587
256324
257240
257235
257942
259670
260581
260753
261458
262996
263857
264175
264872
266209
266934
267681
268342
269050
269997
270677
271677
272403
273025
273735
275050
275843
276169
276943
278418
279329
279509
280447
281761
282821
283284
284545
285247
286485
287753
289477
289072
290382
293125
294574
296775
294304
295983
301512
303377
299899
301065
307737
308975
306116
306527
312326
312773
313846
313510
313860
316974
318201
319031
319625
191799
192993
193906
194931
196103
196951
197901
199012
199982
200732
201650
202765
203455
204304
205371
206250
206886
207730
208820
209405
210187
211236
212065
212619
213413
214498
215031
215767
216805
217606
218125
218877
219901
220662
221175
221941
222987
223465
224173
225184
225948
226445
227180
228177
228925
229422
230178
231222
231686
232392
233409
234195
234647
235383
236446
237241
237627
238395
239537
240347
240642
241447
242696
243510
243694
244532
245912
246733
246822
247702
249393
249388
250090
251730
252711
252765
253468
255190
256167
256289
257027
258762
259678
259909
260649
262227
263123
263510
264250
265671
266481
267292
268000
268798
269834
270591
271622
272433
273158
273940
275257
276092
276537
277360
278791
279695
279958
280872
282089
283094
283546
284668
285267
286359
287493
288993
288465
289518
291977
293210
295074
292336
293852
298907
300502
297090
298244
304849
306364
303945
304522
310467
311285
312438
312670
313327
316248
317314
318827
319616
191302
192521
193464
194496
195690
196559
197537
198675
199670
200458
201379
202520
203239
204113
205202
206111
206775
207613
208728
209337
210143
211205
212059
212650
213433
214532
215069
215823
216865
217675
218207
218953
219986
220768
221283
222018
223084
223564
224282
225298
226070
226569
227296
228311
229075
229571
230303
231377
231842
232563
233601
234406
234873
235617
236711
237538
237953
238727
239910
240761
241102
241898
243193
244064
244313
245127
246551
247433
247591
248406
250102
250141
250904
252502
253463
253539
254302
255967
256877
256972
257733
259379
260240
260396
261142
262664
263521
263874
264610
265944
266672
267427
268060
268836
269823
270527
271444
272231
272960
273717
274905
275731
276242
277071
278390
279293
279702
280673
281860
282866
283509
284736
285424
286531
287888
289540
289252
290436
293068
294504
296557
294439
295899
300869
302617
299812
300953
306774
308010
305700
306414
311601
312051
312853
313179
313798
316130
316731
318651
319566
190608
191812
192764
193824
195003
195894
196905
198018
199017
199815
200766
201894
202639
203545
204616
205532
206215
207086
208190
208827
209661
210709
211569
212175
212988
214075
214641
215421
216449
217262
217811
218582
219601
220387
220920
221682
222737
223234
223972
224976
225753
226265
227010
228015
228782
229291
230047
231115
231592
232335
233367
234175
234649
235419
236507
237336
237761
238558
239726
240577
240938
241760
243029
243901
244183
245024
246412
247293
247498
248340
249982
250065
250849
252413
253353
253467
254240
255870
256781
256900
257613
259192
260069
260309
261075
262565
263375
263739
264454
265783
266526
267290
267924
268673
269674
270390
271291
272057
272820
273579
274726
275555
276120
276947
278213
279147
279621
280589
281725
282793
283513
284704
285350
286565
287949
289531
289266
290564
293195
294559
296554
294623
296138
300914
302576
300010
301132
306749
307918
305867
306511
311448
311919
312779
313253
313717
315966
316556
318874
319591
189685
190860
191815
192847
194008
194903
195875
196994
197991
198811
199756
200870
201630
202514
203591
204509
205222
206095
207188
207843
208664
209719
210586
211221
212041
213128
213719
214487
215530
216359
216935
217715
218745
219538
220097
220880
221939
222454
223188
224214
225005
225530
226289
227313
228086
228604
229376
230453
230930
231653
232712
233525
233990
234739
235840
236652
237061
237839
239000
239818
240153
240958
242208
243033
243286
244122
245474
246298
246484
247352
248963
249055
249768
251310
252275
252426
253159
254769
255725
255909
256661
258290
259236
259493
260236
261763
262669
263091
263854
265221
266020
266854
267515
268363
269459
270243
271152
271993
272870
273693
274820
275688
276362
277228
278445
279368
279929
280867
281902
282897
283649
284740
285238
286295
287640
289019
288596
289605
292068
293247
294895
292849
294238
298715
300170
297667
298813
304352
305735
303972
304767
309784
310659
311734
312487
313331
315679
316412
319151
320055
189244
190449
191422
192467
193650
194571
195573
196703
197732
198565
199515
200664
201447
202358
203454
204406
205123
205994
207127
207802
208650
209728
210621
211253
212069
213180
213776
214569
215622
216472
217046
217822
218875
219696
220237
220995
222093
222606
223352
224391
225203
225718
226468
227521
228321
228821
229570
230698
231170
231916
232995
233834
234303
235067
236196
237053
237472
238248
239461
240332
240685
241482
242791
243675
243956
244763
246175
247063
247278
248078
249716
249820
250605
252125
253072
253217
253994
255566
256493
256642
257403
258953
259847
260060
260825
262304
263136
263453
264210
265553
266302
267102
267701
268489
269543
270288
271107
271909
272773
273569
274598
275451
276179
277056
278187
279101
279776
280797
281806
282798
283704
284929
285510
286597
288084
289660
289468
290606
293137
294524
296380
294764
296054
300455
302003
299911
301042
306050
307237
305551
306416
310884
311416
312194
312894
313631
315537
315885
318551
319453
188610
189781
190759
191831
192986
193913
194944
196047
197058
197909
198893
200010
200810
201752
202824
203765
204514
205425
206522
207224
208099
209149
210036
210701
211553
212636
213261
214081
215109
215952
216555
217360
218384
219195
219776
220576
221638
222175
222948
223963
224766
225312
226088
227112
227905
228441
229227
230323
230820
231589
232647
233479
233972
234759
235865
236707
237154
237964
239135
239988
240384
241211
242469
243334
243670
244511
245856
246724
247008
247848
249409
249582
250361
251837
252776
252984
253755
255275
256199
256414
257158
258655
259559
259851