/*--------------------------------*- C++ -*----------------------------------*\
| =========                 |                                                 |
| \\      /  F ield         | OpenFOAM: The Open Source CFD Toolbox           |
|  \\    /   O peration     | Version:  v2012                                 |
|   \\  /    A nd           | Website:  www.openfoam.com                      |
|    \\/     M anipulation  |                                                 |
\*---------------------------------------------------------------------------*/
FoamFile
{
    version     2.0;
    format      ascii;
    class       surfaceScalarField;
    location    "1e-06";
    object      phi;
}
// * * * * * * * * * * * * * * * * * * * * * * * * * * * * * * * * * * * * * //

dimensions      [0 3 -1 0 0 0 0];
oriented        oriented;


internalField   nonuniform List<scalar> 
19964
(
8.02048e-06
-4.41117e-06
8.10287e-06
-4.57975e-06
8.24355e-06
-5.43967e-06
8.47117e-06
-6.13643e-06
8.71243e-06
-6.38509e-06
8.91321e-06
-6.34421e-06
9.13297e-06
-6.27237e-06
9.40819e-06
-6.04153e-06
9.65952e-06
-5.23659e-06
9.85226e-06
-4.91141e-06
9.96471e-06
-3.61049e-06
-2.09042e-06
8.33736e-06
-4.51678e-06
8.45947e-06
-4.70186e-06
8.6224e-06
-5.6026e-06
8.81744e-06
-6.33148e-06
9.03698e-06
-6.60464e-06
9.26829e-06
-6.57552e-06
9.52318e-06
-6.52726e-06
9.78174e-06
-6.30009e-06
1.00036e-05
-5.4585e-06
1.02116e-05
-5.11941e-06
1.03658e-05
-3.76465e-06
-2.17812e-06
9.25483e-06
-4.63222e-06
9.30504e-06
-4.75206e-06
9.42982e-06
-5.72739e-06
9.67293e-06
-6.57458e-06
9.92628e-06
-6.85799e-06
1.01148e-05
-6.76405e-06
1.03245e-05
-6.73697e-06
1.06188e-05
-6.59433e-06
1.08952e-05
-5.73498e-06
1.10885e-05
-5.31263e-06
1.11843e-05
-3.86047e-06
-2.27415e-06
1.06512e-05
4.66665e-06
1.04117e-05
4.22519e-06
1.0198e-05
3.51367e-06
1.00225e-05
2.72311e-06
9.84564e-06
2.63052e-06
9.6855e-06
1.83742e-06
9.56486e-06
7.09073e-07
9.50024e-06
-4.46147e-07
9.4395e-06
-6.38382e-07
9.4115e-06
-1.64851e-06
9.42969e-06
-2.96247e-06
9.49631e-06
-3.95894e-06
9.59164e-06
-4.72755e-06
9.69768e-06
-4.8581e-06
9.84981e-06
-5.87952e-06
1.00448e-05
-6.76962e-06
1.02672e-05
-7.08037e-06
1.04957e-05
-6.99257e-06
1.07531e-05
-6.99434e-06
1.10222e-05
-6.86341e-06
1.12569e-05
-5.96975e-06
1.14694e-05
-5.52509e-06
1.16263e-05
-4.01737e-06
-2.36605e-06
1.11021e-05
4.8761e-06
1.09225e-05
4.40474e-06
1.06732e-05
3.76301e-06
1.04162e-05
2.98011e-06
1.02498e-05
2.79685e-06
1.01579e-05
1.92935e-06
1.00228e-05
8.44144e-07
9.87107e-06
-2.94369e-07
9.80355e-06
-5.70862e-07
9.84397e-06
-1.68894e-06
9.87212e-06
-2.99063e-06
9.86892e-06
-3.95573e-06
9.94346e-06
-4.8021e-06
1.01022e-05
-5.01687e-06
1.02873e-05
-6.06461e-06
1.04371e-05
-6.91943e-06
1.06236e-05
-7.26687e-06
1.08921e-05
-7.26099e-06
1.12064e-05
-7.30866e-06
1.14526e-05
-7.1096e-06
1.16347e-05
-6.15187e-06
1.18696e-05
-5.76003e-06
1.20904e-05
-4.23816e-06
-2.45534e-06
1.23867e-05
5.14572e-06
1.21153e-05
4.67609e-06
1.18869e-05
3.99146e-06
1.16935e-05
3.17354e-06
1.1484e-05
3.00635e-06
1.12858e-05
2.12758e-06
1.1144e-05
9.85905e-07
1.10613e-05
-2.11703e-07
1.09751e-05
-4.84625e-07
1.09135e-05
-1.62739e-06
1.09124e-05
-2.9895e-06
1.09652e-05
-4.00857e-06
1.10489e-05
-4.88573e-06
1.11307e-05
-5.09868e-06
1.12668e-05
-6.20071e-06
1.14607e-05
-7.11332e-06
1.16866e-05
-7.49281e-06
1.19097e-05
-7.48404e-06
1.21645e-05
-7.56353e-06
1.24411e-05
-7.3862e-06
1.26858e-05
-6.3966e-06
1.29018e-05
-5.97602e-06
1.30571e-05
-4.39344e-06
-2.55216e-06
1.29394e-05
5.38601e-06
1.27266e-05
4.8889e-06
1.24584e-05
4.2597e-06
1.2181e-05
3.45091e-06
1.19827e-05
3.20462e-06
1.18522e-05
2.25807e-06
1.16913e-05
1.14685e-06
1.15224e-05
-4.28216e-08
1.1428e-05
-3.90219e-07
1.14347e-05
-1.63409e-06
1.1442e-05
-2.99679e-06
1.14252e-05
-3.99186e-06
1.14838e-05
-4.94426e-06
1.16213e-05
-5.23624e-06
1.17916e-05
-6.37098e-06
1.19381e-05
-7.25977e-06
1.21243e-05
-7.67904e-06
1.23883e-05
-7.74806e-06
1.27008e-05
-7.87605e-06
1.29526e-05
-7.63795e-06
1.31423e-05
-6.58636e-06
1.33786e-05
-6.21228e-06
1.35953e-05
-4.61015e-06
-2.64443e-06
1.44306e-05
5.68663e-06
1.41253e-05
5.1942e-06
1.38756e-05
4.50942e-06
1.36644e-05
3.66216e-06
1.34218e-05
3.44715e-06
1.31834e-05
2.49647e-06
1.30139e-05
1.31637e-06
1.29102e-05
6.09516e-08
1.27956e-05
-2.75664e-07
1.26964e-05
-1.53489e-06
1.26682e-05
-2.96861e-06
1.27044e-05
-4.02801e-06
1.27704e-05
-5.01025e-06
1.28246e-05
-5.29048e-06
1.29392e-05
-6.48558e-06
1.31272e-05
-7.44778e-06
1.33529e-05
-7.90477e-06
1.35662e-05
-7.96129e-06
1.3813e-05
-8.1229e-06
1.40913e-05
-7.91622e-06
1.43418e-05
-6.83684e-06
1.45565e-05
-6.42697e-06
1.47057e-05
-4.75941e-06
-2.74364e-06
1.53345e-05
6.07654e-06
1.50698e-05
5.95133e-06
1.48326e-05
5.4313e-06
1.45363e-05
4.80578e-06
1.42284e-05
3.97008e-06
1.40007e-05
3.67484e-06
1.38414e-05
2.65577e-06
1.36484e-05
1.5093e-06
1.34447e-05
2.64705e-07
1.33202e-05
-1.51165e-07
1.33017e-05
-1.51637e-06
1.32829e-05
-2.94983e-06
1.32369e-05
-3.98198e-06
1.32715e-05
-5.04489e-06
1.33917e-05
-5.41068e-06
1.35464e-05
-6.64025e-06
1.36769e-05
-7.5783e-06
1.38534e-05
-8.08128e-06
1.41147e-05
-8.22259e-06
1.44282e-05
-8.43643e-06
1.46752e-05
-8.16323e-06
1.48593e-05
-7.02094e-06
1.5097e-05
-6.66468e-06
1.53184e-05
-4.98073e-06
-2.8377e-06
1.74017e-05
6.72645e-06
1.71219e-05
6.35631e-06
1.67937e-05
6.27953e-06
1.64598e-05
5.76522e-06
1.61843e-05
5.08125e-06
1.59486e-05
4.20577e-06
1.56753e-05
3.94812e-06
1.54014e-05
2.92971e-06
1.51975e-05
1.71317e-06
1.50664e-05
3.95881e-07
1.49189e-05
-3.6504e-09
1.47837e-05
-1.38126e-06
1.47237e-05
-2.88979e-06
1.47327e-05
-3.99093e-06
1.47734e-05
-5.08562e-06
1.48004e-05
-5.43764e-06
1.48907e-05
-6.73055e-06
1.50624e-05
-7.75005e-06
1.52798e-05
-8.29866e-06
1.54833e-05
-8.42607e-06
1.57212e-05
-8.67438e-06
1.59922e-05
-8.43424e-06
1.62405e-05
-7.26919e-06
1.64547e-05
-6.87888e-06
1.66041e-05
-5.13019e-06
-2.93856e-06
1.85583e-05
7.14781e-06
1.81901e-05
7.09463e-06
1.7816e-05
6.73046e-06
1.75337e-05
6.56184e-06
1.72857e-05
6.01318e-06
1.6955e-05
5.412e-06
1.66018e-05
4.55898e-06
1.63478e-05
4.20211e-06
1.61737e-05
3.10374e-06
1.59443e-05
1.94259e-06
1.56867e-05
6.53464e-07
1.55272e-05
1.55882e-07
1.54944e-05
-1.34842e-06
1.54466e-05
-2.84199e-06
1.53507e-05
-3.89509e-06
1.53518e-05
-5.08674e-06
1.5461e-05
-5.54675e-06
1.56e-05
-6.86964e-06
1.56987e-05
-7.84873e-06
1.58533e-05
-8.45328e-06
1.61151e-05
-8.68782e-06
1.6434e-05
-8.99326e-06
1.66654e-05
-8.66567e-06
1.68303e-05
-7.43405e-06
1.70721e-05
-7.12076e-06
1.7313e-05
-5.37107e-06
-3.03327e-06
2.08437e-05
7.48595e-06
2.04919e-05
7.49958e-06
2.01743e-05
7.41223e-06
1.98648e-05
7.03999e-06
1.95182e-05
6.90844e-06
1.91661e-05
6.36525e-06
1.8861e-05
5.71707e-06
1.85901e-05
4.82987e-06
1.82892e-05
4.50301e-06
1.79901e-05
3.40287e-06
1.77502e-05
2.18255e-06
1.75777e-05
8.2593e-07
1.73927e-05
3.40845e-07
1.72282e-05
-1.18392e-06
1.71339e-05
-2.74765e-06
1.71021e-05
-3.86326e-06
1.71078e-05
-5.0925e-06
1.71099e-05
-5.54888e-06
1.71745e-05
-6.93415e-06
1.73172e-05
-7.99148e-06
1.75149e-05
-8.65102e-06
1.77096e-05
-8.88247e-06
1.79399e-05
-9.22361e-06
1.81969e-05
-8.92263e-06
1.84356e-05
-7.6728e-06
1.86512e-05
-7.3363e-06
1.88093e-05
-5.5292e-06
1.89098e-05
-3.1337e-06
-6.21736e-07
2.4291e-05
3.39953e-06
2.41936e-05
3.53694e-06
2.39873e-05
5.14555e-06
2.36181e-05
6.12821e-06
2.32888e-05
6.60397e-06
2.3091e-05
6.66497e-06
2.28387e-05
7.1749e-06
2.24268e-05
7.70388e-06
2.20291e-05
7.83197e-06
2.17725e-05
7.74255e-06
2.15064e-05
7.76571e-06
2.10885e-05
7.83014e-06
2.06544e-05
7.47402e-06
2.03712e-05
7.19167e-06
2.01377e-05
6.59879e-06
1.97618e-05
6.09295e-06
1.93375e-05
5.25417e-06
1.90645e-05
4.776e-06
1.89037e-05
3.56371e-06
1.86345e-05
2.45167e-06
1.8292e-05
1.16845e-06
1.80938e-05
5.39103e-07
1.80705e-05
-1.16061e-06
1.79939e-05
-2.67107e-06
1.78157e-05
-3.68506e-06
1.7769e-05
-5.04582e-06
1.78822e-05
-5.66213e-06
1.80108e-05
-7.06271e-06
1.80526e-05
-8.03324e-06
1.81651e-05
-8.76356e-06
1.84351e-05
-9.15248e-06
1.87718e-05
-9.56031e-06
1.8976e-05
-9.12676e-06
1.91027e-05
-7.79952e-06
1.93523e-05
-7.58587e-06
1.9635e-05
-5.81192e-06
1.97267e-05
-3.22545e-06
1.96233e-05
-5.18291e-07
1.95153e-05
1.8282e-06
1.94893e-05
2.34784e-06
1.93247e-05
4.69298e-06
1.89652e-05
6.97856e-06
1.85821e-05
8.5891e-06
8.84065e-06
2.68475e-05
3.63444e-06
2.66148e-05
3.76965e-06
2.63546e-05
5.40578e-06
2.60745e-05
6.40831e-06
2.57672e-05
6.9113e-06
2.54568e-05
6.97538e-06
2.51448e-05
7.48684e-06
2.48188e-05
8.02991e-06
2.44711e-05
8.17966e-06
2.4117e-05
8.09665e-06
2.37618e-05
8.12093e-06
2.34091e-05
8.18289e-06
2.30488e-05
7.83429e-06
2.26834e-05
7.5571e-06
2.23246e-05
6.95754e-06
2.19889e-05
6.42865e-06
2.16659e-05
5.57717e-06
2.13358e-05
5.10608e-06
2.10272e-05
3.87232e-06
2.07568e-05
2.72206e-06
2.05272e-05
1.39809e-06
2.02963e-05
7.69936e-07
2.01142e-05
-9.78419e-07
1.99882e-05
-2.54517e-06
1.99032e-05
-3.59996e-06
1.98616e-05
-5.00423e-06
1.98416e-05
-5.64213e-06
1.98825e-05
-7.10366e-06
1.9985e-05
-8.13572e-06
2.01494e-05
-8.928e-06
2.03349e-05
-9.33793e-06
2.05621e-05
-9.78753e-06
2.08057e-05
-9.3704e-06
2.10245e-05
-8.01827e-06
2.12372e-05
-7.79864e-06
2.14028e-05
-5.97751e-06
2.14948e-05
-3.31746e-06
2.14933e-05
-5.16761e-07
2.13713e-05
1.9502e-06
2.12257e-05
2.49342e-06
2.10102e-05
4.90848e-06
2.0717e-05
7.2718e-06
2.03473e-05
8.95873e-06
9.21183e-06
2.96901e-05
3.88377e-06
2.93055e-05
4.1543e-06
2.89811e-05
5.73011e-06
2.87854e-05
6.60401e-06
2.85062e-05
7.19049e-06
2.80724e-05
7.40922e-06
2.76959e-05
7.86331e-06
2.74638e-05
8.26207e-06
2.71761e-05
8.46738e-06
2.67172e-05
8.55551e-06
2.62756e-05
8.56253e-06
2.59995e-05
8.45904e-06
2.57197e-05
8.11402e-06
2.52672e-05
8.00957e-06
2.479e-05
7.43483e-06
2.4497e-05
6.72157e-06
2.42703e-05
5.8039e-06
2.38825e-05
5.49392e-06
2.34295e-05
4.32532e-06
2.31612e-05
2.99034e-06
2.3037e-05
1.52226e-06
2.27842e-05
1.02277e-06
2.2432e-05
-6.26272e-07
2.22547e-05
-2.36786e-06
2.22513e-05
-3.59657e-06
2.22165e-05
-4.96942e-06
2.20466e-05
-5.47225e-06
2.19975e-05
-7.05451e-06
2.21721e-05
-8.31038e-06
2.23852e-05
-9.14108e-06
2.24677e-05
-9.42038e-06
2.25918e-05
-9.91165e-06
2.28851e-05
-9.66373e-06
2.31883e-05
-8.32145e-06
2.33472e-05
-7.9575e-06
2.33836e-05
-6.01392e-06
2.34693e-05
-3.40316e-06
2.35537e-05
-6.01149e-07
2.34263e-05
2.07756e-06
2.3142e-05
2.77769e-06
2.28632e-05
5.18727e-06
2.26413e-05
7.49371e-06
2.23042e-05
9.29582e-06
9.69165e-06
3.088e-05
4.17352e-06
3.06188e-05
4.41556e-06
3.03097e-05
6.03913e-06
2.9971e-05
6.94273e-06
2.96356e-05
7.52595e-06
2.93231e-05
7.72169e-06
2.89897e-05
8.19674e-06
2.86208e-05
8.63097e-06
2.82505e-05
8.83767e-06
2.79025e-05
8.9035e-06
2.75346e-05
8.93041e-06
2.71347e-05
8.85896e-06
2.67379e-05
8.51079e-06
2.63693e-05
8.37825e-06
2.59929e-05
7.81124e-06
2.56058e-05
7.10859e-06
2.52326e-05
6.17717e-06
2.48874e-05
5.83912e-06
2.45609e-05
4.65179e-06
2.42416e-05
3.30967e-06
2.39533e-05
1.81058e-06
2.36948e-05
1.28119e-06
2.34925e-05
-4.23893e-07
2.33213e-05
-2.19667e-06
2.31747e-05
-3.45e-06
2.30848e-05
-4.87951e-06
2.30457e-05
-5.43317e-06
2.30543e-05
-7.0631e-06
2.31077e-05
-8.36376e-06
2.32307e-05
-9.26409e-06
2.34075e-05
-9.59718e-06
2.36351e-05
-1.01392e-05
2.3858e-05
-9.88662e-06
2.40439e-05
-8.50736e-06
2.42398e-05
-8.15348e-06
2.43994e-05
-6.17344e-06
2.44629e-05
-3.46669e-06
2.44246e-05
-5.62889e-07
2.42767e-05
2.22551e-06
2.41112e-05
2.94317e-06
2.38554e-05
5.44305e-06
2.35093e-05
7.83982e-06
2.30992e-05
9.70588e-06
1.00931e-05
3.47007e-05
2.97659e-06
3.44243e-05
3.70307e-06
3.41045e-05
4.49337e-06
3.36984e-05
4.82166e-06
3.33255e-05
6.41204e-06
3.30425e-05
7.22568e-06
3.27187e-05
7.84976e-06
3.22907e-05
8.14966e-06
3.19027e-05
8.58476e-06
3.16145e-05
8.91916e-06
3.12951e-05
9.15707e-06
3.08526e-05
9.34605e-06
3.04187e-05
9.36429e-06
3.00971e-05
9.18051e-06
2.97772e-05
8.83076e-06
2.93294e-05
8.82605e-06
2.88576e-05
8.28297e-06
2.85152e-05
7.45102e-06
2.82275e-05
6.46485e-06
2.78218e-05
6.24483e-06
2.73709e-05
5.10268e-06
2.70551e-05
3.62546e-06
2.68573e-05
2.0084e-06
2.65678e-05
1.57069e-06
2.62128e-05
-6.88158e-08
2.59899e-05
-1.97385e-06
2.59039e-05
-3.36396e-06
2.58152e-05
-4.79084e-06
2.56276e-05
-5.2455e-06
2.55472e-05
-6.98275e-06
2.56646e-05
-8.48112e-06
2.58351e-05
-9.43462e-06
2.59061e-05
-9.66822e-06
2.60327e-05
-1.02657e-05
2.62912e-05
-1.01451e-05
2.65384e-05
-8.75455e-06
2.66641e-05
-8.27922e-06
2.66922e-05
-6.20151e-06
2.67394e-05
-3.51394e-06
2.67584e-05
-5.81851e-07
2.65938e-05
2.39011e-06
2.63002e-05
3.23677e-06
2.59858e-05
5.75742e-06
2.5692e-05
8.13364e-06
2.53051e-05
1.00928e-05
1.06012e-05
3.69892e-05
2.49533e-06
3.66223e-05
2.72626e-06
3.62388e-05
3.36003e-06
3.58462e-05
4.09575e-06
3.54855e-05
4.85404e-06
3.51663e-05
5.14086e-06
3.47999e-05
6.77847e-06
3.44063e-05
7.61925e-06
3.40308e-05
8.22524e-06
3.36922e-05
8.48823e-06
3.33356e-05
8.94145e-06
3.29398e-05
9.31495e-06
3.25464e-05
9.55047e-06
3.2195e-05
9.69745e-06
3.18219e-05
9.73738e-06
3.13983e-05
9.60411e-06
3.09773e-05
9.25176e-06
3.06016e-05
9.20172e-06
3.02119e-05
8.67267e-06
2.97877e-05
7.87527e-06
2.93723e-05
6.88025e-06
2.90036e-05
6.61347e-06
2.86498e-05
5.45654e-06
2.82854e-05
3.9898e-06
2.79475e-05
2.34634e-06
2.76538e-05
1.8644e-06
2.74106e-05
1.744e-07
2.71942e-05
-1.75743e-06
2.69911e-05
-3.16089e-06
2.68473e-05
-4.64705e-06
2.67737e-05
-5.17194e-06
2.67467e-05
-6.95572e-06
2.67607e-05
-8.49509e-06
2.68422e-05
-9.51617e-06
2.70055e-05
-9.8315e-06
2.72282e-05
-1.04884e-05
2.74177e-05
-1.03347e-05
2.75479e-05
-8.88475e-06
2.77057e-05
-8.43708e-06
2.78358e-05
-6.33159e-06
2.78576e-05
-3.53571e-06
2.77683e-05
-4.92612e-07
2.75796e-05
2.57888e-06
2.73854e-05
3.43095e-06
2.70895e-05
6.05327e-06
2.66883e-05
8.53493e-06
2.6226e-05
1.0555e-05
1.10367e-05
4.18002e-05
1.71486e-06
4.13661e-05
2.24074e-06
4.09089e-05
2.95259e-06
4.03974e-05
3.23779e-06
3.99399e-05
3.81752e-06
3.95565e-05
4.47913e-06
3.91618e-05
5.24868e-06
3.87094e-05
5.59331e-06
3.82726e-05
7.21528e-06
3.79086e-05
7.98319e-06
3.75375e-05
8.59635e-06
3.70922e-05
8.93359e-06
3.66797e-05
9.3539e-06
3.63448e-05
9.64984e-06
3.59987e-05
9.89659e-06
3.55693e-05
1.01269e-05
3.51462e-05
1.01604e-05
3.47965e-05
9.95386e-06
3.4454e-05
9.59425e-06
3.40127e-05
9.64301e-06
3.35561e-05
9.12928e-06
3.31866e-05
8.24472e-06
3.28602e-05
7.20663e-06
3.2441e-05
7.03269e-06
3.19911e-05
5.90648e-06
3.16374e-05
4.34348e-06
3.13814e-05
2.60228e-06
3.10578e-05
2.18802e-06
3.06803e-05
5.51917e-07
3.04132e-05
-1.49029e-06
3.02558e-05
-3.00352e-06
3.01149e-05
-4.50616e-06
2.98959e-05
-4.95298e-06
2.97783e-05
-6.83807e-06
2.98444e-05
-8.56117e-06
2.99726e-05
-9.64446e-06
3.00185e-05
-9.87734e-06
3.01205e-05
-1.05904e-05
3.03123e-05
-1.05265e-05
3.04765e-05
-9.04896e-06
3.05403e-05
-8.50081e-06
3.05248e-05
-6.31615e-06
3.05096e-05
-3.52047e-06
3.04515e-05
-4.34531e-07
3.02358e-05
2.79452e-06
2.99134e-05
3.75339e-06
2.9553e-05
6.41372e-06
2.91868e-05
8.90106e-06
2.87457e-05
1.09962e-05
1.15791e-05
4.40875e-05
1.73713e-06
4.35718e-05
2.23061e-06
4.30361e-05
2.77639e-06
4.25524e-05
3.43627e-06
4.21105e-05
3.67973e-06
4.16438e-05
4.28418e-06
4.11651e-05
4.95785e-06
4.07295e-05
5.68433e-06
4.03415e-05
5.9813e-06
3.99088e-05
7.64793e-06
3.9453e-05
8.43899e-06
3.9026e-05
9.0234e-06
3.86528e-05
9.30677e-06
3.82708e-05
9.73588e-06
3.78448e-05
1.00758e-05
3.74349e-05
1.03065e-05
3.70767e-05
1.04852e-05
3.67036e-05
1.05335e-05
3.62724e-05
1.0385e-05
3.58388e-05
1.00279e-05
3.54622e-05
1.00196e-05
3.50788e-05
9.51266e-06
3.46407e-05
8.68289e-06
3.41988e-05
7.64847e-06
3.38169e-05
7.41462e-06
3.34545e-05
6.26892e-06
3.30592e-05
4.7388e-06
3.26706e-05
2.99083e-06
3.23393e-05
2.51935e-06
3.20721e-05
8.19133e-07
3.18107e-05
-1.22887e-06
3.15423e-05
-2.73521e-06
3.13413e-05
-4.30507e-06
3.12322e-05
-4.84397e-06
3.11716e-05
-6.77739e-06
3.11414e-05
-8.531e-06
3.11684e-05
-9.67143e-06
3.13052e-05
-1.00142e-05
3.14994e-05
-1.07845e-05
3.16176e-05
-1.06448e-05
3.16548e-05
-9.08609e-06
3.17429e-05
-8.58897e-06
3.18179e-05
-6.39118e-06
3.17746e-05
-3.47711e-06
3.16105e-05
-2.70492e-07
3.13645e-05
3.04058e-06
3.11292e-05
3.98863e-06
3.07865e-05
6.75646e-06
3.03228e-05
9.36481e-06
2.98003e-05
1.15187e-05
1.20512e-05
4.89702e-05
1.81167e-06
4.83985e-05
2.30894e-06
4.78484e-05
2.78071e-06
4.7346e-05
3.27877e-06
4.68326e-05
3.94966e-06
4.62761e-05
4.2362e-06
4.5748e-05
4.81228e-06
4.52788e-05
5.42713e-06
4.48184e-05
6.14464e-06
4.43152e-05
6.4845e-06
4.38114e-05
8.15174e-06
4.33708e-05
8.87961e-06
4.29424e-05
9.4518e-06
4.2479e-05
9.77015e-06
4.20402e-05
1.01747e-05
4.16635e-05
1.04525e-05
4.12943e-05
1.06758e-05
4.08663e-05
1.09131e-05
4.04483e-05
1.09516e-05
4.00866e-05
1.07467e-05
3.97378e-05
1.03766e-05
3.93158e-05
1.04416e-05
3.88875e-05
9.94097e-06
3.85139e-05
9.05652e-06
3.81758e-05
7.98654e-06
3.77666e-05
7.82378e-06
3.73425e-05
6.69305e-06
3.69757e-05
5.10556e-06
3.66849e-05
3.28168e-06
3.63446e-05
2.85967e-06
3.59683e-05
1.19541e-06
3.56705e-05
-9.31063e-07
3.54542e-05
-2.5189e-06
3.52677e-05
-4.11863e-06
3.50222e-05
-4.59843e-06
3.48653e-05
-6.62048e-06
3.48664e-05
-8.53207e-06
3.49297e-05
-9.73479e-06
3.4925e-05
-1.00095e-05
3.49557e-05
-1.08152e-05
3.50304e-05
-1.07195e-05
3.50765e-05
-9.13222e-06
3.50465e-05
-8.55892e-06
3.49528e-05
-6.29752e-06
3.4845e-05
-3.36934e-06
3.46883e-05
-1.13788e-07
3.44028e-05
3.32611e-06
3.4034e-05
4.35742e-06
3.36142e-05
7.1763e-06
3.31697e-05
9.80933e-06
3.26696e-05
1.20187e-05
1.26181e-05
5.08403e-05
2.3487e-06
5.03396e-05
2.80958e-06
4.97837e-05
3.33669e-06
4.91843e-05
3.87818e-06
4.8645e-05
4.48896e-06
4.81597e-05
4.72147e-06
4.76335e-05
5.33849e-06
4.70704e-05
5.9902e-06
4.65622e-05
6.65282e-06
4.6131e-05
6.91577e-06
4.56435e-05
8.63921e-06
4.51056e-05
9.41749e-06
4.46267e-05
9.93069e-06
4.42279e-05
1.0169e-05
4.38215e-05
1.05811e-05
4.33583e-05
1.09157e-05
4.29134e-05
1.11207e-05
4.25553e-05
1.12712e-05
4.21959e-05
1.1311e-05
4.17581e-05
1.11845e-05
4.13118e-05
1.08229e-05
4.09561e-05
1.07973e-05
4.06113e-05
1.02857e-05
4.01777e-05
9.49017e-06
3.97155e-05
8.44866e-06
3.93472e-05
8.19211e-06
3.90263e-05
7.01395e-06
3.86298e-05
5.50207e-06
3.81907e-05
3.72082e-06
3.78452e-05
3.20518e-06
3.76034e-05
1.43716e-06
3.7325e-05
-6.5261e-07
3.69747e-05
-2.16861e-06
3.67174e-05
-3.86133e-06
3.66069e-05
-4.48799e-06
3.65273e-05
-6.54082e-06
3.6413e-05
-8.41783e-06
3.63431e-05
-9.66489e-06
3.64356e-05
-1.0102e-05
3.65729e-05
-1.09525e-05
3.65625e-05
-1.07091e-05
3.64485e-05
-9.01816e-06
3.6436e-05
-8.54648e-06
3.64435e-05
-6.30494e-06
3.63047e-05
-3.23058e-06
3.60196e-05
1.71299e-07
3.56918e-05
3.65386e-06
3.54166e-05
4.63268e-06
3.50212e-05
7.57171e-06
3.44729e-05
1.03576e-05
3.38962e-05
1.25954e-05
1.31248e-05
5.54705e-05
2.90799e-06
5.48677e-05
3.4124e-06
5.42721e-05
3.93228e-06
5.37193e-05
4.43101e-06
5.31652e-05
5.0431e-06
5.25746e-05
5.31202e-06
5.20002e-05
5.91296e-06
5.14653e-05
6.52511e-06
5.09533e-05
7.16475e-06
5.04242e-05
7.44487e-06
4.98772e-05
9.18619e-06
4.93748e-05
9.91991e-06
4.8902e-05
1.04035e-05
4.84076e-05
1.06633e-05
4.7934e-05
1.10547e-05
4.75142e-05
1.13355e-05
4.71222e-05
1.15128e-05
4.66967e-05
1.16967e-05
4.62835e-05
1.17242e-05
4.5915e-05
1.1553e-05
4.55674e-05
1.11706e-05
4.51754e-05
1.11893e-05
4.47844e-05
1.06767e-05
4.44263e-05
9.84829e-06
4.40964e-05
8.77854e-06
4.37225e-05
8.56595e-06
4.33478e-05
7.38866e-06
4.30022e-05
5.84773e-06
4.27035e-05
4.01951e-06
4.23775e-05
3.53112e-06
4.20466e-05
1.76811e-06
4.17507e-05
-3.56771e-07
4.14953e-05
-1.9132e-06
4.12817e-05
-3.6477e-06
4.10373e-05
-4.24363e-06
4.08527e-05
-6.3562e-06
4.07734e-05
-8.33852e-06
4.07456e-05
-9.63712e-06
4.06714e-05
-1.00277e-05
4.05902e-05
-1.08714e-05
4.05078e-05
-1.06267e-05
4.04025e-05
-8.91286e-06
4.02515e-05
-8.39542e-06
4.0048e-05
-6.10152e-06
3.98167e-05
-2.9992e-06
3.95367e-05
4.51241e-07
3.91562e-05
4.03437e-06
3.87227e-05
5.06619e-06
3.82308e-05
8.06357e-06
3.771e-05
1.08784e-05
3.71628e-05
1.31426e-05
1.37597e-05
5.75279e-05
3.49138e-06
5.70333e-05
3.90705e-06
5.6434e-05
4.53159e-06
5.57213e-05
5.14365e-06
5.51243e-05
5.6401e-06
5.46665e-05
5.76982e-06
5.41198e-05
6.45974e-06
5.34466e-05
7.19831e-06
5.2875e-05
7.73629e-06
5.24574e-05
7.86249e-06
5.19541e-05
9.68954e-06
5.13112e-05
1.05628e-05
5.0754e-05
1.09607e-05
5.03718e-05
1.10456e-05
4.99676e-05
1.14589e-05
4.94196e-05
1.18836e-05
4.89156e-05
1.20167e-05
4.8595e-05
1.20173e-05
4.82852e-05
1.2034e-05
4.78096e-05
1.20287e-05
4.7318e-05
1.16621e-05
4.70152e-05
1.14921e-05
4.67653e-05
1.09266e-05
4.6334e-05
1.02796e-05
4.5822e-05
9.29056e-06
4.55018e-05
8.88611e-06
4.52982e-05
7.59233e-06
4.49289e-05
6.217e-06
4.44157e-05
4.53268e-06
4.40843e-05
3.86259e-06
4.39608e-05
1.89161e-06
4.37143e-05
-1.10278e-07
4.32497e-05
-1.44856e-06
4.29413e-05
-3.33936e-06
4.29066e-05
-4.20894e-06
4.28494e-05
-6.29901e-06
4.25939e-05
-8.083e-06
4.23735e-05
-9.41671e-06
4.24332e-05
-1.00875e-05
4.25267e-05
-1.09649e-05
4.23295e-05
-1.04295e-05
4.1979e-05
-8.56229e-06
4.18481e-05
-8.26459e-06
4.18145e-05
-6.06785e-06
4.1549e-05
-2.73372e-06
4.10558e-05
9.44434e-07
4.06151e-05
4.47505e-06
4.03308e-05
5.35051e-06
3.98913e-05
8.50301e-06
3.92253e-05
1.15445e-05
3.85237e-05
1.38442e-05
1.42904e-05
6.22472e-05
4.07432e-06
6.16558e-05
4.49847e-06
6.10485e-05
5.13883e-06
6.04177e-05
5.77444e-06
5.98064e-05
6.25146e-06
5.92375e-05
6.33872e-06
5.86376e-05
7.0596e-06
5.80581e-05
7.7778e-06
5.74939e-05
8.30054e-06
5.69421e-05
8.41427e-06
5.63806e-05
1.02511e-05
5.58288e-05
1.11145e-05
5.53038e-05
1.14857e-05
5.47964e-05
1.1553e-05
5.43171e-05
1.19381e-05
5.38617e-05
1.23389e-05
5.34311e-05
1.24473e-05
5.30113e-05
1.24371e-05
5.26177e-05
1.24276e-05
5.22435e-05
1.24029e-05
5.18813e-05
1.20243e-05
5.15203e-05
1.18531e-05
5.11745e-05
1.12724e-05
5.08432e-05
1.06109e-05
5.05186e-05
9.61517e-06
5.01896e-05
9.21506e-06
4.98774e-05
7.90455e-06
4.95788e-05
6.51563e-06
4.92865e-05
4.82496e-06
4.89966e-05
4.15245e-06
4.87409e-05
2.14734e-06
4.84909e-05
1.39709e-07
4.82334e-05
-1.191e-06
4.8008e-05
-3.11405e-06
4.78055e-05
-4.00644e-06
4.76352e-05
-6.12869e-06
4.74937e-05
-7.94152e-06
4.73601e-05
-9.28307e-06
4.72228e-05
-9.9502e-06
4.70431e-05
-1.07853e-05
4.67958e-05
-1.01821e-05
4.65102e-05
-8.27675e-06
4.62083e-05
-7.96267e-06
4.5872e-05
-5.73154e-06
4.55047e-05
-2.3664e-06
4.50854e-05
1.36375e-06
4.45724e-05
4.98806e-06
4.40565e-05
5.86643e-06
4.35076e-05
9.05182e-06
4.28885e-05
1.21637e-05
4.22145e-05
1.45182e-05
1.49743e-05
6.66875e-05
4.5709e-06
6.60414e-05
5.14466e-06
6.54881e-05
5.69213e-06
6.50481e-05
6.21442e-06
6.44724e-05
6.82718e-06
6.37813e-05
7.02982e-06
6.3194e-05
7.64689e-06
6.27315e-05
8.24031e-06
6.21937e-05
8.83832e-06
6.15228e-05
9.08513e-06
6.09205e-05
1.08535e-05
6.04863e-05
1.15486e-05
6.00058e-05
1.19662e-05
5.93721e-05
1.21867e-05
5.88315e-05
1.24787e-05
5.84905e-05
1.268e-05
5.81359e-05
1.28019e-05
5.76095e-05
1.29635e-05
5.71369e-05
1.29003e-05
5.68769e-05
1.26629e-05
5.66383e-05
1.22628e-05
5.62061e-05
1.22854e-05
5.57637e-05
1.17148e-05
5.55423e-05
1.08323e-05
5.53962e-05
9.76123e-06
5.50434e-05
9.56791e-06
5.46022e-05
8.34568e-06
5.43902e-05
6.72771e-06
5.43345e-05
4.88068e-06
5.40781e-05
4.40884e-06
5.36405e-05
2.58487e-06
5.34227e-05
3.57594e-07
5.34085e-05
-1.17683e-06
5.3273e-05
-2.97857e-06
5.28929e-05
-3.62638e-06
5.26463e-05
-5.88207e-06
5.26669e-05
-7.96208e-06
5.26223e-05
-9.23847e-06
5.22796e-05
-9.60755e-06
5.18542e-05
-1.03598e-05
5.16003e-05
-9.92823e-06
5.13833e-05
-8.05978e-06
5.0917e-05
-7.49633e-06
5.02712e-05
-5.08576e-06
4.97973e-05
-1.89253e-06
4.94381e-05
1.72292e-06
4.88665e-05
5.55973e-06
4.80925e-05
6.64043e-06
4.74068e-05
9.73748e-06
4.68651e-05
1.27053e-05
4.62355e-05
1.51479e-05
1.582e-05
6.88943e-05
5.03471e-06
6.8429e-05
5.61005e-06
6.78813e-05
6.23978e-06
6.72905e-05
6.80526e-06
6.67473e-05
7.37034e-06
6.61883e-05
7.58882e-06
6.55851e-05
8.2501e-06
6.49744e-05
8.85107e-06
6.44155e-05
9.39722e-06
6.38747e-05
9.62587e-06
6.32834e-05
1.14448e-05
6.27053e-05
1.21267e-05
6.21759e-05
1.24957e-05
6.16738e-05
1.26889e-05
6.11726e-05
1.29799e-05
6.06914e-05
1.31611e-05
6.02537e-05
1.32397e-05
5.98528e-05
1.33644e-05
5.9459e-05
1.32941e-05
5.90709e-05
1.3051e-05
5.8711e-05
1.26227e-05
5.83893e-05
1.26071e-05
5.80701e-05
1.2034e-05
5.7746e-05
1.11564e-05
5.74348e-05
1.00724e-05
5.71593e-05
9.8434e-06
5.68909e-05
8.61407e-06
5.66157e-05
7.00297e-06
5.63489e-05
5.14748e-06
5.61164e-05
4.64133e-06
5.59138e-05
2.78748e-06
5.57088e-05
5.62559e-07
5.54915e-05
-9.59528e-07
5.5295e-05
-2.78208e-06
5.51541e-05
-3.4855e-06
5.50109e-05
-5.73886e-06
5.48401e-05
-7.79126e-06
5.46303e-05
-9.02872e-06
5.44569e-05
-9.43416e-06
5.41889e-05
-1.00918e-05
5.37849e-05
-9.52427e-06
5.33307e-05
-7.60554e-06
5.29046e-05
-7.07028e-06
5.24332e-05
-4.6143e-06
5.18878e-05
-1.34711e-06
5.13128e-05
2.29789e-06
5.06966e-05
6.17595e-06
5.00849e-05
7.25214e-06
4.94156e-05
1.04068e-05
4.869e-05
1.3431e-05
4.79633e-05
1.58745e-05
1.65505e-05
7.59878e-05
3.81423e-06
7.59949e-05
3.7292e-06
7.59996e-05
3.63633e-06
7.60036e-05
3.68534e-06
7.60056e-05
3.60423e-06
7.6004e-05
3.51244e-06
7.6002e-05
3.55535e-06
7.5999e-05
3.48117e-06
7.59923e-05
3.39905e-06
7.59844e-05
3.32008e-06
7.59757e-05
3.35879e-06
7.5965e-05
3.29059e-06
7.59529e-05
3.21856e-06
7.59405e-05
3.25565e-06
7.59279e-05
3.19989e-06
7.59139e-05
3.14297e-06
7.59009e-05
3.09156e-06
7.58871e-05
3.12578e-06
7.58729e-05
3.08583e-06
7.58597e-05
3.04751e-06
7.58465e-05
3.08321e-06
7.58342e-05
3.06011e-06
7.58226e-05
3.04142e-06
7.58133e-05
3.02796e-06
7.58036e-05
3.06405e-06
7.57955e-05
3.06995e-06
7.57911e-05
3.13171e-06
7.5788e-05
3.17203e-06
7.57882e-05
3.19069e-06
7.57926e-05
3.21833e-06
7.58018e-05
3.25016e-06
7.58121e-05
3.29339e-06
7.58282e-05
3.33828e-06
7.58516e-05
3.3917e-06
7.58816e-05
3.44728e-06
7.5913e-05
3.49409e-06
7.59534e-05
3.56117e-06
7.60026e-05
3.63089e-06
7.60542e-05
3.67985e-06
7.61159e-05
3.75151e-06
7.61888e-05
3.82524e-06
7.62702e-05
3.89056e-06
7.63536e-05
3.93328e-06
7.64496e-05
3.98938e-06
7.65566e-05
4.03186e-06
7.6666e-05
4.05419e-06
7.6774e-05
4.07813e-06
7.68926e-05
4.07791e-06
7.7014e-05
4.04972e-06
7.71376e-05
4.57918e-06
7.72638e-05
4.53205e-06
7.73932e-05
4.43573e-06
7.75136e-05
4.29577e-06
7.76252e-05
4.26375e-06
7.7733e-05
4.08583e-06
7.78337e-05
3.85422e-06
7.79133e-05
3.57753e-06
7.7978e-05
3.4985e-06
7.80301e-05
3.18701e-06
7.80652e-05
2.82344e-06
7.80703e-05
2.43144e-06
7.80536e-05
2.30876e-06
7.80162e-05
1.90172e-06
7.79554e-05
1.47638e-06
7.78598e-05
1.05529e-06
7.77381e-05
9.14791e-07
7.75913e-05
5.15097e-07
7.74261e-05
1.39776e-07
7.72386e-05
-2.00226e-07
7.70257e-05
-3.25827e-07
7.67979e-05
-5.93232e-07
7.65731e-05
-4.24885e-07
7.63381e-05
4.27529e-07
7.60769e-05
3.18008e-07
7.58248e-05
3.38422e-07
7.55899e-05
4.3878e-07
7.53493e-05
4.77175e-07
7.51025e-05
6.66659e-07
7.48831e-05
9.70152e-07
7.46851e-05
1.33872e-06
7.4482e-05
1.48063e-06
7.4281e-05
1.92069e-06
7.41035e-05
2.45648e-06
7.39264e-05
2.99721e-06
7.3722e-05
3.22043e-06
7.34883e-05
3.85367e-06
7.32622e-05
4.48258e-06
7.30175e-05
5.0498e-06
7.27401e-05
5.31213e-06
7.24025e-05
5.94759e-06
7.20368e-05
6.60554e-06
7.16595e-05
7.18257e-06
7.12289e-05
7.80088e-06
7.07292e-05
8.08861e-06
7.02176e-05
8.76163e-06
6.97354e-05
9.33326e-06
6.92348e-05
9.89789e-06
6.86814e-05
1.01792e-05
6.81167e-05
1.20095e-05
6.76171e-05
1.26263e-05
6.71282e-05
1.29845e-05
6.65825e-05
1.32346e-05
6.60722e-05
1.34902e-05
6.5655e-05
1.35784e-05
6.52685e-05
1.36261e-05
6.48184e-05
1.38145e-05
6.44015e-05
1.37111e-05
6.40823e-05
1.33701e-05
6.38008e-05
1.29042e-05
6.34431e-05
1.29648e-05
6.30973e-05
1.23798e-05
6.2848e-05
1.14057e-05
6.26466e-05
1.02737e-05
6.23635e-05
1.01265e-05
6.20643e-05
8.91321e-06
6.18536e-05
7.21368e-06
6.17311e-05
5.27003e-06
6.15279e-05
4.84452e-06
6.12621e-05
3.05325e-06
6.1093e-05
7.31724e-07
6.10104e-05
-8.77013e-07
6.0882e-05
-2.65363e-06
6.06422e-05
-3.2457e-06
6.04629e-05
-5.55957e-06
6.03769e-05
-7.70526e-06
6.02213e-05
-8.87322e-06
5.98943e-05
-9.10714e-06
5.94589e-05
-9.65642e-06
5.90192e-05
-9.08454e-06
5.85743e-05
-7.16058e-06
5.80078e-05
-6.5038e-06
5.73311e-05
-3.93765e-06
5.66917e-05
-7.07702e-07
5.61014e-05
2.88816e-06
5.5419e-05
6.85844e-06
5.46294e-05
8.04168e-06
5.38592e-05
1.1177e-05
5.31509e-05
1.41392e-05
5.24426e-05
1.65828e-05
1.74318e-05
7.79181e-05
3.80531e-06
7.79242e-05
3.72305e-06
7.7928e-05
3.63258e-06
7.79322e-05
3.68111e-06
7.79323e-05
3.60412e-06
7.79312e-05
3.51355e-06
7.79304e-05
3.55617e-06
7.79246e-05
3.48693e-06
7.79178e-05
3.40585e-06
7.79093e-05
3.32856e-06
7.79002e-05
3.36793e-06
7.78885e-05
3.30224e-06
7.7877e-05
3.23011e-06
7.78654e-05
3.26729e-06
7.78505e-05
3.2147e-06
7.78366e-05
3.15688e-06
7.78232e-05
3.10497e-06
7.7809e-05
3.14003e-06
7.77944e-05
3.10045e-06
7.77817e-05
3.0602e-06
7.77689e-05
3.09592e-06
7.77553e-05
3.0738e-06
7.77436e-05
3.05303e-06
7.77345e-05
3.03713e-06
7.77248e-05
3.07373e-06
7.77167e-05
3.07806e-06
7.77134e-05
3.13494e-06
7.77111e-05
3.17433e-06
7.77104e-05
3.19138e-06
7.77149e-05
3.21388e-06
7.77251e-05
3.23993e-06
7.77361e-05
3.28243e-06
7.7752e-05
3.3224e-06
7.77754e-05
3.3683e-06
7.78065e-05
3.41615e-06
7.78389e-05
3.46166e-06
7.78797e-05
3.52035e-06
7.79302e-05
3.58046e-06
7.79834e-05
3.62658e-06
7.80456e-05
3.68933e-06
7.81183e-05
3.75253e-06
7.82008e-05
3.80806e-06
7.82862e-05
3.8479e-06
7.83822e-05
3.89338e-06
7.84879e-05
3.92619e-06
7.85986e-05
3.94339e-06
7.87099e-05
3.96685e-06
7.88283e-05
3.95954e-06
7.89498e-05
3.9282e-06
7.90767e-05
4.45231e-06
7.92056e-05
4.40309e-06
7.93349e-05
4.30647e-06
7.94569e-05
4.17379e-06
7.95741e-05
4.14654e-06
7.96845e-05
3.97545e-06
7.97845e-05
3.75415e-06
7.98664e-05
3.49569e-06
7.99382e-05
3.42672e-06
7.99926e-05
3.13257e-06
8.00261e-05
2.78996e-06
8.00326e-05
2.42491e-06
8.00232e-05
2.31821e-06
7.99855e-05
1.93942e-06
7.99202e-05
1.54168e-06
7.9826e-05
1.14949e-06
7.97114e-05
1.02933e-06
7.95652e-05
6.61327e-07
7.93959e-05
3.09103e-07
7.92094e-05
-1.37317e-08
7.90038e-05
-1.20283e-07
7.87767e-05
-3.66078e-07
7.85441e-05
-1.92266e-07
7.83142e-05
6.57344e-07
7.8065e-05
5.67197e-07
7.7815e-05
5.88496e-07
7.75763e-05
6.77409e-07
7.73425e-05
7.11018e-07
7.71112e-05
8.97907e-07
7.68932e-05
1.18815e-06
7.66922e-05
1.5398e-06
7.65007e-05