/*--------------------------------*- C++ -*----------------------------------*\
| =========                 |                                                 |
| \\      /  F ield         | OpenFOAM: The Open Source CFD Toolbox           |
|  \\    /   O peration     | Version:  v2012                                 |
|   \\  /    A nd           | Website:  www.openfoam.com                      |
|    \\/     M anipulation  |                                                 |
\*---------------------------------------------------------------------------*/
FoamFile
{
    version     2.0;
    format      ascii;
    class       volScalarField;
    location    "1e-06";
    object      pMean;
}
// * * * * * * * * * * * * * * * * * * * * * * * * * * * * * * * * * * * * * //

dimensions      [1 -1 -2 0 0 0 0];


internalField   nonuniform List<scalar> 
10098
(
2.63503e+07
2.62847e+07
2.62105e+07
2.61534e+07
2.61233e+07
2.60794e+07
2.60176e+07
2.59763e+07
2.59581e+07
2.59301e+07
2.58762e+07
2.58304e+07
2.63604e+07
2.62941e+07
2.62205e+07
2.61639e+07
2.6133e+07
2.6088e+07
2.60261e+07
2.59854e+07
2.59668e+07
2.59376e+07
2.58834e+07
2.58379e+07
2.63708e+07
2.63044e+07
2.62314e+07
2.61744e+07
2.61428e+07
2.60973e+07
2.60357e+07
2.59948e+07
2.59757e+07
2.59459e+07
2.58915e+07
2.58458e+07
2.67319e+07
2.67624e+07
2.67752e+07
2.67666e+07
2.67541e+07
2.67437e+07
2.67118e+07
2.66674e+07
2.66177e+07
2.65654e+07
2.65025e+07
2.64389e+07
2.63817e+07
2.63139e+07
2.62418e+07
2.6186e+07
2.61532e+07
2.61061e+07
2.60446e+07
2.60047e+07
2.59855e+07
2.5954e+07
2.58989e+07
2.58544e+07
2.6733e+07
2.67644e+07
2.67803e+07
2.67729e+07
2.67594e+07
2.67493e+07
2.67204e+07
2.66776e+07
2.66271e+07
2.65747e+07
2.6514e+07
2.64523e+07
2.6394e+07
2.63245e+07
2.62535e+07
2.61998e+07
2.61665e+07
2.61176e+07
2.60557e+07
2.6017e+07
2.59977e+07
2.59643e+07
2.59076e+07
2.58634e+07
2.67361e+07
2.67684e+07
2.67856e+07
2.67786e+07
2.67661e+07
2.67571e+07
2.67295e+07
2.66871e+07
2.66375e+07
2.65861e+07
2.65264e+07
2.64649e+07
2.64063e+07
2.63366e+07
2.62664e+07
2.62129e+07
2.61792e+07
2.61298e+07
2.60681e+07
2.60291e+07
2.60093e+07
2.59751e+07
2.59177e+07
2.58728e+07
2.67383e+07
2.67711e+07
2.6791e+07
2.67854e+07
2.67722e+07
2.67638e+07
2.67386e+07
2.6698e+07
2.66478e+07
2.65966e+07
2.65386e+07
2.64788e+07
2.64192e+07
2.63484e+07
2.62792e+07
2.62271e+07
2.6193e+07
2.61421e+07
2.60803e+07
2.60423e+07
2.60222e+07
2.59861e+07
2.59276e+07
2.58828e+07
2.67416e+07
2.67754e+07
2.67956e+07
2.67906e+07
2.67791e+07
2.67723e+07
2.67478e+07
2.67069e+07
2.66587e+07
2.66093e+07
2.65519e+07
2.6492e+07
2.64323e+07
2.63619e+07
2.62934e+07
2.62411e+07
2.62066e+07
2.61559e+07
2.60944e+07
2.60556e+07
2.60347e+07
2.59983e+07
2.59393e+07
2.58933e+07
2.67233e+07
2.67436e+07
2.6778e+07
2.68006e+07
2.6797e+07
2.67853e+07
2.67794e+07
2.6757e+07
2.67181e+07
2.66695e+07
2.66207e+07
2.65649e+07
2.65064e+07
2.64459e+07
2.63748e+07
2.63074e+07
2.62563e+07
2.62214e+07
2.61695e+07
2.61082e+07
2.607e+07
2.60487e+07
2.60106e+07
2.59507e+07
2.59044e+07
2.67045e+07
2.67245e+07
2.67468e+07
2.67823e+07
2.68047e+07
2.68016e+07
2.67923e+07
2.67883e+07
2.67662e+07
2.67271e+07
2.66808e+07
2.66344e+07
2.6579e+07
2.652e+07
2.64598e+07
2.63897e+07
2.6323e+07
2.62712e+07
2.6236e+07
2.6185e+07
2.61241e+07
2.60846e+07
2.60622e+07
2.60242e+07
2.59641e+07
2.5916e+07
2.66627e+07
2.67064e+07
2.67267e+07
2.67484e+07
2.67846e+07
2.68092e+07
2.68074e+07
2.67982e+07
2.67954e+07
2.67753e+07
2.67378e+07
2.66918e+07
2.66465e+07
2.65926e+07
2.6535e+07
2.64742e+07
2.64039e+07
2.63382e+07
2.62874e+07
2.62519e+07
2.62002e+07
2.61396e+07
2.61005e+07
2.60774e+07
2.6038e+07
2.59772e+07
2.59284e+07
2.66068e+07
2.66644e+07
2.67063e+07
2.67267e+07
2.67511e+07
2.67886e+07
2.68122e+07
2.68107e+07
2.68049e+07
2.68046e+07
2.67842e+07
2.67461e+07
2.67032e+07
2.66613e+07
2.66074e+07
2.65487e+07
2.64886e+07
2.64203e+07
2.63554e+07
2.63031e+07
2.62674e+07
2.62174e+07
2.61576e+07
2.61164e+07
2.60919e+07
2.60533e+07
2.59926e+07
2.59415e+07
2.58907e+07
2.59793e+07
2.607e+07
2.61651e+07
2.62479e+07
2.63108e+07
2.63783e+07
2.64564e+07
2.65197e+07
2.65608e+07
2.6607e+07
2.66645e+07
2.67069e+07
2.67275e+07
2.67522e+07
2.67906e+07
2.68156e+07
2.68151e+07
2.68105e+07
2.68118e+07
2.6793e+07
2.6756e+07
2.67143e+07
2.66743e+07
2.66216e+07
2.65637e+07
2.65035e+07
2.64358e+07
2.6372e+07
2.63202e+07
2.62842e+07
2.62344e+07
2.61752e+07
2.61336e+07
2.61082e+07
2.60687e+07
2.60078e+07
2.59553e+07
2.5903e+07
2.58328e+07
2.57659e+07
2.56985e+07
2.56129e+07
2.54937e+07
2.53867e+07
2.59879e+07
2.60805e+07
2.61722e+07
2.62494e+07
2.63119e+07
2.63819e+07
2.64582e+07
2.65168e+07
2.65577e+07
2.66074e+07
2.6665e+07
2.67039e+07
2.67241e+07
2.67531e+07
2.67939e+07
2.68165e+07
2.68152e+07
2.68155e+07
2.68209e+07
2.68006e+07
2.67617e+07
2.67245e+07
2.66901e+07
2.66364e+07
2.65762e+07
2.65179e+07
2.6454e+07
2.63907e+07
2.63361e+07
2.63005e+07
2.62541e+07
2.61961e+07
2.61512e+07
2.61234e+07
2.60861e+07
2.60262e+07
2.59697e+07
2.59132e+07
2.58425e+07
2.57764e+07
2.5707e+07
2.56174e+07
2.54961e+07
2.53911e+07
2.60021e+07
2.60956e+07
2.61838e+07
2.62563e+07
2.63193e+07
2.6391e+07
2.64646e+07
2.65191e+07
2.65609e+07
2.66137e+07
2.66701e+07
2.67056e+07
2.67268e+07
2.67599e+07
2.68015e+07
2.68215e+07
2.68205e+07
2.68256e+07
2.68339e+07
2.68115e+07
2.67711e+07
2.67389e+07
2.67088e+07
2.66534e+07
2.65906e+07
2.6534e+07
2.64738e+07
2.64103e+07
2.63523e+07
2.63163e+07
2.62732e+07
2.62165e+07
2.61681e+07
2.61381e+07
2.61028e+07
2.60451e+07
2.59856e+07
2.5926e+07
2.58559e+07
2.57904e+07
2.57188e+07
2.56263e+07
2.55052e+07
2.54012e+07
2.60149e+07
2.61059e+07
2.61931e+07
2.62649e+07
2.63261e+07
2.63956e+07
2.64683e+07
2.65229e+07
2.65642e+07
2.66157e+07
2.66718e+07
2.67082e+07
2.67299e+07
2.67629e+07
2.68049e+07
2.68265e+07
2.68268e+07
2.68328e+07
2.68424e+07
2.68216e+07
2.67827e+07
2.67516e+07
2.67229e+07
2.66691e+07
2.66074e+07
2.65504e+07
2.64906e+07
2.64286e+07
2.63713e+07
2.63344e+07
2.62913e+07
2.62358e+07
2.61876e+07
2.61559e+07
2.61195e+07
2.60624e+07
2.60022e+07
2.59412e+07
2.58687e+07
2.58016e+07
2.57293e+07
2.56359e+07
2.55137e+07
2.54086e+07
2.58412e+07
2.59397e+07
2.60275e+07
2.61179e+07
2.62032e+07
2.62716e+07
2.63317e+07
2.64015e+07
2.64726e+07
2.65245e+07
2.65657e+07
2.66186e+07
2.66741e+07
2.67086e+07
2.67309e+07
2.67665e+07
2.68092e+07
2.68299e+07
2.68311e+07
2.68405e+07
2.68521e+07
2.68311e+07
2.67925e+07
2.67645e+07
2.67394e+07
2.66856e+07
2.66233e+07
2.6567e+07
2.65097e+07
2.64485e+07
2.63897e+07
2.63524e+07
2.63116e+07
2.62574e+07
2.62074e+07
2.61735e+07
2.61381e+07
2.6082e+07
2.60198e+07
2.5956e+07
2.58822e+07
2.58144e+07
2.57408e+07
2.5645e+07
2.55218e+07
2.5417e+07
2.56356e+07
2.57432e+07
2.58563e+07
2.5955e+07
2.60389e+07
2.61256e+07
2.62109e+07
2.62799e+07
2.63375e+07
2.64037e+07
2.64745e+07
2.65278e+07
2.65681e+07
2.66185e+07
2.66738e+07
2.67105e+07
2.67334e+07
2.6767e+07
2.68101e+07
2.6834e+07
2.68371e+07
2.68457e+07
2.6858e+07
2.68402e+07
2.68043e+07
2.67763e+07
2.67508e+07
2.67007e+07
2.66411e+07
2.65841e+07
2.6526e+07
2.6467e+07
2.64105e+07
2.63726e+07
2.63305e+07
2.62776e+07
2.62291e+07
2.61937e+07
2.61557e+07
2.60998e+07
2.60379e+07
2.59732e+07
2.58956e+07
2.58249e+07
2.57511e+07
2.56555e+07
2.55304e+07
2.54234e+07
2.5449e+07
2.55558e+07
2.56532e+07
2.57592e+07
2.58714e+07
2.59682e+07
2.60496e+07
2.61345e+07
2.62189e+07
2.62859e+07
2.63418e+07
2.64068e+07
2.64767e+07
2.65285e+07
2.65684e+07
2.66193e+07
2.66742e+07
2.67097e+07
2.67331e+07
2.67681e+07
2.68116e+07
2.68357e+07
2.68403e+07
2.68511e+07
2.68646e+07
2.68482e+07
2.6814e+07
2.67882e+07
2.67652e+07
2.67163e+07
2.66577e+07
2.66011e+07
2.65447e+07
2.64871e+07
2.64307e+07
2.63923e+07
2.63518e+07
2.63004e+07
2.62516e+07
2.62137e+07
2.61755e+07
2.61203e+07
2.60572e+07
2.59901e+07
2.59097e+07
2.5837e+07
2.57624e+07
2.5665e+07
2.55382e+07
2.54306e+07
2.53478e+07
2.54676e+07
2.55751e+07
2.5668e+07
2.577e+07
2.58833e+07
2.59808e+07
2.60582e+07
2.6139e+07
2.62239e+07
2.62922e+07
2.63455e+07
2.64071e+07
2.6477e+07
2.65301e+07
2.65693e+07
2.66163e+07
2.66711e+07
2.67098e+07
2.67339e+07
2.67662e+07
2.68098e+07
2.68378e+07
2.68447e+07
2.68541e+07
2.68678e+07
2.68557e+07
2.68252e+07
2.67987e+07
2.67753e+07
2.67302e+07
2.66756e+07
2.66185e+07
2.65605e+07
2.65056e+07
2.64528e+07
2.64139e+07
2.63714e+07
2.63217e+07
2.62753e+07
2.62358e+07
2.6194e+07
2.61389e+07
2.60765e+07
2.60087e+07
2.59234e+07
2.58467e+07
2.57724e+07
2.56754e+07
2.55463e+07
2.54357e+07
2.52281e+07
2.53647e+07
2.5484e+07
2.55906e+07
2.56809e+07
2.57811e+07
2.5894e+07
2.59904e+07
2.6065e+07
2.61439e+07
2.62285e+07
2.62959e+07
2.6347e+07
2.64081e+07
2.64777e+07
2.65299e+07
2.65671e+07
2.66137e+07
2.66682e+07
2.67067e+07
2.67313e+07
2.67643e+07
2.68082e+07
2.68369e+07
2.68458e+07
2.68566e+07
2.68712e+07
2.68612e+07
2.68333e+07
2.68085e+07
2.67868e+07
2.67443e+07
2.66919e+07
2.66353e+07
2.65787e+07
2.65258e+07
2.64744e+07
2.64349e+07
2.63938e+07
2.63461e+07
2.63001e+07
2.62575e+07
2.62148e+07
2.61604e+07
2.60972e+07
2.60269e+07
2.59375e+07
2.58581e+07
2.57832e+07
2.56845e+07
2.5553e+07
2.54416e+07
2.52426e+07
2.53762e+07
2.54967e+07
2.56042e+07
2.56906e+07
2.57868e+07
2.59008e+07
2.59983e+07
2.60693e+07
2.61447e+07
2.62301e+07
2.62986e+07
2.63479e+07
2.64042e+07
2.64741e+07
2.65286e+07
2.65649e+07
2.66078e+07
2.66623e+07
2.67041e+07
2.67295e+07
2.67597e+07
2.68034e+07
2.68363e+07
2.68478e+07
2.6857e+07
2.68714e+07
2.68663e+07
2.68428e+07
2.68175e+07
2.67948e+07
2.67566e+07
2.67092e+07
2.66524e+07
2.65941e+07
2.65442e+07
2.64973e+07
2.64573e+07
2.64142e+07
2.63685e+07
2.63252e+07
2.62806e+07
2.62338e+07
2.61797e+07
2.61173e+07
2.60463e+07
2.59509e+07
2.5867e+07
2.57924e+07
2.56939e+07
2.55597e+07
2.54409e+07
2.52537e+07
2.53864e+07
2.55059e+07
2.5612e+07
2.56966e+07
2.57918e+07
2.59052e+07
2.6001e+07
2.60708e+07
2.61462e+07
2.62314e+07
2.62983e+07
2.63447e+07
2.64007e+07
2.64702e+07
2.65234e+07
2.65588e+07
2.66022e+07
2.66566e+07
2.66976e+07
2.67234e+07
2.67549e+07
2.6799e+07
2.68321e+07
2.68451e+07
2.68564e+07
2.68716e+07
2.68686e+07
2.68476e+07
2.68246e+07
2.68045e+07
2.67686e+07
2.67231e+07
2.66679e+07
2.66124e+07
2.65647e+07
2.65188e+07
2.64783e+07
2.64379e+07
2.63947e+07
2.6351e+07
2.63025e+07
2.62552e+07
2.62025e+07
2.61386e+07
2.60639e+07
2.59643e+07
2.58779e+07
2.58024e+07
2.57013e+07
2.55633e+07
2.54408e+07
2.52608e+07
2.53909e+07
2.55108e+07
2.56175e+07
2.56997e+07
2.5793e+07
2.59072e+07
2.60031e+07
2.60693e+07
2.61409e+07
2.62272e+07
2.62951e+07
2.63398e+07
2.63929e+07
2.64629e+07
2.65177e+07
2.65524e+07
2.65932e+07
2.66478e+07
2.66913e+07
2.67178e+07
2.67476e+07
2.67917e+07
2.68281e+07
2.68434e+07
2.68542e+07
2.68696e+07
2.68708e+07
2.68538e+07
2.68314e+07
2.6811e+07
2.67793e+07
2.67383e+07
2.66839e+07
2.66279e+07
2.65833e+07
2.65416e+07
2.65007e+07
2.64592e+07
2.64183e+07
2.63768e+07
2.63253e+07
2.62742e+07
2.62224e+07
2.6159e+07
2.60827e+07
2.59764e+07
2.58858e+07
2.58105e+07
2.57088e+07
2.55633e+07
2.54392e+07
2.5262e+07
2.53932e+07
2.55109e+07
2.56131e+07
2.56958e+07
2.57926e+07
2.59017e+07
2.59933e+07
2.60596e+07
2.6134e+07
2.62186e+07
2.62827e+07
2.63274e+07
2.63838e+07
2.64533e+07
2.65042e+07
2.65388e+07
2.65832e+07
2.66382e+07
2.66784e+07
2.67048e+07
2.67388e+07
2.67846e+07
2.68185e+07
2.68337e+07
2.68494e+07
2.68683e+07
2.68685e+07
2.6851e+07
2.68345e+07
2.68197e+07
2.67878e+07
2.6746e+07
2.66959e+07
2.66469e+07
2.66039e+07
2.65601e+07
2.65191e+07
2.64836e+07
2.64465e+07
2.64008e+07
2.63434e+07
2.62938e+07
2.62462e+07
2.61784e+07
2.60952e+07
2.59859e+07
2.58953e+07
2.5818e+07
2.57068e+07
2.55594e+07
2.54365e+07
2.52705e+07
2.54014e+07
2.5515e+07
2.56152e+07
2.56998e+07
2.57978e+07
2.5904e+07
2.59904e+07
2.60592e+07
2.61362e+07
2.62167e+07
2.62773e+07
2.63239e+07
2.63828e+07
2.64499e+07
2.64972e+07
2.6533e+07
2.65805e+07
2.66344e+07
2.66712e+07
2.66987e+07
2.67367e+07
2.67828e+07
2.68138e+07
2.68297e+07
2.68506e+07
2.68723e+07
2.68708e+07
2.68536e+07
2.68434e+07
2.68336e+07
2.68012e+07
2.6758e+07
2.67133e+07
2.66707e+07
2.66281e+07
2.6582e+07
2.65418e+07
2.65124e+07
2.64783e+07
2.64293e+07
2.63677e+07
2.63201e+07
2.62755e+07
2.62036e+07
2.61161e+07
2.60048e+07
2.59129e+07
2.58325e+07
2.57175e+07
2.55696e+07
2.54475e+07
2.52749e+07
2.54032e+07
2.55167e+07
2.56172e+07
2.57003e+07
2.57927e+07
2.5898e+07
2.59856e+07
2.60526e+07
2.61266e+07
2.62078e+07
2.62707e+07
2.63165e+07
2.63727e+07
2.644e+07
2.64898e+07
2.65254e+07
2.65704e+07
2.66244e+07
2.66641e+07
2.66927e+07
2.67286e+07
2.67747e+07
2.68091e+07
2.68276e+07
2.68474e+07
2.68692e+07
2.68717e+07
2.68596e+07
2.68498e+07
2.68397e+07
2.68117e+07
2.6774e+07
2.67305e+07
2.6688e+07
2.66488e+07
2.66075e+07
2.65664e+07
2.65354e+07
2.65039e+07
2.64577e+07
2.63933e+07
2.63412e+07
2.62969e+07
2.62256e+07
2.61373e+07
2.602e+07
2.59227e+07
2.58423e+07
2.57276e+07
2.55775e+07
2.54469e+07
1.14457e+07
1.16204e+07
1.17937e+07
1.19692e+07
1.2147e+07
1.23229e+07
1.25008e+07
1.2681e+07
1.28595e+07
1.30358e+07
1.32143e+07
1.33949e+07
1.35726e+07
1.37521e+07
1.39337e+07
1.41128e+07
1.42892e+07
1.44674e+07
1.46477e+07
1.48243e+07
1.50026e+07
1.5183e+07
1.53604e+07
1.55345e+07
1.57104e+07
1.58882e+07
1.6062e+07
1.62372e+07
1.64142e+07
1.65881e+07
1.67587e+07
1.69305e+07
1.71039e+07
1.7274e+07
1.74411e+07
1.76091e+07
1.77782e+07
1.7944e+07
1.81101e+07
1.82771e+07
1.84416e+07
1.86038e+07
1.87657e+07
1.8928e+07
1.90883e+07
1.92468e+07
1.94048e+07
1.9563e+07
1.97197e+07
1.98758e+07
2.00317e+07
2.01869e+07
2.03407e+07
2.04944e+07
2.06484e+07
2.08015e+07
2.09523e+07
2.1104e+07
2.1257e+07
2.14079e+07
2.15547e+07
2.17038e+07
2.18558e+07
2.20034e+07
2.21443e+07
2.22893e+07
2.24388e+07
2.25808e+07
2.27133e+07
2.28512e+07
2.29952e+07
2.31265e+07
2.32623e+07
2.34049e+07
2.35394e+07
2.36634e+07
2.37931e+07
2.39308e+07
2.40606e+07
2.41807e+07
2.43064e+07
2.44397e+07
2.45654e+07
2.46807e+07
2.48012e+07
2.49288e+07
2.505e+07
2.51593e+07
2.52749e+07
2.5397e+07
2.5508e+07
2.56072e+07
2.56908e+07
2.57831e+07
2.58858e+07
2.59729e+07
2.604e+07
2.6114e+07
2.61946e+07
2.62577e+07
2.6304e+07
2.63608e+07
2.64278e+07
2.64775e+07
2.65135e+07
2.65593e+07
2.66134e+07
2.66531e+07
2.66827e+07
2.67199e+07
2.67662e+07
2.68011e+07
2.68213e+07
2.68432e+07
2.6866e+07
2.68702e+07
2.68616e+07
2.68543e+07
2.68467e+07
2.68213e+07
2.67865e+07
2.67458e+07
2.6707e+07
2.66706e+07
2.66308e+07
2.65893e+07
2.65605e+07
2.65313e+07
2.64851e+07
2.64167e+07
2.63634e+07
2.63198e+07
2.62475e+07
2.61564e+07
2.60341e+07
2.59334e+07
2.58523e+07
2.57354e+07
2.55806e+07
2.54461e+07
1.15381e+07
1.17092e+07
1.18791e+07
1.20513e+07
1.22258e+07
1.23986e+07
1.25735e+07
1.27505e+07
1.29261e+07
1.30998e+07
1.32756e+07
1.34536e+07
1.36287e+07
1.38058e+07
1.3985e+07
1.41619e+07
1.43361e+07
1.45123e+07
1.46905e+07
1.48652e+07
1.50416e+07
1.52201e+07
1.53958e+07
1.55683e+07
1.57427e+07
1.59188e+07
1.60911e+07
1.62649e+07
1.64405e+07
1.6613e+07
1.67824e+07
1.6953e+07
1.71251e+07
1.72941e+07
1.74603e+07
1.76273e+07
1.77954e+07
1.79602e+07
1.81255e+07
1.82916e+07
1.84553e+07
1.86168e+07
1.87782e+07
1.89399e+07
1.90997e+07
1.92578e+07
1.94157e+07
1.95735e+07
1.97301e+07
1.98862e+07
2.0042e+07
2.01972e+07
2.03512e+07
2.05052e+07
2.06594e+07
2.08127e+07
2.0964e+07
2.11162e+07
2.12696e+07
2.14209e+07
2.15684e+07
2.17184e+07
2.18708e+07
2.20189e+07
2.21606e+07
2.23066e+07
2.24565e+07
2.2599e+07
2.27323e+07
2.2871e+07
2.30153e+07
2.3147e+07
2.32832e+07
2.3426e+07
2.35603e+07
2.3684e+07
2.3813e+07
2.39496e+07
2.40781e+07
2.4197e+07
2.43207e+07
2.44516e+07
2.45751e+07
2.46891e+07
2.48066e+07
2.4932e+07
2.50523e+07
2.51615e+07
2.52733e+07
2.53897e+07
2.54988e+07
2.55978e+07
2.568e+07
2.57696e+07
2.5871e+07
2.59589e+07
2.60246e+07
2.6096e+07
2.61771e+07
2.6243e+07
2.6289e+07
2.6343e+07
2.64108e+07
2.6464e+07
2.65003e+07
2.65432e+07
2.65979e+07
2.66418e+07
2.66727e+07
2.67072e+07
2.67536e+07
2.67932e+07
2.68162e+07
2.68364e+07
2.6859e+07
2.6869e+07
2.6866e+07
2.68584e+07
2.68496e+07
2.68301e+07
2.68019e+07
2.67619e+07
2.67222e+07
2.66901e+07
2.66561e+07
2.66133e+07
2.6581e+07
2.65542e+07
2.65114e+07
2.64403e+07
2.63811e+07
2.63366e+07
2.62661e+07
2.61748e+07
2.60454e+07
2.59384e+07
2.58584e+07
2.57424e+07
2.55799e+07
2.54422e+07
1.16329e+07
1.18003e+07
1.19667e+07
1.21355e+07
1.23066e+07
1.24763e+07
1.26479e+07
1.28219e+07
1.29945e+07
1.31655e+07
1.33386e+07
1.35138e+07
1.36865e+07
1.3861e+07
1.40378e+07
1.42123e+07
1.43844e+07
1.45585e+07
1.47346e+07
1.49074e+07
1.50819e+07
1.52584e+07
1.54322e+07
1.56032e+07
1.57759e+07
1.59504e+07
1.61213e+07
1.62935e+07
1.64675e+07
1.66387e+07
1.68069e+07
1.69763e+07
1.71471e+07
1.7315e+07
1.74802e+07
1.76463e+07
1.78133e+07
1.79773e+07
1.81417e+07
1.8307e+07
1.847e+07
1.86308e+07
1.87916e+07
1.89528e+07
1.91121e+07
1.92699e+07
1.94275e+07
1.95851e+07
1.97415e+07
1.98975e+07
2.00533e+07
2.02084e+07
2.03625e+07
2.05166e+07
2.06709e+07
2.08243e+07
2.09759e+07
2.11286e+07
2.12822e+07
2.14337e+07
2.15818e+07
2.17323e+07
2.1885e+07
2.20334e+07
2.21758e+07
2.23222e+07
2.24723e+07
2.26151e+07
2.27491e+07
2.28884e+07
2.30327e+07
2.31647e+07
2.33013e+07
2.3444e+07
2.35779e+07
2.37014e+07
2.38297e+07
2.39652e+07
2.40924e+07
2.42101e+07
2.43321e+07
2.44605e+07
2.45815e+07
2.46937e+07
2.48095e+07
2.49323e+07
2.50492e+07
2.51552e+07
2.52637e+07
2.53755e+07
2.54816e+07
2.55788e+07
2.56614e+07
2.57495e+07
2.5848e+07
2.59353e+07
2.60016e+07
2.60725e+07
2.61529e+07
2.62201e+07
2.62673e+07
2.63219e+07
2.63896e+07
2.64441e+07
2.64815e+07
2.65253e+07
2.65804e+07
2.66254e+07
2.66577e+07
2.66934e+07
2.67403e+07
2.67809e+07
2.68063e+07
2.68279e+07
2.68519e+07
2.68645e+07
2.68646e+07
2.686e+07
2.68536e+07
2.68377e+07
2.6813e+07
2.67754e+07
2.67394e+07
2.6711e+07
2.66791e+07
2.66346e+07
2.66032e+07
2.65786e+07
2.65354e+07
2.646e+07
2.63985e+07
2.63542e+07
2.6283e+07
2.61889e+07
2.60541e+07
2.59429e+07
2.5859e+07
2.57407e+07
2.55768e+07
2.54388e+07
1.17303e+07
1.18942e+07
1.2057e+07
1.22225e+07
1.23902e+07
1.25565e+07
1.2725e+07
1.2896e+07
1.30656e+07
1.32336e+07
1.3404e+07
1.35765e+07
1.37464e+07
1.39185e+07
1.40929e+07
1.42649e+07
1.44348e+07
1.46067e+07
1.47807e+07
1.49513e+07
1.51239e+07
1.52986e+07
1.54705e+07
1.56397e+07
1.58107e+07
1.59836e+07
1.61528e+07
1.63235e+07
1.64962e+07
1.66659e+07
1.68327e+07
1.70008e+07
1.71705e+07
1.73372e+07
1.75012e+07
1.76663e+07
1.78324e+07
1.79954e+07
1.8159e+07
1.83236e+07
1.84858e+07
1.86458e+07
1.88061e+07
1.89667e+07
1.91255e+07
1.92829e+07
1.94402e+07
1.95976e+07
1.97537e+07
1.99095e+07
2.00654e+07
2.02204e+07
2.03743e+07
2.05286e+07
2.06831e+07
2.08365e+07
2.09882e+07
2.11412e+07
2.1295e+07
2.14467e+07
2.15949e+07
2.1746e+07
2.1899e+07
2.20475e+07
2.21901e+07
2.23371e+07
2.24874e+07
2.26303e+07
2.27648e+07
2.29047e+07
2.30495e+07
2.31813e+07
2.33177e+07
2.34604e+07
2.35941e+07
2.37169e+07
2.38446e+07
2.39792e+07
2.41052e+07
2.42215e+07
2.43418e+07
2.44683e+07
2.45872e+07
2.46978e+07
2.48118e+07
2.49329e+07
2.50454e+07
2.51492e+07
2.52543e+07
2.53627e+07
2.54659e+07
2.55615e+07
2.56436e+07
2.57295e+07
2.58251e+07
2.59116e+07
2.5978e+07
2.60471e+07
2.61268e+07
2.6196e+07
2.62441e+07
2.62971e+07
2.63651e+07
2.64229e+07
2.64616e+07
2.65034e+07
2.65591e+07
2.66085e+07
2.66426e+07
2.66764e+07
2.67233e+07
2.67685e+07
2.67973e+07
2.68178e+07
2.68416e+07
2.686e+07
2.68652e+07
2.68606e+07
2.68545e+07
2.68446e+07
2.6827e+07
2.67896e+07
2.67531e+07
2.67294e+07
2.67028e+07
2.66559e+07
2.66206e+07
2.65983e+07
2.65576e+07
2.64787e+07
2.64111e+07
2.63661e+07
2.62964e+07
2.62015e+07
2.6058e+07
2.59399e+07
2.5857e+07
2.5739e+07
2.55735e+07
2.54321e+07
1.18295e+07
1.19896e+07
1.21491e+07
1.2311e+07
1.24752e+07
1.26383e+07
1.28035e+07
1.29712e+07
1.31378e+07
1.33029e+07
1.34705e+07
1.36401e+07
1.38075e+07
1.39769e+07
1.41486e+07
1.43183e+07
1.44858e+07
1.46556e+07
1.48273e+07
1.49959e+07
1.51664e+07
1.5339e+07
1.55091e+07
1.56765e+07
1.58459e+07
1.60171e+07
1.61848e+07
1.63539e+07
1.65249e+07
1.66933e+07
1.68588e+07
1.70257e+07
1.71941e+07
1.73597e+07
1.75227e+07
1.76869e+07
1.78521e+07
1.80142e+07
1.81769e+07
1.83407e+07
1.85022e+07
1.86616e+07
1.88213e+07
1.89815e+07
1.91399e+07
1.92968e+07
1.94538e+07
1.9611e+07
1.97668e+07
1.99225e+07
2.00783e+07
2.02332e+07
2.0387e+07
2.05412e+07
2.06957e+07
2.08491e+07
2.10007e+07
2.11537e+07
2.13076e+07
2.14592e+07
2.16074e+07
2.17584e+07
2.19114e+07
2.20598e+07
2.22023e+07
2.23494e+07
2.24993e+07
2.26418e+07
2.2776e+07
2.2916e+07
2.30598e+07
2.31924e+07
2.33289e+07
2.34713e+07
2.36048e+07
2.37275e+07
2.38543e+07
2.39882e+07
2.41133e+07
2.42285e+07
2.43471e+07
2.44723e+07
2.45899e+07
2.46989e+07
2.48107e+07
2.49263e+07
2.50369e+07
2.51385e+07
2.52405e+07
2.53451e+07
2.54444e+07
2.55367e+07
2.56191e+07
2.57036e+07
2.57942e+07
2.58775e+07
2.59457e+07
2.60161e+07
2.60924e+07
2.61601e+07
2.62113e+07
2.62679e+07
2.63344e+07
2.6391e+07
2.64323e+07
2.64788e+07
2.6535e+07
2.65828e+07
2.66187e+07
2.66572e+07
2.67061e+07
2.67495e+07
2.67791e+07
2.68048e+07
2.6833e+07
2.68509e+07
2.68568e+07
2.68584e+07
2.6859e+07
2.685e+07
2.68307e+07
2.67985e+07
2.67701e+07
2.67495e+07
2.67209e+07
2.66705e+07
2.6638e+07
2.66187e+07
2.65733e+07
2.6487e+07
2.64187e+07
2.63764e+07
2.63023e+07
2.61979e+07
2.6053e+07
2.59361e+07
2.58522e+07
2.57303e+07
2.55634e+07
2.54227e+07
1.19339e+07
1.20904e+07
1.22464e+07
1.24049e+07
1.25657e+07
1.27256e+07
1.28876e+07
1.30521e+07
1.32156e+07
1.3378e+07
1.35426e+07
1.37094e+07
1.38742e+07
1.4041e+07
1.421e+07
1.43773e+07
1.45426e+07
1.471e+07
1.48794e+07
1.5046e+07
1.52144e+07
1.53848e+07
1.5553e+07
1.57187e+07
1.58862e+07
1.60555e+07
1.62216e+07
1.63891e+07
1.65584e+07
1.67252e+07
1.68894e+07
1.70549e+07
1.72218e+07
1.73862e+07
1.75481e+07
1.7711e+07
1.7875e+07
1.80361e+07
1.81979e+07
1.83607e+07
1.85213e+07
1.868e+07
1.88389e+07
1.89985e+07
1.91563e+07
1.93126e+07
1.94692e+07
1.96261e+07
1.97815e+07
1.99369e+07
2.00927e+07
2.02475e+07
2.0401e+07
2.05552e+07
2.07098e+07
2.08633e+07
2.1015e+07
2.1168e+07
2.13221e+07
2.1474e+07
2.16225e+07
2.17736e+07
2.19267e+07
2.20754e+07
2.22187e+07
2.23657e+07
2.25156e+07
2.26585e+07
2.27937e+07
2.29336e+07
2.30775e+07
2.32101e+07
2.33466e+07
2.34882e+07
2.36211e+07
2.37436e+07
2.38701e+07
2.40025e+07
2.4126e+07
2.42401e+07
2.43575e+07
2.44803e+07
2.45952e+07
2.47028e+07
2.4813e+07
2.49271e+07
2.50328e+07
2.51315e+07
2.52308e+07
2.53318e+07
2.5427e+07
2.5516e+07
2.55986e+07
2.56816e+07
2.57671e+07
2.58469e+07
2.59181e+07
2.59893e+07
2.60621e+07
2.61284e+07
2.61847e+07
2.6244e+07
2.63081e+07
2.63641e+07
2.64098e+07
2.646e+07
2.65152e+07
2.65623e+07
2.66011e+07
2.66437e+07
2.66927e+07
2.67349e+07
2.67665e+07
2.6797e+07
2.68275e+07
2.68457e+07
2.68535e+07
2.68613e+07
2.6867e+07
2.68597e+07
2.68424e+07
2.6814e+07
2.67921e+07
2.67752e+07
2.67465e+07
2.66951e+07
2.66646e+07
2.66475e+07
2.65984e+07
2.65085e+07
2.64405e+07
2.63986e+07
2.63188e+07
2.6211e+07
2.60657e+07
2.59467e+07
2.58539e+07
2.57284e+07
2.55618e+07
2.54215e+07
1.20404e+07
1.21932e+07
1.23457e+07
1.25007e+07
1.26581e+07
1.28147e+07
1.29736e+07
1.31347e+07
1.32952e+07
1.34547e+07
1.36164e+07
1.37803e+07
1.39424e+07
1.41065e+07
1.42728e+07
1.44376e+07
1.46006e+07
1.47656e+07
1.49326e+07
1.50971e+07
1.52634e+07
1.54316e+07
1.55978e+07
1.57617e+07
1.59273e+07
1.60947e+07
1.62592e+07
1.64251e+07
1.65926e+07
1.67579e+07
1.69207e+07
1.70848e+07
1.72503e+07
1.74133e+07
1.75741e+07
1.77358e+07
1.78987e+07
1.80588e+07
1.82196e+07
1.83814e+07
1.85412e+07
1.8699e+07
1.88573e+07
1.90162e+07
1.91734e+07
1.93292e+07
1.94853e+07
1.96418e+07
1.97968e+07
1.9952e+07
2.01076e+07
2.02621e+07
2.04155e+07
2.05695e+07
2.07242e+07
2.08776e+07
2.10292e+07
2.11822e+07
2.13364e+07
2.14882e+07
2.16369e+07
2.17881e+07
2.19411e+07
2.20899e+07
2.22334e+07
2.23805e+07
2.25302e+07
2.26732e+07
2.28088e+07
2.29487e+07
2.30922e+07
2.32249e+07
2.33613e+07
2.35022e+07
2.36345e+07
2.37567e+07
2.38825e+07
2.40136e+07
2.41359e+07
2.42489e+07
2.43649e+07
2.44856e+07
2.4599e+07
2.47052e+07
2.48138e+07
2.49254e+07
2.50276e+07
2.51238e+07
2.52201e+07
2.53178e+07
2.54099e+07
2.54967e+07
2.55781e+07
2.56588e+07
2.5741e+07
2.58193e+07
2.5891e+07
2.59611e+07
2.60323e+07
2.60995e+07
2.61581e+07
2.62173e+07
2.62804e+07
2.63387e+07
2.6387e+07
2.64369e+07
2.64919e+07
2.65423e+07
2.65838e+07
2.6626e+07
2.66747e+07
2.67204e+07
2.67552e+07
2.67857e+07
2.68167e+07
2.684e+07
2.68529e+07
2.68614e+07
2.68685e+07
2.68672e+07
2.68558e+07
2.68268e+07
2.68057e+07
2.67945e+07
2.67696e+07
2.67153e+07
2.66815e+07
2.66663e+07
2.66183e+07
2.65256e+07
2.6453e+07
2.64081e+07
2.63285e+07
2.62205e+07
2.60709e+07
2.59439e+07
2.58502e+07
2.57247e+07
2.55579e+07
2.54152e+07
1.21489e+07
1.22981e+07
1.24471e+07
1.25986e+07
1.27525e+07
1.29058e+07
1.30613e+07
1.32192e+07
1.33766e+07
1.35332e+07
1.3692e+07
1.38529e+07
1.40123e+07
1.41736e+07
1.43372e+07
1.44994e+07
1.46601e+07
1.48227e+07
1.49873e+07
1.51496e+07
1.53137e+07
1.54797e+07
1.56438e+07
1.58059e+07
1.59697e+07
1.61352e+07
1.62979e+07
1.64621e+07
1.6628e+07
1.67916e+07
1.6953e+07
1.71156e+07
1.72797e+07
1.74414e+07
1.7601e+07
1.77617e+07
1.79233e+07
1.80824e+07
1.82423e+07
1.84032e+07
1.85621e+07
1.87191e+07
1.88767e+07
1.9035e+07
1.91916e+07
1.93468e+07
1.95024e+07
1.96585e+07
1.9813e+07
1.9968e+07
2.01234e+07
2.02777e+07
2.04307e+07
2.05846e+07
2.07392e+07
2.08923e+07
2.10438e+07
2.11967e+07
2.13507e+07
2.15024e+07
2.1651e+07
2.18021e+07
2.19549e+07
2.21035e+07
2.22471e+07
2.2394e+07
2.25433e+07
2.26861e+07
2.2822e+07
2.29617e+07
2.31047e+07
2.32374e+07
2.33734e+07
2.35136e+07
2.36453e+07
2.37671e+07
2.38924e+07
2.40223e+07
2.41436e+07
2.42556e+07
2.43702e+07
2.44896e+07
2.46016e+07
2.47066e+07
2.48136e+07
2.49209e+07
2.50212e+07
2.51151e+07
2.52089e+07
2.53034e+07
2.53924e+07
2.54765e+07
2.55563e+07
2.56348e+07
2.57135e+07
2.57893e+07
2.5861e+07
2.593e+07
2.59984e+07
2.60649e+07
2.6126e+07
2.61856e+07
2.6247e+07
2.63064e+07
2.63581e+07
2.64094e+07
2.64639e+07
2.65164e+07
2.65612e+07
2.6605e+07
2.66536e+07
2.67015e+07
2.67393e+07
2.67718e+07
2.68043e+07
2.68314e+07
2.68482e+07
2.68599e+07
2.68712e+07
2.68749e+07
2.68676e+07
2.68391e+07
2.68208e+07
2.68147e+07
2.67913e+07
2.67335e+07
2.6698e+07
2.66836e+07
2.66337e+07
2.65373e+07
2.64622e+07
2.64151e+07
2.6331e+07
2.62184e+07
2.60677e+07
2.59403e+07
2.58446e+07
2.57175e+07
2.55504e+07
2.54067e+07
1.22599e+07
1.24055e+07
1.25509e+07
1.26989e+07
1.28494e+07
1.29992e+07
1.31516e+07
1.33063e+07
1.34604e+07
1.36139e+07
1.37697e+07
1.39278e+07
1.40842e+07
1.42429e+07
1.44038e+07
1.45634e+07
1.47215e+07
1.48817e+07
1.5044e+07
1.52039e+07
1.53658e+07
1.55297e+07
1.56917e+07
1.58517e+07
1.60136e+07
1.61772e+07
1.63381e+07
1.65005e+07
1.66648e+07
1.68268e+07
1.69866e+07
1.71478e+07
1.73105e+07
1.74709e+07
1.76292e+07
1.77886e+07
1.79492e+07
1.81072e+07
1.8266e+07
1.8426e+07
1.8584e+07
1.87402e+07
1.8897e+07
1.90547e+07
1.92106e+07
1.93652e+07
1.95203e+07
1.9676e+07
1.983e+07
1.99846e+07
2.01399e+07
2.02938e+07
2.04464e+07
2.06e+07
2.07545e+07
2.09073e+07
2.10584e+07
2.12112e+07
2.13651e+07
2.15165e+07
2.16648e+07
2.18157e+07
2.19682e+07
2.21165e+07
2.22599e+07
2.24066e+07
2.25557e+07
2.26982e+07
2.28339e+07
2.29735e+07
2.31162e+07
2.32484e+07
2.3384e+07
2.35236e+07
2.36548e+07
2.37759e+07
2.39003e+07
2.40293e+07
2.41497e+07
2.42607e+07
2.43745e+07
2.44928e+07
2.46035e+07
2.47072e+07
2.48104e+07
2.49157e+07
2.50143e+07
2.51061e+07
2.51974e+07
2.52895e+07
2.53761e+07
2.54581e+07
2.55362e+07
2.56124e+07
2.56887e+07
2.57628e+07
2.58341e+07
2.59017e+07
2.59684e+07
2.60347e+07
2.60975e+07
2.61569e+07
2.6217e+07
2.62776e+07
2.63321e+07
2.63837e+07
2.64377e+07
2.64927e+07
2.65405e+07
2.65846e+07
2.66331e+07
2.66839e+07
2.67249e+07
2.6758e+07
2.67912e+07
2.68233e+07
2.68444e+07
2.68579e+07
2.68705e+07
2.68804e+07
2.68784e+07
2.68478e+07
2.68299e+07
2.68295e+07
2.68081e+07
2.6747e+07
2.67078e+07
2.66947e+07
2.66455e+07
2.65463e+07
2.64644e+07
2.64143e+07
2.63295e+07
2.62163e+07
2.6064e+07
2.59339e+07
2.58366e+07
2.57096e+07
2.5542e+07
2.53939e+07
1.23723e+07
1.25141e+07
1.26561e+07
1.28005e+07
1.29474e+07
1.3094e+07
1.32429e+07
1.33941e+07
1.35452e+07
1.36956e+07
1.38484e+07
1.40034e+07
1.41571e+07
1.43129e+07
1.4471e+07
1.46279e+07
1.47835e+07
1.49414e+07
1.51011e+07
1.52588e+07
1.54183e+07
1.558e+07
1.57399e+07
1.58979e+07
1.60579e+07
1.62196e+07
1.63787e+07
1.65393e+07
1.67018e+07
1.68623e+07
1.70206e+07
1.71803e+07
1.73416e+07
1.75006e+07
1.76577e+07
1.7816e+07
1.79755e+07
1.81324e+07
1.82902e+07
1.84493e+07
1.86065e+07
1.87619e+07
1.8918e+07
1.9075e+07
1.92304e+07
1.93842e+07
1.95388e+07
1.96941e+07
1.98477e+07
2.00018e+07
2.01567e+07
2.03104e+07
2.04625e+07
2.06157e+07
2.07698e+07
2.09224e+07
2.1073e+07
2.12253e+07
2.13788e+07
2.15298e+07
2.16775e+07
2.18279e+07
2.19799e+07
2.21277e+07
2.22706e+07
2.24169e+07
2.25652e+07
2.27072e+07
2.28424e+07
2.29816e+07
2.31235e+07
2.32554e+07
2.339e+07
2.35288e+07
2.36594e+07
2.37803e+07
2.39041e+07
2.40325e+07
2.41524e+07
2.4263e+07
2.43759e+07
2.44932e+07
2.46025e+07
2.47023e+07
2.48034e+07
2.4908e+07
2.50054e+07
2.50954e+07
2.51845e+07
2.52747e+07
2.53593e+07
2.54392e+07
2.55158e+07
2.55903e+07
2.56643e+07
2.57365e+07
2.58072e+07
2.58735e+07
2.59379e+07
2.60029e+07
2.6067e+07
2.61264e+07
2.61844e+07
2.62444e+07
2.63016e+07
2.6355e+07
2.6408e+07
2.64633e+07
2.6514e+07
2.65613e+07
2.661e+07
2.66611e+07
2.67041e+07
2.67413e+07
2.67773e+07
2.68116e+07
2.68341e+07
2.68524e+07
2.68709e+07
2.68837e+07
2.6882e+07
2.68504e+07
2.6837e+07
2.68402e+07
2.68167e+07
2.67506e+07
2.67105e+07
2.66977e+07
2.66416e+07
2.65369e+07
2.64535e+07
2.64068e+07
2.63204e+07
2.6204e+07
2.60526e+07
2.59227e+07
2.58207e+07
2.56899e+07
2.55228e+07
2.53759e+07
1.24894e+07
1.26277e+07
1.27662e+07
1.29072e+07
1.30506e+07
1.31939e+07
1.33395e+07
1.34875e+07
1.36354e+07
1.37829e+07
1.39327e+07
1.40847e+07
1.42356e+07
1.43886e+07
1.45439e+07
1.46982e+07
1.48513e+07
1.50065e+07
1.51638e+07
1.53192e+07
1.54764e+07
1.56357e+07
1.57935e+07
1.59496e+07
1.61074e+07
1.62671e+07
1.64244e+07
1.65832e+07
1.67438e+07
1.69025e+07
1.70593e+07
1.72174e+07
1.73771e+07
1.75347e+07
1.76905e+07
1.78474e+07
1.80056e+07
1.81614e+07
1.83182e+07
1.84761e+07
1.86323e+07
1.87867e+07
1.89419e+07
1.90982e+07
1.92528e+07
1.94059e+07
1.95598e+07
1.97146e+07
1.98676e+07
2.00212e+07
2.01758e+07
2.0329e+07
2.04807e+07