/*--------------------------------*- C++ -*----------------------------------*\
| =========                 |                                                 |
| \\      /  F ield         | OpenFOAM: The Open Source CFD Toolbox           |
|  \\    /   O peration     | Version:  v2012                                 |
|   \\  /    A nd           | Website:  www.openfoam.com                      |
|    \\/     M anipulation  |                                                 |
\*---------------------------------------------------------------------------*/
FoamFile
{
    version     2.0;
    format      ascii;
    class       volScalarField;
    location    "1e-06";
    object      pPrime2Mean;
}
// * * * * * * * * * * * * * * * * * * * * * * * * * * * * * * * * * * * * * //

dimensions      [2 -2 -4 0 0 0 0];


internalField   nonuniform List<scalar> 
10098
(
3.48624e+15
3.45649e+15
3.42491e+15
3.39794e+15
3.37748e+15
3.35416e+15
3.32686e+15
3.30439e+15
3.2876e+15
3.26846e+15
3.24329e+15
3.21905e+15
3.48948e+15
3.45959e+15
3.42811e+15
3.40117e+15
3.38048e+15
3.35693e+15
3.32961e+15
3.30715e+15
3.29023e+15
3.27088e+15
3.2456e+15
3.22137e+15
3.49286e+15
3.46287e+15
3.43149e+15
3.40454e+15
3.38362e+15
3.35985e+15
3.33252e+15
3.31006e+15
3.293e+15
3.27342e+15
3.24805e+15
3.22381e+15
3.71517e+15
3.71558e+15
3.71106e+15
3.70034e+15
3.68784e+15
3.67473e+15
3.65594e+15
3.63301e+15
3.60829e+15
3.58227e+15
3.55355e+15
3.52437e+15
3.49643e+15
3.46605e+15
3.4349e+15
3.40823e+15
3.38701e+15
3.36277e+15
3.33542e+15
3.31322e+15
3.29607e+15
3.27603e+15
3.25044e+15
3.2264e+15
3.71596e+15
3.71659e+15
3.71292e+15
3.70256e+15
3.68984e+15
3.67688e+15
3.65886e+15
3.63641e+15
3.6115e+15
3.58546e+15
3.55728e+15
3.52856e+15
3.50031e+15
3.46953e+15
3.43862e+15
3.41237e+15
3.391e+15
3.36628e+15
3.33882e+15
3.31688e+15
3.29969e+15
3.27912e+15
3.25312e+15
3.22915e+15
3.71692e+15
3.71785e+15
3.71465e+15
3.70456e+15
3.692e+15
3.67937e+15
3.66181e+15
3.63965e+15
3.61486e+15
3.58904e+15
3.56119e+15
3.53271e+15
3.50431e+15
3.47337e+15
3.44263e+15
3.41654e+15
3.39506e+15
3.3701e+15
3.34258e+15
3.32066e+15
3.30333e+15
3.28244e+15
3.25614e+15
3.23203e+15
3.71783e+15
3.71897e+15
3.71638e+15
3.70668e+15
3.69415e+15
3.68177e+15
3.6648e+15
3.64303e+15
3.61828e+15
3.59262e+15
3.5652e+15
3.53705e+15
3.50844e+15
3.47727e+15
3.44674e+15
3.42092e+15
3.39932e+15
3.37403e+15
3.34646e+15
3.32465e+15
3.30721e+15
3.2859e+15
3.25927e+15
3.23507e+15
3.71886e+15
3.72028e+15
3.71799e+15
3.70857e+15
3.6964e+15
3.68445e+15
3.66782e+15
3.64629e+15
3.62183e+15
3.59655e+15
3.56939e+15
3.54136e+15
3.51269e+15
3.48152e+15
3.45115e+15
3.42538e+15
3.40367e+15
3.3783e+15
3.35072e+15
3.32879e+15
3.31115e+15
3.2896e+15
3.26275e+15
3.23828e+15
3.72095e+15
3.71974e+15
3.72138e+15
3.71961e+15
3.71058e+15
3.69858e+15
3.68696e+15
3.67086e+15
3.64969e+15
3.62541e+15
3.60042e+15
3.57365e+15
3.54589e+15
3.51708e+15
3.48579e+15
3.45565e+15
3.43007e+15
3.40825e+15
3.38267e+15
3.35509e+15
3.33318e+15
3.31537e+15
3.29346e+15
3.26633e+15
3.24167e+15
3.72228e+15
3.72156e+15
3.7207e+15
3.72266e+15
3.72108e+15
3.7123e+15
3.70083e+15
3.68973e+15
3.67389e+15
3.65289e+15
3.62909e+15
3.60465e+15
3.57809e+15
3.55036e+15
3.52157e+15
3.49044e+15
3.46047e+15
3.43484e+15
3.41293e+15
3.38741e+15
3.35987e+15
3.33774e+15
3.31967e+15
3.2976e+15
3.2703e+15
3.24523e+15
3.71716e+15
3.72284e+15
3.72223e+15
3.72144e+15
3.72365e+15
3.72253e+15
3.71411e+15
3.70295e+15
3.69226e+15
3.6769e+15
3.65625e+15
3.63277e+15
3.60876e+15
3.58258e+15
3.55505e+15
3.52619e+15
3.49509e+15
3.46537e+15
3.43986e+15
3.41786e+15
3.39227e+15
3.36478e+15
3.34257e+15
3.32427e+15
3.30191e+15
3.27438e+15
3.24901e+15
3.70806e+15
3.71763e+15
3.72305e+15
3.72248e+15
3.72223e+15
3.72484e+15
3.72373e+15
3.71549e+15
3.70508e+15
3.6951e+15
3.67985e+15
3.65925e+15
3.63649e+15
3.6133e+15
3.58723e+15
3.55958e+15
3.53089e+15
3.50018e+15
3.47063e+15
3.4449e+15
3.42287e+15
3.39756e+15
3.37019e+15
3.34756e+15
3.32889e+15
3.30655e+15
3.27895e+15
3.25298e+15
3.22687e+15
3.57413e+15
3.59607e+15
3.61846e+15
3.63734e+15
3.65104e+15
3.66543e+15
3.68195e+15
3.69439e+15
3.70094e+15
3.70824e+15
3.71783e+15
3.72321e+15
3.72269e+15
3.72276e+15
3.72571e+15
3.72484e+15
3.71687e+15
3.70702e+15
3.69765e+15
3.68274e+15
3.66233e+15
3.64014e+15
3.61768e+15
3.5919e+15
3.56427e+15
3.53566e+15
3.50526e+15
3.47596e+15
3.45016e+15
3.42811e+15
3.40299e+15
3.37573e+15
3.35282e+15
3.33383e+15
3.31139e+15
3.28366e+15
3.25718e+15
3.23045e+15
3.1997e+15
3.16923e+15
3.13812e+15
3.10189e+15
3.0581e+15
3.0163e+15
3.5773e+15
3.59953e+15
3.621e+15
3.63842e+15
3.65192e+15
3.66681e+15
3.68282e+15
3.69406e+15
3.70053e+15
3.70868e+15
3.71827e+15
3.72278e+15
3.72222e+15
3.72339e+15
3.72697e+15
3.72554e+15
3.71751e+15
3.70897e+15
3.70071e+15
3.68548e+15
3.66475e+15
3.64377e+15
3.62269e+15
3.59677e+15
3.56855e+15
3.54042e+15
3.51096e+15
3.48177e+15
3.4553e+15
3.43331e+15
3.40897e+15
3.38196e+15
3.3582e+15
3.33865e+15
3.31662e+15
3.28908e+15
3.26162e+15
3.23383e+15
3.2029e+15
3.17254e+15
3.14084e+15
3.10359e+15
3.05923e+15
3.01791e+15
3.5816e+15
3.60401e+15
3.62447e+15
3.64058e+15
3.65412e+15
3.66941e+15
3.68465e+15
3.69477e+15
3.70143e+15
3.71036e+15
3.71966e+15
3.72328e+15
3.72296e+15
3.72526e+15
3.72914e+15
3.72708e+15
3.71917e+15
3.71199e+15
3.70458e+15
3.68886e+15
3.6679e+15
3.64817e+15
3.62831e+15
3.60205e+15
3.57327e+15
3.54554e+15
3.51702e+15
3.4878e+15
3.46056e+15
3.43848e+15
3.41494e+15
3.38819e+15
3.36359e+15
3.34345e+15
3.32186e+15
3.29469e+15
3.2664e+15
3.23774e+15
3.20682e+15
3.17653e+15
3.14419e+15
3.10613e+15
3.06173e+15
3.02063e+15
3.58581e+15
3.60757e+15
3.62763e+15
3.64329e+15
3.65634e+15
3.67115e+15
3.68604e+15
3.69594e+15
3.70248e+15
3.71124e+15
3.72043e+15
3.72408e+15
3.72394e+15
3.72645e+15
3.73053e+15
3.72874e+15
3.7212e+15
3.71454e+15
3.70762e+15
3.69222e+15
3.67157e+15
3.65243e+15
3.63318e+15
3.60723e+15
3.57853e+15
3.55083e+15
3.52259e+15
3.49369e+15
3.46639e+15
3.44413e+15
3.42075e+15
3.39428e+15
3.3695e+15
3.34886e+15
3.32714e+15
3.30007e+15
3.27145e+15
3.24223e+15
3.21084e+15
3.18014e+15
3.14747e+15
3.10903e+15
3.06435e+15
3.02302e+15
3.54414e+15
3.56849e+15
3.58986e+15
3.61123e+15
3.63075e+15
3.64568e+15
3.65831e+15
3.67291e+15
3.68736e+15
3.69674e+15
3.70317e+15
3.71204e+15
3.72107e+15
3.72451e+15
3.72453e+15
3.72751e+15
3.73182e+15
3.73009e+15
3.72287e+15
3.71694e+15
3.7106e+15
3.69541e+15
3.675e+15
3.6566e+15
3.63813e+15
3.61243e+15
3.58376e+15
3.55622e+15
3.52848e+15
3.49982e+15
3.47232e+15
3.44996e+15
3.42696e+15
3.40077e+15
3.37568e+15
3.3545e+15
3.33276e+15
3.30586e+15
3.27678e+15
3.2469e+15
3.21497e+15
3.18391e+15
3.15086e+15
3.11191e+15
3.0669e+15
3.02546e+15
3.49403e+15
3.5211e+15
3.54907e+15
3.57324e+15
3.59361e+15
3.61402e+15
3.63341e+15
3.64823e+15
3.66016e+15
3.6739e+15
3.68819e+15
3.69771e+15
3.70388e+15
3.71228e+15
3.72127e+15
3.72504e+15
3.72523e+15
3.72796e+15
3.73242e+15
3.73137e+15
3.72469e+15
3.71886e+15
3.71282e+15
3.69843e+15
3.67871e+15
3.66056e+15
3.64244e+15
3.61742e+15
3.58931e+15
3.56171e+15
3.53393e+15
3.50579e+15
3.47871e+15
3.4562e+15
3.43306e+15
3.40719e+15
3.3823e+15
3.36066e+15
3.33841e+15
3.31147e+15
3.28233e+15
3.25201e+15
3.21917e+15
3.18734e+15
3.15413e+15
3.115e+15
3.06951e+15
3.02757e+15
3.44818e+15
3.47503e+15
3.4995e+15
3.52597e+15
3.55372e+15
3.57746e+15
3.59699e+15
3.61677e+15
3.63588e+15
3.65032e+15
3.66165e+15
3.67483e+15
3.68885e+15
3.69819e+15
3.70418e+15
3.71248e+15
3.72133e+15
3.72508e+15
3.72538e+15
3.72823e+15
3.73285e+15
3.73217e+15
3.72598e+15
3.72056e+15
3.7149e+15
3.70114e+15
3.68204e+15
3.66436e+15
3.64674e+15
3.62234e+15
3.59474e+15
3.56722e+15
3.53971e+15
3.51201e+15
3.48516e+15
3.46257e+15
3.43961e+15
3.41409e+15
3.38921e+15
3.36702e+15
3.34443e+15
3.31754e+15
3.28815e+15
3.25725e+15
3.22346e+15
3.19095e+15
3.15747e+15
3.11799e+15
3.07197e+15
3.02971e+15
3.42322e+15
3.45402e+15
3.48091e+15
3.50428e+15
3.52975e+15
3.55762e+15
3.58136e+15
3.59984e+15
3.61854e+15
3.63767e+15
3.65224e+15
3.66284e+15
3.67525e+15
3.68919e+15
3.69861e+15
3.70438e+15
3.7118e+15
3.72062e+15
3.725e+15
3.72549e+15
3.72789e+15
3.73259e+15
3.73279e+15
3.72728e+15
3.72174e+15
3.71624e+15
3.70357e+15
3.68549e+15
3.66789e+15
3.65036e+15
3.62696e+15
3.60032e+15
3.57276e+15
3.54505e+15
3.51802e+15
3.49196e+15
3.46928e+15
3.44601e+15
3.4209e+15
3.39648e+15
3.37377e+15
3.35039e+15
3.32342e+15
3.29412e+15
3.2628e+15
3.22775e+15
3.1942e+15
3.16062e+15
3.12106e+15
3.07441e+15
3.03148e+15
3.39359e+15
3.42831e+15
3.45905e+15
3.48571e+15
3.5083e+15
3.53314e+15
3.56091e+15
3.58439e+15
3.60204e+15
3.62003e+15
3.63904e+15
3.65346e+15
3.66344e+15
3.67551e+15
3.68934e+15
3.69871e+15
3.70387e+15
3.71092e+15
3.71965e+15
3.72426e+15
3.7249e+15
3.72727e+15
3.73204e+15
3.73277e+15
3.72785e+15
3.72258e+15
3.71736e+15
3.70555e+15
3.68835e+15
3.67113e+15
3.65396e+15
3.63142e+15
3.60562e+15
3.57821e+15
3.55071e+15
3.52428e+15
3.49877e+15
3.47603e+15
3.45291e+15
3.42827e+15
3.40401e+15
3.38064e+15
3.35675e+15
3.3298e+15
3.30032e+15
3.26838e+15
3.23207e+15
3.19762e+15
3.16382e+15
3.12391e+15
3.07659e+15
3.03328e+15
3.39807e+15
3.43211e+15
3.46305e+15
3.4898e+15
3.5114e+15
3.53526e+15
3.5632e+15
3.58677e+15
3.60347e+15
3.62064e+15
3.63974e+15
3.65421e+15
3.6637e+15
3.67459e+15
3.68843e+15
3.69817e+15
3.70306e+15
3.70931e+15
3.71804e+15
3.72331e+15
3.72416e+15
3.72602e+15
3.73082e+15
3.73251e+15
3.72833e+15
3.72289e+15
3.71778e+15
3.70718e+15
3.69119e+15
3.67404e+15
3.65689e+15
3.63552e+15
3.61095e+15
3.58363e+15
3.55593e+15
3.5303e+15
3.50581e+15
3.48302e+15
3.45958e+15
3.43545e+15
3.41174e+15
3.38775e+15
3.36292e+15
3.33593e+15
3.30655e+15
3.2741e+15
3.23629e+15
3.20064e+15
3.16674e+15
3.12669e+15
3.07862e+15
3.0334e+15
3.40148e+15
3.43518e+15
3.46588e+15
3.49234e+15
3.51336e+15
3.53672e+15
3.56452e+15
3.5878e+15
3.60411e+15
3.62104e+15
3.64007e+15
3.65429e+15
3.66287e+15
3.67339e+15
3.68711e+15
3.69671e+15
3.70137e+15
3.70745e+15
3.71615e+15
3.7215e+15
3.72249e+15
3.72446e+15
3.72936e+15
3.73145e+15
3.72779e+15
3.72275e+15
3.71783e+15
3.70816e+15
3.69306e+15
3.67652e+15
3.65989e+15
3.63936e+15
3.61561e+15
3.58875e+15
3.56157e+15
3.53662e+15
3.51267e+15
3.48986e+15
3.46685e+15
3.44335e+15
3.41962e+15
3.39472e+15
3.36945e+15
3.34267e+15
3.31294e+15
3.27961e+15
3.24042e+15
3.20389e+15
3.16965e+15
3.12905e+15
3.0799e+15
3.03345e+15
3.40362e+15
3.43671e+15
3.46736e+15
3.49383e+15
3.51427e+15
3.53732e+15
3.56521e+15
3.58828e+15
3.6036e+15
3.61966e+15
3.6388e+15
3.65311e+15
3.66124e+15
3.67115e+15
3.68492e+15
3.69474e+15
3.69918e+15
3.70478e+15
3.71354e+15
3.71932e+15
3.72052e+15
3.72225e+15
3.72726e+15
3.73006e+15
3.72702e+15
3.72208e+15
3.71751e+15
3.7088e+15
3.69477e+15
3.67862e+15
3.66232e+15
3.64283e+15
3.62016e+15
3.59374e+15
3.56683e+15
3.54269e+15
3.5196e+15
3.49678e+15
3.47383e+15
3.45094e+15
3.42749e+15
3.40171e+15
3.37564e+15
3.34904e+15
3.3192e+15
3.28502e+15
3.24426e+15
3.20666e+15
3.17221e+15
3.13121e+15
3.07994e+15
3.03328e+15
3.40483e+15
3.43802e+15
3.46807e+15
3.49334e+15
3.51391e+15
3.53769e+15
3.56412e+15
3.58607e+15
3.60133e+15
3.61798e+15
3.6367e+15
3.64998e+15
3.65812e+15
3.66878e+15
3.68234e+15
3.69119e+15
3.69558e+15
3.70203e+15
3.71086e+15
3.71584e+15
3.71705e+15
3.71984e+15
3.72533e+15
3.72754e+15
3.72456e+15
3.72099e+15
3.71741e+15
3.70853e+15
3.69453e+15
3.68011e+15
3.66538e+15
3.64609e+15
3.62326e+15
3.59807e+15
3.57295e+15
3.5493e+15
3.52577e+15
3.50304e+15
3.48161e+15
3.4596e+15
3.43516e+15
3.40788e+15
3.3821e+15
3.35636e+15
3.32547e+15
3.28961e+15
3.24777e+15
3.20995e+15
3.17479e+15
3.13124e+15
3.07955e+15
3.03312e+15
3.40702e+15
3.44009e+15
3.46909e+15
3.49385e+15
3.51474e+15
3.53877e+15
3.56451e+15
3.58498e+15
3.60083e+15
3.61813e+15
3.63572e+15
3.64807e+15
3.65665e+15
3.66795e+15
3.6809e+15
3.68878e+15
3.69346e+15
3.70074e+15
3.70929e+15
3.71339e+15
3.71488e+15
3.71879e+15
3.72442e+15
3.72592e+15
3.72319e+15
3.72105e+15
3.71832e+15
3.70915e+15
3.69536e+15
3.68267e+15
3.66937e+15
3.64997e+15
3.6271e+15
3.60339e+15
3.58009e+15
3.55666e+15
3.53263e+15
3.51018e+15
3.49031e+15
3.46908e+15
3.44372e+15
3.4153e+15
3.38993e+15
3.36483e+15
3.33281e+15
3.29562e+15
3.2531e+15
3.2148e+15
3.17874e+15
3.13417e+15
3.08221e+15
3.03593e+15
3.40831e+15
3.44083e+15
3.46959e+15
3.49429e+15
3.51483e+15
3.53744e+15
3.56272e+15
3.58337e+15
3.59876e+15
3.61543e+15
3.63313e+15
3.64585e+15
3.65428e+15
3.66507e+15
3.67803e+15
3.68632e+15
3.69098e+15
3.69782e+15
3.7064e+15
3.71105e+15
3.71283e+15
3.71647e+15
3.72216e+15
3.72438e+15
3.72232e+15
3.72024e+15
3.71771e+15
3.7095e+15
3.69705e+15
3.68478e+15
3.67178e+15
3.65352e+15
3.63192e+15
3.60884e+15
3.58594e+15
3.56344e+15
3.54038e+15
3.51785e+15
3.49791e+15
3.47735e+15
3.45245e+15
3.4232e+15
3.39687e+15
3.37175e+15
3.33972e+15
3.30196e+15
3.25791e+15
3.21824e+15
3.18193e+15
3.13721e+15
3.08465e+15
3.03618e+15
6.87531e+14
7.09304e+14
7.31339e+14
7.53979e+14
7.77224e+14
8.00678e+14
8.24724e+14
8.4939e+14
8.74221e+14
8.99172e+14
9.24734e+14
9.50907e+14
9.77137e+14
1.00396e+15
1.03142e+15
1.0589e+15
1.08637e+15
1.11443e+15
1.14311e+15
1.17171e+15
1.20088e+15
1.23068e+15
1.26038e+15
1.28995e+15
1.32009e+15
1.35081e+15
1.38134e+15
1.41239e+15
1.44402e+15
1.47548e+15
1.5067e+15
1.5384e+15
1.57062e+15
1.6026e+15
1.63437e+15
1.66653e+15
1.69912e+15
1.7315e+15
1.76418e+15
1.79725e+15
1.83014e+15
1.86286e+15
1.89577e+15
1.92896e+15
1.96202e+15
1.995e+15
2.0281e+15
2.06142e+15
2.09475e+15
2.12816e+15
2.16174e+15
2.1954e+15
2.22905e+15
2.26288e+15
2.29696e+15
2.33106e+15
2.36497e+15
2.39924e+15
2.43395e+15
2.4684e+15
2.50226e+15
2.53678e+15
2.57202e+15
2.60646e+15
2.6397e+15
2.67395e+15
2.7092e+15
2.74293e+15
2.77472e+15
2.80777e+15
2.84207e+15
2.87413e+15
2.90719e+15
2.9418e+15
2.97464e+15
3.00526e+15
3.03721e+15
3.07105e+15
3.10318e+15
3.13322e+15
3.16457e+15
3.19774e+15
3.22922e+15
3.25839e+15
3.28876e+15
3.32082e+15
3.35141e+15
3.37928e+15
3.40861e+15
3.43931e+15
3.46731e+15
3.49169e+15
3.51216e+15
3.53453e+15
3.55922e+15
3.57973e+15
3.595e+15
3.61143e+15
3.62909e+15
3.64201e+15
3.65048e+15
3.66117e+15
3.67412e+15
3.68263e+15
3.68737e+15
3.69417e+15
3.7028e+15
3.70778e+15
3.70984e+15
3.71358e+15
3.71937e+15
3.72207e+15
3.72059e+15
3.71887e+15
3.71665e+15
3.70928e+15
3.69799e+15
3.68639e+15
3.67395e+15
3.6567e+15
3.63622e+15
3.61393e+15
3.59182e+15
3.57021e+15
3.54785e+15
3.52528e+15
3.50561e+15
3.48566e+15
3.46089e+15
3.4307e+15
3.40365e+15
3.37852e+15
3.3463e+15
3.30785e+15
3.26224e+15
3.22143e+15
3.18485e+15
3.13966e+15
3.08577e+15
3.03597e+15
6.99867e+14
7.21349e+14
7.43098e+14
7.65456e+14
7.88408e+14
8.11575e+14
8.35342e+14
8.59716e+14
8.84262e+14
9.08942e+14
9.34236e+14
9.60126e+14
9.86086e+14
1.01265e+15
1.03983e+15
1.06704e+15
1.09426e+15
1.12209e+15
1.1505e+15
1.17886e+15
1.2078e+15
1.23734e+15
1.26681e+15
1.29616e+15
1.32608e+15
1.35657e+15
1.38689e+15
1.41772e+15
1.44913e+15
1.48037e+15
1.5114e+15
1.5429e+15
1.57492e+15
1.60672e+15
1.63832e+15
1.67032e+15
1.70274e+15
1.73495e+15
1.76747e+15
1.80039e+15
1.83314e+15
1.86573e+15
1.89853e+15
1.93162e+15
1.9646e+15
1.99752e+15
2.03059e+15
2.06387e+15
2.09718e+15
2.1306e+15
2.1642e+15
2.19788e+15
2.23159e+15
2.26551e+15
2.29966e+15
2.33384e+15
2.36788e+15
2.40233e+15
2.43716e+15
2.47174e+15
2.50581e+15
2.54057e+15
2.57596e+15
2.61058e+15
2.64407e+15
2.67859e+15
2.71401e+15
2.74789e+15
2.77994e+15
2.81323e+15
2.84767e+15
2.87988e+15
2.9131e+15
2.94779e+15
2.98061e+15
3.01116e+15
3.04295e+15
3.07651e+15
3.10829e+15
3.13798e+15
3.16879e+15
3.20127e+15
3.23212e+15
3.2608e+15
3.29034e+15
3.32174e+15
3.35203e+15
3.3798e+15
3.40795e+15
3.437e+15
3.46432e+15
3.48852e+15
3.50859e+15
3.53024e+15
3.55449e+15
3.57511e+15
3.59001e+15
3.60581e+15
3.62358e+15
3.63716e+15
3.64558e+15
3.65573e+15
3.66888e+15
3.67818e+15
3.68302e+15
3.68927e+15
3.6981e+15
3.70403e+15
3.70648e+15
3.70974e+15
3.71562e+15
3.71946e+15
3.71874e+15
3.71681e+15
3.71471e+15
3.70886e+15
3.69913e+15
3.68765e+15
3.67525e+15
3.65956e+15
3.64081e+15
3.61897e+15
3.59698e+15
3.57658e+15
3.55556e+15
3.53277e+15
3.51245e+15
3.49304e+15
3.46898e+15
3.43798e+15
3.40949e+15
3.38402e+15
3.35213e+15
3.31334e+15
3.26586e+15
3.22342e+15
3.18696e+15
3.14172e+15
3.08568e+15
3.03521e+15
7.12627e+14
7.33807e+14
7.55266e+14
7.77325e+14
7.99977e+14
8.22852e+14
8.46315e+14
8.7039e+14
8.94646e+14
9.19052e+14
9.44063e+14
9.69661e+14
9.95348e+14
1.02163e+15
1.04852e+15
1.07547e+15
1.10244e+15
1.13e+15
1.15815e+15
1.18626e+15
1.21494e+15
1.24424e+15
1.27346e+15
1.30259e+15
1.33228e+15
1.36253e+15
1.39263e+15
1.42323e+15
1.45441e+15
1.48544e+15
1.51628e+15
1.54759e+15
1.57941e+15
1.61102e+15
1.64245e+15
1.67429e+15
1.70654e+15
1.73859e+15
1.77096e+15
1.80373e+15
1.83635e+15
1.86882e+15
1.90152e+15
1.93451e+15
1.96742e+15
2.00027e+15
2.0333e+15
2.06656e+15
2.09984e+15
2.13327e+15
2.16689e+15
2.20058e+15
2.23432e+15
2.26829e+15
2.30251e+15
2.33675e+15
2.37089e+15
2.40544e+15
2.44038e+15
2.47506e+15
2.50929e+15
2.54421e+15
2.57973e+15
2.61446e+15
2.64815e+15
2.68283e+15
2.71835e+15
2.75235e+15
2.78462e+15
2.81809e+15
2.8526e+15
2.88493e+15
2.91825e+15
2.95295e+15
2.98573e+15
3.01622e+15
3.04785e+15
3.08111e+15
3.11255e+15
3.14188e+15
3.17221e+15
3.20403e+15
3.2342e+15
3.26232e+15
3.29136e+15
3.32208e+15
3.35143e+15
3.37813e+15
3.40525e+15
3.43311e+15
3.45954e+15
3.48321e+15
3.50316e+15
3.52429e+15
3.54778e+15
3.56817e+15
3.58309e+15
3.59867e+15
3.6163e+15
3.63027e+15
3.63895e+15
3.64911e+15
3.66234e+15
3.67212e+15
3.67724e+15
3.68354e+15
3.69256e+15
3.69905e+15
3.70191e+15
3.70528e+15
3.71134e+15
3.71579e+15
3.71584e+15
3.71419e+15
3.71246e+15
3.70769e+15
3.69905e+15
3.68839e+15
3.67651e+15
3.66209e+15
3.64468e+15
3.62354e+15
3.60232e+15
3.58302e+15
3.56285e+15
3.53973e+15
3.51931e+15
3.50042e+15
3.4764e+15
3.44432e+15
3.41487e+15
3.38922e+15
3.35718e+15
3.31776e+15
3.26868e+15
3.22476e+15
3.18713e+15
3.14141e+15
3.08502e+15
3.03422e+15
7.25845e+14
7.46725e+14
7.6787e+14
7.89635e+14
8.11986e+14
8.34542e+14
8.57711e+14
8.81493e+14
9.05442e+14
9.29545e+14
9.54273e+14
9.79585e+14
1.00497e+15
1.03097e+15
1.05759e+15
1.08425e+15
1.11094e+15
1.13824e+15
1.16613e+15
1.19396e+15
1.22239e+15
1.25144e+15
1.2804e+15
1.30928e+15
1.33874e+15
1.36876e+15
1.39861e+15
1.429e+15
1.45996e+15
1.49077e+15
1.52139e+15
1.5525e+15
1.58413e+15
1.61555e+15
1.6468e+15
1.67847e+15
1.71056e+15
1.74245e+15
1.77467e+15
1.8073e+15
1.83979e+15
1.87213e+15
1.90473e+15
1.93764e+15
1.97046e+15
2.00324e+15
2.03623e+15
2.06946e+15
2.1027e+15
2.13612e+15
2.16977e+15
2.20346e+15
2.2372e+15
2.27122e+15
2.30551e+15
2.33977e+15
2.37396e+15
2.40862e+15
2.44365e+15
2.47838e+15
2.5127e+15
2.54777e+15
2.58339e+15
2.61817e+15
2.65197e+15
2.6868e+15
2.7224e+15
2.75646e+15
2.78885e+15
2.82248e+15
2.85706e+15
2.88942e+15
2.9228e+15
2.95753e+15
2.99027e+15
3.02063e+15
3.05209e+15
3.08511e+15
3.11626e+15
3.1452e+15
3.17503e+15
3.2063e+15
3.23587e+15
3.26351e+15
3.29197e+15
3.32218e+15
3.35021e+15
3.37615e+15
3.40226e+15
3.42905e+15
3.45455e+15
3.47765e+15
3.49739e+15
3.51785e+15
3.54046e+15
3.56052e+15
3.5754e+15
3.59053e+15
3.60792e+15
3.62237e+15
3.63133e+15
3.64119e+15
3.65453e+15
3.66513e+15
3.67063e+15
3.67666e+15
3.68593e+15
3.69342e+15
3.69682e+15
3.69993e+15
3.70615e+15
3.71167e+15
3.71265e+15
3.71094e+15
3.70949e+15
3.70613e+15
3.69886e+15
3.6885e+15
3.67719e+15
3.66434e+15
3.64854e+15
3.62792e+15
3.60706e+15
3.58906e+15
3.57003e+15
3.54634e+15
3.52518e+15
3.50681e+15
3.48312e+15
3.44994e+15
3.41904e+15
3.39318e+15
3.36123e+15
3.32132e+15
3.26988e+15
3.22427e+15
3.18668e+15
3.14075e+15
3.08397e+15
3.03256e+15
7.39476e+14
7.60041e+14
7.80886e+14
8.02331e+14
8.24361e+14
8.46624e+14
8.69466e+14
8.92916e+14
9.16565e+14
9.40373e+14
9.64799e+14
9.89803e+14
1.01491e+15
1.0406e+15
1.06691e+15
1.09329e+15
1.1197e+15
1.14674e+15
1.17434e+15
1.20192e+15
1.23007e+15
1.25883e+15
1.28755e+15
1.31618e+15
1.3454e+15
1.37517e+15
1.40481e+15
1.43494e+15
1.46566e+15
1.49626e+15
1.52668e+15
1.55759e+15
1.58901e+15
1.62025e+15
1.65132e+15
1.68283e+15
1.71475e+15
1.74649e+15
1.77856e+15
1.81106e+15
1.84343e+15
1.87566e+15
1.90816e+15
1.94099e+15
1.97374e+15
2.00644e+15
2.03938e+15
2.07259e+15
2.1058e+15
2.13921e+15
2.17286e+15
2.20657e+15
2.24029e+15
2.27433e+15
2.30865e+15
2.34295e+15
2.37714e+15
2.41183e+15
2.44691e+15
2.48169e+15
2.51602e+15
2.55113e+15
2.58679e+15
2.62161e+15
2.65544e+15
2.69034e+15
2.72596e+15
2.76004e+15
2.79252e+15
2.82627e+15
2.86087e+15
2.89327e+15
2.92657e+15
2.96124e+15
2.99393e+15
3.02422e+15
3.05546e+15
3.08827e+15
3.11913e+15
3.14772e+15
3.17709e+15
3.20796e+15
3.23714e+15
3.26431e+15
3.29209e+15
3.32059e+15
3.3481e+15
3.37331e+15
3.39846e+15
3.42413e+15
3.44844e+15
3.47061e+15
3.49024e+15
3.5102e+15
3.53146e+15
3.5506e+15
3.56583e+15
3.58118e+15
3.5978e+15
3.61186e+15
3.62162e+15
3.63238e+15
3.64543e+15
3.65577e+15
3.66201e+15
3.66922e+15
3.67868e+15
3.6859e+15
3.68981e+15
3.69419e+15
3.70095e+15
3.70613e+15
3.70746e+15
3.70719e+15
3.70692e+15
3.70368e+15
3.69684e+15
3.68825e+15
3.67875e+15
3.66645e+15
3.65088e+15
3.63143e+15
3.61265e+15
3.59562e+15
3.57621e+15
3.55174e+15
3.53121e+15
3.51351e+15
3.48864e+15
3.45368e+15
3.42245e+15
3.39707e+15
3.364e+15
3.32136e+15
3.26936e+15
3.22385e+15
3.18599e+15
3.13915e+15
3.082e+15
3.03056e+15
7.53843e+14
7.74105e+14
7.94657e+14
8.1579e+14
8.37508e+14
8.59471e+14
8.82007e+14
9.05141e+14
9.2849e+14
9.52015e+14
9.7613e+14
1.00083e+15
1.02565e+15
1.05105e+15
1.07705e+15
1.10315e+15
1.1293e+15
1.15604e+15
1.18336e+15
1.21068e+15
1.23856e+15
1.26704e+15
1.29549e+15
1.32389e+15
1.35285e+15
1.38236e+15
1.41176e+15
1.44166e+15
1.47212e+15
1.50248e+15
1.53269e+15
1.56338e+15
1.59458e+15
1.62562e+15
1.65651e+15
1.68782e+15
1.71956e+15
1.75113e+15
1.78304e+15
1.81538e+15
1.84759e+15
1.87969e+15
1.91207e+15
1.94479e+15
1.97745e+15
2.01005e+15
2.04292e+15
2.07608e+15
2.10923e+15
2.14262e+15
2.17628e+15
2.20999e+15
2.2437e+15
2.27774e+15
2.31212e+15
2.34646e+15
2.3807e+15
2.41542e+15
2.45058e+15
2.48544e+15
2.51988e+15
2.55503e+15
2.59075e+15
2.62568e+15
2.65967e+15
2.69459e+15
2.73023e+15
2.76443e+15
2.7971e+15
2.83085e+15
2.8654e+15
2.89792e+15
2.9313e+15
2.96581e+15
2.99835e+15
3.0286e+15
3.05976e+15
3.09221e+15
3.12266e+15
3.15092e+15
3.17995e+15
3.21017e+15
3.23859e+15
3.26528e+15
3.29257e+15
3.32069e+15
3.34674e+15
3.37104e+15
3.39533e+15
3.4199e+15
3.44296e+15
3.46418e+15
3.4837e+15
3.50315e+15
3.52296e+15
3.54114e+15
3.55698e+15
3.57251e+15
3.58818e+15
3.6019e+15
3.61294e+15
3.62449e+15
3.63694e+15
3.64715e+15
3.65457e+15
3.66284e+15
3.67214e+15
3.67922e+15
3.68396e+15
3.68951e+15
3.69641e+15
3.70135e+15
3.70324e+15
3.70438e+15
3.70491e+15
3.70187e+15
3.69568e+15
3.68892e+15
3.68097e+15
3.66929e+15
3.65426e+15
3.63608e+15
3.61919e+15
3.60328e+15
3.58386e+15
3.55909e+15
3.53906e+15
3.52185e+15
3.49595e+15
3.45983e+15
3.42845e+15
3.40283e+15
3.36845e+15
3.32492e+15
3.27262e+15
3.22647e+15
3.18611e+15
3.13826e+15
3.08106e+15
3.02969e+15
7.68675e+14
7.8862e+14
8.08865e+14
8.29692e+14
8.51085e+14
8.72739e+14
8.94971e+14
9.17776e+14
9.40809e+14
9.64036e+14
9.8785e+14
1.01223e+15
1.03676e+15
1.06186e+15
1.08755e+15
1.11334e+15
1.13922e+15
1.16568e+15
1.1927e+15
1.21975e+15
1.24735e+15
1.27553e+15
1.30372e+15
1.33187e+15
1.36057e+15
1.38981e+15
1.41897e+15
1.44863e+15
1.47883e+15
1.50894e+15
1.53894e+15
1.56942e+15
1.60038e+15
1.63121e+15
1.66192e+15
1.69305e+15
1.72459e+15
1.75598e+15
1.78774e+15
1.81991e+15
1.85197e+15
1.88393e+15
1.91619e+15
1.9488e+15
1.98135e+15
2.01386e+15
2.04666e+15
2.07976e+15
2.11285e+15
2.14621e+15
2.17986e+15
2.21354e+15
2.24723e+15
2.28128e+15
2.31567e+15
2.35003e+15
2.38428e+15
2.41904e+15
2.45423e+15
2.48913e+15
2.52362e+15
2.55882e+15
2.59455e+15
2.62953e+15
2.66362e+15
2.69858e+15
2.73418e+15
2.76844e+15
2.80124e+15
2.83501e+15
2.86951e+15
2.90207e+15
2.93543e+15
2.96978e+15
3.00219e+15
3.03237e+15
3.06337e+15
3.09548e+15
3.12561e+15
3.15357e+15
3.18217e+15
3.21178e+15
3.23976e+15
3.26603e+15
3.29282e+15
3.32019e+15
3.34519e+15
3.36866e+15
3.39205e+15
3.41559e+15
3.43768e+15
3.45818e+15
3.47725e+15
3.49596e+15
3.51477e+15
3.53244e+15
3.54834e+15
3.56353e+15
3.57868e+15
3.59259e+15
3.60429e+15
3.61585e+15
3.62808e+15
3.63887e+15
3.64706e+15
3.6554e+15
3.66473e+15
3.67265e+15
3.67819e+15
3.68379e+15
3.69077e+15
3.69659e+15
3.69941e+15
3.70078e+15
3.70166e+15
3.69999e+15
3.69524e+15
3.68895e+15
3.68181e+15
3.67182e+15
3.6583e+15
3.64039e+15
3.62404e+15
3.60968e+15
3.5912e+15
3.56573e+15
3.54493e+15
3.52811e+15
3.50226e+15
3.46528e+15
3.43274e+15
3.40645e+15
3.37168e+15
3.32794e+15
3.27438e+15
3.22605e+15
3.18533e+15
3.13728e+15
3.08001e+15
3.02819e+15
7.83935e+14
8.03558e+14
8.2349e+14
8.43993e+14
8.65062e+14
8.86398e+14
9.08299e+14
9.30783e+14
9.53497e+14
9.76419e+14
9.99917e+14
1.02398e+15
1.0482e+15
1.07298e+15
1.09836e+15
1.12385e+15
1.14944e+15
1.1756e+15
1.20232e+15
1.22908e+15
1.2564e+15
1.28429e+15
1.3122e+15
1.34009e+15
1.36853e+15
1.39749e+15
1.4264e+15
1.45581e+15
1.48575e+15
1.51563e+15
1.54541e+15
1.57566e+15
1.6064e+15
1.63701e+15
1.66754e+15
1.69848e+15
1.72983e+15
1.76105e+15
1.79265e+15
1.82466e+15
1.85657e+15
1.8884e+15
1.92054e+15
1.95305e+15
1.98549e+15
2.0179e+15
2.05063e+15
2.08366e+15
2.11668e+15
2.15e+15
2.18365e+15
2.21729e+15
2.25094e+15
2.28497e+15
2.31937e+15
2.35371e+15
2.38795e+15
2.4227e+15
2.45789e+15
2.49278e+15
2.52728e+15
2.56246e+15
2.59816e+15
2.63313e+15
2.66726e+15
2.7022e+15
2.73774e+15
2.77199e+15
2.80485e+15
2.8386e+15
2.87301e+15
2.90556e+15
2.93885e+15
2.97303e+15
3.00531e+15
3.0354e+15
3.06621e+15
3.09802e+15
3.12786e+15
3.15553e+15
3.18374e+15
3.213e+15
3.24058e+15
3.26646e+15
3.29276e+15
3.31886e+15
3.34326e+15
3.36601e+15
3.38859e+15
3.41121e+15
3.43242e+15
3.45215e+15
3.47065e+15
3.48864e+15
3.50649e+15
3.52345e+15
3.53921e+15
3.55403e+15
3.56849e+15
3.58226e+15
3.59452e+15
3.60617e+15
3.61804e+15
3.62918e+15
3.63825e+15
3.64693e+15
3.65623e+15
3.66483e+15
3.67129e+15
3.67728e+15
3.68433e+15
3.69088e+15
3.69463e+15
3.69651e+15
3.69788e+15
3.69748e+15
3.69402e+15
3.68865e+15
3.68254e+15
3.67414e+15
3.66199e+15
3.64424e+15
3.62863e+15
3.61575e+15
3.59781e+15
3.57143e+15
3.54999e+15
3.53332e+15
3.50717e+15
3.46916e+15
3.43572e+15
3.4086e+15
3.37268e+15
3.32767e+15
3.27365e+15
3.22507e+15
3.18396e+15
3.13557e+15
3.07811e+15
3.02582e+15
7.99654e+14
8.18957e+14
8.38555e+14
8.5874e+14
8.79485e+14
9.00481e+14
9.22062e+14
9.44222e+14
9.66602e+14
9.89189e+14
1.01237e+15
1.03612e+15
1.06e+15
1.08448e+15
1.10954e+15
1.13472e+15
1.15999e+15
1.18586e+15
1.21228e+15
1.23874e+15
1.26577e+15
1.29338e+15
1.32099e+15
1.3486e+15
1.37677e+15
1.40547e+15
1.4341e+15
1.46326e+15
1.49296e+15
1.52258e+15
1.55212e+15
1.58215e+15
1.61267e+15
1.64307e+15
1.67338e+15
1.70413e+15
1.73531e+15
1.76634e+15
1.79778e+15
1.82964e+15
1.8614e+15
1.89308e+15
1.9251e+15
1.9575e+15
1.98983e+15
2.02214e+15
2.05478e+15
2.08775e+15
2.12069e+15
2.15396e+15
2.18758e+15
2.22118e+15
2.25476e+15
2.28877e+15
2.32316e+15
2.35745e+15
2.39163e+15
2.42637e+15
2.46153e+15
2.49637e+15
2.53082e+15
2.56598e+15
2.60165e+15
2.63656e+15
2.67065e+15
2.70556e+15
2.74106e+15
2.77523e+15
2.80805e+15
2.84177e+15
2.87613e+15
2.90856e+15
2.94173e+15
2.97578e+15
3.00793e+15
3.03783e+15
3.0684e+15
3.09996e+15
3.12957e+15
3.15698e+15
3.18495e+15
3.21389e+15
3.24106e+15
3.26658e+15
3.29173e+15
3.31724e+15
3.34113e+15
3.36323e+15
3.38504e+15
3.40689e+15
3.42736e+15
3.44642e+15
3.46433e+15
3.48162e+15
3.49871e+15
3.51513e+15
3.53065e+15
3.54505e+15
3.55897e+15
3.57264e+15
3.58529e+15
3.5969e+15
3.60843e+15
3.61988e+15
3.62969e+15
3.63854e+15
3.64778e+15
3.65707e+15
3.6644e+15
3.67058e+15
3.67767e+15
3.68506e+15
3.68974e+15
3.69195e+15
3.69373e+15
3.69472e+15
3.69258e+15
3.68792e+15
3.68252e+15
3.6759e+15
3.66496e+15
3.64707e+15
3.63187e+15
3.62042e+15
3.60296e+15
3.57565e+15
3.55329e+15
3.53675e+15
3.51067e+15
3.47159e+15
3.43607e+15
3.4083e+15
3.37211e+15
3.32684e+15
3.27241e+15
3.2233e+15
3.18165e+15
3.13316e+15
3.07548e+15
3.02221e+15
8.15778e+14
8.34746e+14
8.54023e+14
8.73868e+14
8.94268e+14
9.14945e+14
9.36174e+14
9.57979e+14
9.8003e+14
1.0023e+15
1.02515e+15
1.04855e+15
1.07213e+15
1.09627e+15
1.12099e+15
1.14585e+15
1.17082e+15
1.19638e+15
1.22248e+15
1.24865e+15
1.27536e+15
1.30266e+15
1.32999e+15
1.35732e+15
1.38522e+15
1.41364e+15
1.44202e+15
1.47089e+15
1.50033e+15
1.52971e+15
1.55902e+15
1.58881e+15
1.61911e+15
1.64929e+15
1.67941e+15
1.70998e+15
1.74096e+15
1.77183e+15
1.80309e+15
1.83481e+15
1.86643e+15
1.89796e+15
1.92986e+15
1.96216e+15
1.99438e+15
2.02657e+15
2.05913e+15
2.09203e+15
2.1249e+15
2.1581e+15
2.19167e+15
2.22523e+15
2.25873e+15
2.29267e+15
2.32702e+15
2.36127e+15
2.39536e+15
2.43001e+15
2.46512e+15
2.49989e+15
2.53424e+15
2.56931e+15
2.60488e+15
2.6397e+15
2.67369e+15
2.70851e+15
2.74389e+15
2.77796e+15
2.81069e+15
2.84435e+15
2.87857e+15
2.91092e+15
2.94387e+15
2.97772e+15
3.00973e+15
3.03955e+15
3.06999e+15
3.10141e+15
3.13085e+15
3.15809e+15
3.18581e+15
3.21443e+15
3.24114e+15
3.26544e+15
3.28996e+15
3.31521e+15
3.3387e+15
3.36021e+15
3.38136e+15
3.40259e+15
3.42239e+15
3.4408e+15
3.45819e+15
3.4749e+15
3.49129e+15
3.50709e+15
3.52231e+15
3.53629e+15
3.54958e+15
3.56289e+15
3.5758e+15
3.58739e+15
3.59843e+15
3.60976e+15
3.62029e+15
3.62964e+15
3.6387e+15
3.64813e+15
3.65631e+15
3.6634e+15
3.67065e+15
3.67819e+15
3.6835e+15
3.6869e+15
3.68957e+15
3.69129e+15
3.68977e+15
3.6866e+15
3.68295e+15
3.67737e+15
3.66698e+15
3.64899e+15
3.63482e+15
3.62436e+15
3.60645e+15
3.57803e+15
3.55531e+15
3.53865e+15
3.51078e+15
3.47113e+15
3.43542e+15
3.40731e+15
3.37041e+15
3.32431e+15
3.26998e+15
3.22066e+15
3.17784e+15
3.12843e+15
3.0708e+15
3.01773e+15
8.32639e+14
8.51285e+14
8.70247e+14
8.89762e+14
9.09832e+14
9.30182e+14
9.5108e+14
9.7255e+14
9.94276e+14
1.01623e+15
1.03874e+15
1.06182e+15
1.08508e+15
1.10889e+15
1.13329e+15
1.15783e+15
1.1825e+15
1.20774e+15
1.23353e+15
1.2594e+15
1.28581e+15
1.3128e+15
1.33983e+15
1.3669e+15
1.39449e+15
1.42263e+15
1.45075e+15
1.47936e+15
1.50851e+15
1.53763e+15
1.5667e+15
1.59625e+15
1.6263e+15
1.65627e+15
1.68617e+15
1.71651e+15
1.7473e+15
1.77799e+15
1.80907e+15
1.8406e+15
1.87206e+15
1.90344e+15
1.93519e+15
1.96735e+15
1.99946e+15
2.03153e+15
2.06397e+15
2.09679e+15
2.12956e+15