/*--------------------------------*- C++ -*----------------------------------*\
| =========                 |                                                 |
| \\      /  F ield         | OpenFOAM: The Open Source CFD Toolbox           |
|  \\    /   O peration     | Version:  v2012                                 |
|   \\  /    A nd           | Website:  www.openfoam.com                      |
|    \\/     M anipulation  |                                                 |
\*---------------------------------------------------------------------------*/
FoamFile
{
    version     2.0;
    format      ascii;
    class       volScalarField;
    location    "1e-06";
    object      totalPPrime2Mean;
}
// * * * * * * * * * * * * * * * * * * * * * * * * * * * * * * * * * * * * * //

dimensions      [2 -2 -4 0 0 0 0];


internalField   nonuniform List<scalar> 
10098
(
3.48624e+15
3.45649e+15
3.42491e+15
3.39794e+15
3.37748e+15
3.35416e+15
3.32686e+15
3.30439e+15
3.2876e+15
3.26846e+15
3.24329e+15
3.21905e+15
3.48948e+15
3.45959e+15
3.42812e+15
3.40117e+15
3.38048e+15
3.35693e+15
3.32961e+15
3.30715e+15
3.29024e+15
3.27088e+15
3.2456e+15
3.22137e+15
3.49286e+15
3.46287e+15
3.4315e+15
3.40455e+15
3.38362e+15
3.35986e+15
3.33252e+15
3.31007e+15
3.293e+15
3.27342e+15
3.24806e+15
3.22381e+15
3.71518e+15
3.71558e+15
3.71106e+15
3.70034e+15
3.68784e+15
3.67473e+15
3.65595e+15
3.63301e+15
3.60829e+15
3.58227e+15
3.55355e+15
3.52437e+15
3.49643e+15
3.46605e+15
3.4349e+15
3.40824e+15
3.38701e+15
3.36277e+15
3.33542e+15
3.31323e+15
3.29607e+15
3.27603e+15
3.25044e+15
3.2264e+15
3.71596e+15
3.71659e+15
3.71292e+15
3.70256e+15
3.68984e+15
3.67688e+15
3.65886e+15
3.63642e+15
3.61151e+15
3.58546e+15
3.55728e+15
3.52856e+15
3.50031e+15
3.46953e+15
3.43862e+15
3.41237e+15
3.391e+15
3.36628e+15
3.33882e+15
3.31689e+15
3.29969e+15
3.27912e+15
3.25312e+15
3.22915e+15
3.71693e+15
3.71785e+15
3.71465e+15
3.70457e+15
3.692e+15
3.67938e+15
3.66182e+15
3.63965e+15
3.61486e+15
3.58904e+15
3.56119e+15
3.53271e+15
3.50431e+15
3.47337e+15
3.44263e+15
3.41655e+15
3.39507e+15
3.3701e+15
3.34258e+15
3.32066e+15
3.30334e+15
3.28244e+15
3.25614e+15
3.23203e+15
3.71783e+15
3.71897e+15
3.71638e+15
3.70668e+15
3.69415e+15
3.68177e+15
3.66481e+15
3.64304e+15
3.61828e+15
3.59262e+15
3.5652e+15
3.53705e+15
3.50845e+15
3.47727e+15
3.44674e+15
3.42093e+15
3.39932e+15
3.37404e+15
3.34646e+15
3.32465e+15
3.30721e+15
3.2859e+15
3.25927e+15
3.23508e+15
3.71886e+15
3.72029e+15
3.718e+15
3.70857e+15
3.6964e+15
3.68446e+15
3.66783e+15
3.64629e+15
3.62183e+15
3.59656e+15
3.56939e+15
3.54136e+15
3.51269e+15
3.48153e+15
3.45115e+15
3.42538e+15
3.40367e+15
3.3783e+15
3.35072e+15
3.32879e+15
3.31116e+15
3.2896e+15
3.26275e+15
3.23828e+15
3.72095e+15
3.71974e+15
3.72139e+15
3.71962e+15
3.71058e+15
3.69859e+15
3.68696e+15
3.67086e+15
3.64969e+15
3.62542e+15
3.60042e+15
3.57365e+15
3.54589e+15
3.51708e+15
3.4858e+15
3.45565e+15
3.43007e+15
3.40825e+15
3.38267e+15
3.35509e+15
3.33318e+15
3.31538e+15
3.29346e+15
3.26633e+15
3.24167e+15
3.72228e+15
3.72157e+15
3.7207e+15
3.72266e+15
3.72109e+15
3.7123e+15
3.70083e+15
3.68974e+15
3.6739e+15
3.6529e+15
3.62909e+15
3.60466e+15
3.5781e+15
3.55037e+15
3.52157e+15
3.49045e+15
3.46048e+15
3.43484e+15
3.41294e+15
3.38741e+15
3.35988e+15
3.33775e+15
3.31967e+15
3.2976e+15
3.2703e+15
3.24524e+15
3.71716e+15
3.72284e+15
3.72223e+15
3.72144e+15
3.72365e+15
3.72254e+15
3.71411e+15
3.70295e+15
3.69226e+15
3.67691e+15
3.65625e+15
3.63277e+15
3.60876e+15
3.58258e+15
3.55505e+15
3.5262e+15
3.49509e+15
3.46537e+15
3.43986e+15
3.41787e+15
3.39227e+15
3.36478e+15
3.34257e+15
3.32427e+15
3.30192e+15
3.27438e+15
3.24901e+15
3.70807e+15
3.71763e+15
3.72305e+15
3.72248e+15
3.72224e+15
3.72485e+15
3.72373e+15
3.71549e+15
3.70509e+15
3.6951e+15
3.67986e+15
3.65925e+15
3.63649e+15
3.6133e+15
3.58724e+15
3.55958e+15
3.53089e+15
3.50019e+15
3.47063e+15
3.4449e+15
3.42287e+15
3.39756e+15
3.37019e+15
3.34756e+15
3.3289e+15
3.30656e+15
3.27895e+15
3.25298e+15
3.22688e+15
3.57413e+15
3.59607e+15
3.61847e+15
3.63734e+15
3.65104e+15
3.66543e+15
3.68195e+15
3.69439e+15
3.70095e+15
3.70825e+15
3.71784e+15
3.72321e+15
3.72269e+15
3.72276e+15
3.72571e+15
3.72484e+15
3.71688e+15
3.70703e+15
3.69765e+15
3.68274e+15
3.66233e+15
3.64014e+15
3.61768e+15
3.59191e+15
3.56427e+15
3.53567e+15
3.50527e+15
3.47597e+15
3.45016e+15
3.42811e+15
3.40299e+15
3.37574e+15
3.35282e+15
3.33383e+15
3.3114e+15
3.28367e+15
3.25718e+15
3.23045e+15
3.1997e+15
3.16923e+15
3.13813e+15
3.1019e+15
3.05811e+15
3.01631e+15
3.5773e+15
3.59954e+15
3.621e+15
3.63842e+15
3.65193e+15
3.66682e+15
3.68282e+15
3.69406e+15
3.70054e+15
3.70868e+15
3.71828e+15
3.72279e+15
3.72222e+15
3.72339e+15
3.72697e+15
3.72555e+15
3.71752e+15
3.70897e+15
3.70071e+15
3.68549e+15
3.66475e+15
3.64377e+15
3.62269e+15
3.59677e+15
3.56855e+15
3.54042e+15
3.51096e+15
3.48177e+15
3.45531e+15
3.43332e+15
3.40897e+15
3.38197e+15
3.3582e+15
3.33865e+15
3.31662e+15
3.28908e+15
3.26162e+15
3.23384e+15
3.2029e+15
3.17255e+15
3.14084e+15
3.1036e+15
3.05923e+15
3.01791e+15
3.58161e+15
3.60401e+15
3.62448e+15
3.64059e+15
3.65412e+15
3.66942e+15
3.68465e+15
3.69477e+15
3.70144e+15
3.71036e+15
3.71966e+15
3.72328e+15
3.72297e+15
3.72526e+15
3.72914e+15
3.72709e+15
3.71917e+15
3.71199e+15
3.70458e+15
3.68887e+15
3.6679e+15
3.64818e+15
3.62831e+15
3.60206e+15
3.57328e+15
3.54554e+15
3.51702e+15
3.48781e+15
3.46057e+15
3.43849e+15
3.41494e+15
3.38819e+15
3.3636e+15
3.34345e+15
3.32186e+15
3.29469e+15
3.2664e+15
3.23774e+15
3.20682e+15
3.17653e+15
3.1442e+15
3.10613e+15
3.06174e+15
3.02063e+15
3.58581e+15
3.60757e+15
3.62763e+15
3.64329e+15
3.65634e+15
3.67116e+15
3.68605e+15
3.69594e+15
3.70248e+15
3.71124e+15
3.72043e+15
3.72408e+15
3.72395e+15
3.72645e+15
3.73053e+15
3.72875e+15
3.72121e+15
3.71454e+15
3.70762e+15
3.69223e+15
3.67157e+15
3.65243e+15
3.63318e+15
3.60723e+15
3.57854e+15
3.55084e+15
3.5226e+15
3.49369e+15
3.46639e+15
3.44413e+15
3.42075e+15
3.39428e+15
3.3695e+15
3.34886e+15
3.32714e+15
3.30007e+15
3.27145e+15
3.24223e+15
3.21085e+15
3.18014e+15
3.14747e+15
3.10904e+15
3.06436e+15
3.02302e+15
3.54414e+15
3.5685e+15
3.58986e+15
3.61124e+15
3.63076e+15
3.64569e+15
3.65832e+15
3.67292e+15
3.68737e+15
3.69674e+15
3.70318e+15
3.71204e+15
3.72108e+15
3.72451e+15
3.72454e+15
3.72752e+15
3.73182e+15
3.7301e+15
3.72287e+15
3.71695e+15
3.71061e+15
3.69542e+15
3.675e+15
3.6566e+15
3.63814e+15
3.61243e+15
3.58377e+15
3.55622e+15
3.52848e+15
3.49983e+15
3.47233e+15
3.44997e+15
3.42697e+15
3.40077e+15
3.37568e+15
3.35451e+15
3.33277e+15
3.30586e+15
3.27678e+15
3.2469e+15
3.21498e+15
3.18392e+15
3.15087e+15
3.11191e+15
3.0669e+15
3.02546e+15
3.49403e+15
3.5211e+15
3.54908e+15
3.57325e+15
3.59361e+15
3.61403e+15
3.63341e+15
3.64824e+15
3.66017e+15
3.6739e+15
3.6882e+15
3.69771e+15
3.70388e+15
3.71229e+15
3.72127e+15
3.72504e+15
3.72523e+15
3.72796e+15
3.73242e+15
3.73138e+15
3.72469e+15
3.71886e+15
3.71283e+15
3.69843e+15
3.67871e+15
3.66056e+15
3.64244e+15
3.61742e+15
3.58932e+15
3.56171e+15
3.53394e+15
3.5058e+15
3.47871e+15
3.45621e+15
3.43307e+15
3.40719e+15
3.38231e+15
3.36066e+15
3.33841e+15
3.31147e+15
3.28234e+15
3.25201e+15
3.21917e+15
3.18735e+15
3.15413e+15
3.115e+15
3.06951e+15
3.02757e+15
3.44819e+15
3.47503e+15
3.49951e+15
3.52598e+15
3.55373e+15
3.57747e+15
3.597e+15
3.61678e+15
3.63588e+15
3.65033e+15
3.66166e+15
3.67483e+15
3.68885e+15
3.6982e+15
3.70419e+15
3.71249e+15
3.72134e+15
3.72508e+15
3.72538e+15
3.72824e+15
3.73285e+15
3.73218e+15
3.72598e+15
3.72056e+15
3.7149e+15
3.70114e+15
3.68205e+15
3.66437e+15
3.64675e+15
3.62235e+15
3.59474e+15
3.56722e+15
3.53971e+15
3.51201e+15
3.48516e+15
3.46258e+15
3.43961e+15
3.41409e+15
3.38922e+15
3.36703e+15
3.34444e+15
3.31754e+15
3.28816e+15
3.25725e+15
3.22346e+15
3.19095e+15
3.15748e+15
3.11799e+15
3.07198e+15
3.02971e+15
3.42323e+15
3.45403e+15
3.48092e+15
3.50428e+15
3.52976e+15
3.55763e+15
3.58136e+15
3.59985e+15
3.61855e+15
3.63768e+15
3.65224e+15
3.66285e+15
3.67525e+15
3.6892e+15
3.69862e+15
3.70439e+15
3.7118e+15
3.72063e+15
3.725e+15
3.72549e+15
3.7279e+15
3.7326e+15
3.73279e+15
3.72728e+15
3.72175e+15
3.71624e+15
3.70358e+15
3.68549e+15
3.66789e+15
3.65037e+15
3.62697e+15
3.60033e+15
3.57277e+15
3.54506e+15
3.51802e+15
3.49196e+15
3.46928e+15
3.44601e+15
3.4209e+15
3.39648e+15
3.37378e+15
3.3504e+15
3.32342e+15
3.29412e+15
3.2628e+15
3.22775e+15
3.1942e+15
3.16063e+15
3.12106e+15
3.07442e+15
3.03149e+15
3.3936e+15
3.42832e+15
3.45906e+15
3.48572e+15
3.50831e+15
3.53315e+15
3.56092e+15
3.5844e+15
3.60205e+15
3.62004e+15
3.63905e+15
3.65347e+15
3.66345e+15
3.67552e+15
3.68935e+15
3.69871e+15
3.70388e+15
3.71092e+15
3.71966e+15
3.72427e+15
3.72491e+15
3.72728e+15
3.73205e+15
3.73277e+15
3.72786e+15
3.72259e+15
3.71737e+15
3.70555e+15
3.68835e+15
3.67114e+15
3.65397e+15
3.63143e+15
3.60562e+15
3.57822e+15
3.55071e+15
3.52429e+15
3.49877e+15
3.47604e+15
3.45291e+15
3.42827e+15
3.40402e+15
3.38065e+15
3.35675e+15
3.32981e+15
3.30033e+15
3.26839e+15
3.23208e+15
3.19763e+15
3.16382e+15
3.12392e+15
3.07659e+15
3.03329e+15
3.39807e+15
3.43212e+15
3.46306e+15
3.4898e+15
3.5114e+15
3.53527e+15
3.56321e+15
3.58678e+15
3.60348e+15
3.62065e+15
3.63975e+15
3.65422e+15
3.66371e+15
3.6746e+15
3.68844e+15
3.69818e+15
3.70307e+15
3.70932e+15
3.71805e+15
3.72332e+15
3.72417e+15
3.72603e+15
3.73083e+15
3.73252e+15
3.72834e+15
3.72289e+15
3.71778e+15
3.70718e+15
3.69119e+15
3.67405e+15
3.65689e+15
3.63553e+15
3.61095e+15
3.58364e+15
3.55593e+15
3.5303e+15
3.50582e+15
3.48303e+15
3.45959e+15
3.43546e+15
3.41175e+15
3.38775e+15
3.36293e+15
3.33594e+15
3.30656e+15
3.2741e+15
3.2363e+15
3.20065e+15
3.16674e+15
3.12669e+15
3.07863e+15
3.03341e+15
3.40149e+15
3.43519e+15
3.46589e+15
3.49234e+15
3.51337e+15
3.53673e+15
3.56453e+15
3.5878e+15
3.60412e+15
3.62105e+15
3.64008e+15
3.6543e+15
3.66288e+15
3.6734e+15
3.68712e+15
3.69672e+15
3.70138e+15
3.70746e+15
3.71615e+15
3.7215e+15
3.72249e+15
3.72447e+15
3.72937e+15
3.73146e+15
3.72779e+15
3.72276e+15
3.71784e+15
3.70817e+15
3.69307e+15
3.67653e+15
3.65989e+15
3.63937e+15
3.61562e+15
3.58876e+15
3.56158e+15
3.53663e+15
3.51267e+15
3.48987e+15
3.46686e+15
3.44336e+15
3.41962e+15
3.39473e+15
3.36946e+15
3.34267e+15
3.31294e+15
3.27961e+15
3.24043e+15
3.2039e+15
3.16966e+15
3.12905e+15
3.0799e+15
3.03345e+15
3.40363e+15
3.43672e+15
3.46737e+15
3.49384e+15
3.51428e+15
3.53733e+15
3.56522e+15
3.58829e+15
3.6036e+15
3.61967e+15
3.63881e+15
3.65311e+15
3.66125e+15
3.67115e+15
3.68493e+15
3.69475e+15
3.69918e+15
3.70478e+15
3.71354e+15
3.71933e+15
3.72052e+15
3.72225e+15
3.72727e+15
3.73006e+15
3.72702e+15
3.72209e+15
3.71752e+15
3.70881e+15
3.69477e+15
3.67863e+15
3.66233e+15
3.64283e+15
3.62016e+15
3.59375e+15
3.56684e+15
3.5427e+15
3.51961e+15
3.49679e+15
3.47383e+15
3.45095e+15
3.42749e+15
3.40171e+15
3.37564e+15
3.34904e+15
3.31921e+15
3.28502e+15
3.24426e+15
3.20667e+15
3.17221e+15
3.13121e+15
3.07995e+15
3.03329e+15
3.40484e+15
3.43803e+15
3.46808e+15
3.49335e+15
3.51392e+15
3.5377e+15
3.56413e+15
3.58608e+15
3.60134e+15
3.61799e+15
3.63671e+15
3.64999e+15
3.65813e+15
3.66879e+15
3.68235e+15
3.6912e+15
3.69559e+15
3.70204e+15
3.71087e+15
3.71584e+15
3.71706e+15
3.71985e+15
3.72534e+15
3.72755e+15
3.72457e+15
3.721e+15
3.71741e+15
3.70853e+15
3.69453e+15
3.68012e+15
3.66538e+15
3.64609e+15
3.62326e+15
3.59807e+15
3.57296e+15
3.5493e+15
3.52577e+15
3.50305e+15
3.48162e+15
3.45961e+15
3.43517e+15
3.40789e+15
3.38211e+15
3.35636e+15
3.32547e+15
3.28962e+15
3.24777e+15
3.20995e+15
3.17479e+15
3.13124e+15
3.07956e+15
3.03313e+15
3.40703e+15
3.4401e+15
3.4691e+15
3.49386e+15
3.51475e+15
3.53878e+15
3.56452e+15
3.58499e+15
3.60084e+15
3.61814e+15
3.63573e+15
3.64808e+15
3.65666e+15
3.66796e+15
3.68091e+15
3.68879e+15
3.69347e+15
3.70075e+15
3.7093e+15
3.7134e+15
3.71489e+15
3.7188e+15
3.72443e+15
3.72593e+15
3.7232e+15
3.72106e+15
3.71833e+15
3.70916e+15
3.69536e+15
3.68267e+15
3.66938e+15
3.64998e+15
3.6271e+15
3.6034e+15
3.58009e+15
3.55667e+15
3.53263e+15
3.51019e+15
3.49032e+15
3.46908e+15
3.44373e+15
3.41531e+15
3.38993e+15
3.36484e+15
3.33281e+15
3.29563e+15
3.25311e+15
3.2148e+15
3.17874e+15
3.13417e+15
3.08222e+15
3.03594e+15
3.40832e+15
3.44084e+15
3.4696e+15
3.49429e+15
3.51484e+15
3.53745e+15
3.56273e+15
3.58338e+15
3.59877e+15
3.61544e+15
3.63314e+15
3.64586e+15
3.65428e+15
3.66508e+15
3.67804e+15
3.68633e+15
3.69099e+15
3.69782e+15
3.7064e+15
3.71106e+15
3.71284e+15
3.71648e+15
3.72217e+15
3.72438e+15
3.72233e+15
3.72025e+15
3.71772e+15
3.70951e+15
3.69705e+15
3.68479e+15
3.67179e+15
3.65353e+15
3.63192e+15
3.60884e+15
3.58594e+15
3.56345e+15
3.54038e+15
3.51786e+15
3.49792e+15
3.47735e+15
3.45246e+15
3.42321e+15
3.39687e+15
3.37176e+15
3.33973e+15
3.30197e+15
3.25792e+15
3.21825e+15
3.18194e+15
3.13722e+15
3.08466e+15
3.03619e+15
6.87539e+14
7.09312e+14
7.31347e+14
7.53987e+14
7.77232e+14
8.00686e+14
8.24732e+14
8.49398e+14
8.7423e+14
8.9918e+14
9.24743e+14
9.50915e+14
9.77146e+14
1.00397e+15
1.03143e+15
1.05891e+15
1.08637e+15
1.11444e+15
1.14311e+15
1.17172e+15
1.20089e+15
1.23069e+15
1.26039e+15
1.28996e+15
1.3201e+15
1.35082e+15
1.38135e+15
1.4124e+15
1.44403e+15
1.47549e+15
1.50671e+15
1.53841e+15
1.57063e+15
1.60261e+15
1.63438e+15
1.66654e+15
1.69913e+15
1.73151e+15
1.76419e+15
1.79726e+15
1.83015e+15
1.86287e+15
1.89578e+15
1.92897e+15
1.96203e+15
1.99501e+15
2.02811e+15
2.06143e+15
2.09476e+15
2.12817e+15
2.16175e+15
2.19541e+15
2.22906e+15
2.26289e+15
2.29697e+15
2.33107e+15
2.36498e+15
2.39925e+15
2.43396e+15
2.46841e+15
2.50227e+15
2.53679e+15
2.57203e+15
2.60647e+15
2.63971e+15
2.67396e+15
2.70922e+15
2.74294e+15
2.77473e+15
2.80778e+15
2.84208e+15
2.87414e+15
2.9072e+15
2.94181e+15
2.97465e+15
3.00527e+15
3.03722e+15
3.07106e+15
3.10319e+15
3.13323e+15
3.16458e+15
3.19775e+15
3.22923e+15
3.2584e+15
3.28877e+15
3.32083e+15
3.35142e+15
3.37929e+15
3.40862e+15
3.43932e+15
3.46732e+15
3.4917e+15
3.51217e+15
3.53454e+15
3.55923e+15
3.57974e+15
3.59501e+15
3.61144e+15
3.6291e+15
3.64202e+15
3.65049e+15
3.66118e+15
3.67413e+15
3.68264e+15
3.68737e+15
3.69418e+15
3.70281e+15
3.70779e+15
3.70984e+15
3.71359e+15
3.71938e+15
3.72208e+15
3.7206e+15
3.71888e+15
3.71666e+15
3.70929e+15
3.698e+15
3.6864e+15
3.67396e+15
3.65671e+15
3.63623e+15
3.61394e+15
3.59183e+15
3.57022e+15
3.54785e+15
3.52528e+15
3.50562e+15
3.48566e+15
3.46089e+15
3.43071e+15
3.40366e+15
3.37853e+15
3.34631e+15
3.30785e+15
3.26225e+15
3.22144e+15
3.18486e+15
3.13967e+15
3.08577e+15
3.03598e+15
6.99874e+14
7.21357e+14
7.43106e+14
7.65464e+14
7.88417e+14
8.11583e+14
8.3535e+14
8.59724e+14
8.84271e+14
9.0895e+14
9.34244e+14
9.60134e+14
9.86094e+14
1.01266e+15
1.03984e+15
1.06705e+15
1.09427e+15
1.1221e+15
1.15051e+15
1.17887e+15
1.2078e+15
1.23735e+15
1.26682e+15
1.29617e+15
1.32609e+15
1.35658e+15
1.38689e+15
1.41773e+15
1.44914e+15
1.48038e+15
1.51141e+15
1.54291e+15
1.57493e+15
1.60673e+15
1.63833e+15
1.67033e+15
1.70275e+15
1.73496e+15
1.76748e+15
1.8004e+15
1.83315e+15
1.86574e+15
1.89854e+15
1.93163e+15
1.96461e+15
1.99753e+15
2.0306e+15
2.06388e+15
2.09719e+15
2.13061e+15
2.16421e+15
2.19789e+15
2.2316e+15
2.26552e+15
2.29967e+15
2.33385e+15
2.36789e+15
2.40234e+15
2.43717e+15
2.47175e+15
2.50582e+15
2.54058e+15
2.57597e+15
2.61059e+15
2.64408e+15
2.6786e+15
2.71402e+15
2.7479e+15
2.77995e+15
2.81324e+15
2.84768e+15
2.87989e+15
2.91311e+15
2.9478e+15
2.98062e+15
3.01117e+15
3.04296e+15
3.07652e+15
3.1083e+15
3.13799e+15
3.1688e+15
3.20128e+15
3.23213e+15
3.26081e+15
3.29035e+15
3.32175e+15
3.35204e+15
3.37981e+15
3.40796e+15
3.43701e+15
3.46433e+15
3.48853e+15
3.5086e+15
3.53025e+15
3.5545e+15
3.57512e+15
3.59002e+15
3.60582e+15
3.62359e+15
3.63717e+15
3.64559e+15
3.65574e+15
3.66889e+15
3.67819e+15
3.68302e+15
3.68928e+15
3.69811e+15
3.70404e+15
3.70649e+15
3.70974e+15
3.71563e+15
3.71946e+15
3.71875e+15
3.71682e+15
3.71472e+15
3.70887e+15
3.69914e+15
3.68766e+15
3.67526e+15
3.65956e+15
3.64082e+15
3.61897e+15
3.59699e+15
3.57659e+15
3.55557e+15
3.53278e+15
3.51246e+15
3.49305e+15
3.46898e+15
3.43799e+15
3.40949e+15
3.38403e+15
3.35213e+15
3.31334e+15
3.26587e+15
3.22343e+15
3.18696e+15
3.14172e+15
3.08568e+15
3.03521e+15
7.12635e+14
7.33815e+14
7.55274e+14
7.77334e+14
7.99985e+14
8.2286e+14
8.46323e+14
8.70399e+14
8.94654e+14
9.19061e+14
9.44072e+14
9.6967e+14
9.95357e+14
1.02164e+15
1.04853e+15
1.07548e+15
1.10245e+15
1.13001e+15
1.15816e+15
1.18627e+15
1.21495e+15
1.24424e+15
1.27347e+15
1.3026e+15
1.33229e+15
1.36254e+15
1.39264e+15
1.42324e+15
1.45442e+15
1.48545e+15
1.51629e+15
1.5476e+15
1.57942e+15
1.61103e+15
1.64246e+15
1.6743e+15
1.70655e+15
1.7386e+15
1.77097e+15
1.80374e+15
1.83636e+15
1.86883e+15
1.90153e+15
1.93452e+15
1.96743e+15
2.00028e+15
2.03331e+15
2.06657e+15
2.09985e+15
2.13328e+15
2.1669e+15
2.20059e+15
2.23433e+15
2.2683e+15
2.30252e+15
2.33676e+15
2.3709e+15
2.40545e+15
2.44039e+15
2.47507e+15
2.5093e+15
2.54422e+15
2.57974e+15
2.61447e+15
2.64816e+15
2.68284e+15
2.71836e+15
2.75236e+15
2.78463e+15
2.8181e+15
2.85261e+15
2.88494e+15
2.91826e+15
2.95296e+15
2.98574e+15
3.01623e+15
3.04786e+15
3.08113e+15
3.11256e+15
3.14189e+15
3.17222e+15
3.20404e+15
3.23421e+15
3.26233e+15
3.29137e+15
3.32209e+15
3.35144e+15
3.37814e+15
3.40526e+15
3.43312e+15
3.45955e+15
3.48322e+15
3.50317e+15
3.5243e+15
3.54779e+15
3.56818e+15
3.5831e+15
3.59869e+15
3.61631e+15
3.63028e+15
3.63896e+15
3.64912e+15
3.66235e+15
3.67213e+15
3.67724e+15
3.68355e+15
3.69257e+15
3.69906e+15
3.70192e+15
3.70529e+15
3.71134e+15
3.7158e+15
3.71585e+15
3.7142e+15
3.71247e+15
3.7077e+15
3.69905e+15
3.6884e+15
3.67652e+15
3.6621e+15
3.64469e+15
3.62355e+15
3.60233e+15
3.58303e+15
3.56286e+15
3.53974e+15
3.51932e+15
3.50043e+15
3.47641e+15
3.44433e+15
3.41488e+15
3.38923e+15
3.35719e+15
3.31776e+15
3.26869e+15
3.22477e+15
3.18714e+15
3.14142e+15
3.08503e+15
3.03422e+15
7.25853e+14
7.46732e+14
7.67878e+14
7.89643e+14
8.11994e+14
8.3455e+14
8.57719e+14
8.81501e+14
9.0545e+14
9.29553e+14
9.54282e+14
9.79594e+14
1.00498e+15
1.03098e+15
1.0576e+15
1.08426e+15
1.11095e+15
1.13825e+15
1.16614e+15
1.19397e+15
1.2224e+15
1.25145e+15
1.28041e+15
1.30929e+15
1.33875e+15
1.36877e+15
1.39862e+15
1.42901e+15
1.45997e+15
1.49078e+15
1.5214e+15
1.55251e+15
1.58414e+15
1.61556e+15
1.64681e+15
1.67848e+15
1.71057e+15
1.74246e+15
1.77468e+15
1.80731e+15
1.8398e+15
1.87214e+15
1.90474e+15
1.93765e+15
1.97047e+15
2.00325e+15
2.03624e+15
2.06947e+15
2.10271e+15
2.13613e+15
2.16978e+15
2.20347e+15
2.23721e+15
2.27123e+15
2.30552e+15
2.33978e+15
2.37397e+15
2.40863e+15
2.44366e+15
2.47839e+15
2.51271e+15
2.54778e+15
2.5834e+15
2.61818e+15
2.65198e+15
2.68681e+15
2.72242e+15
2.75647e+15
2.78886e+15
2.82249e+15
2.85708e+15
2.88943e+15
2.92281e+15
2.95754e+15
2.99028e+15
3.02064e+15
3.0521e+15
3.08513e+15
3.11627e+15
3.14521e+15
3.17504e+15
3.20631e+15
3.23588e+15
3.26352e+15
3.29198e+15
3.32219e+15
3.35022e+15
3.37616e+15
3.40227e+15
3.42906e+15
3.45456e+15
3.47766e+15
3.4974e+15
3.51786e+15
3.54047e+15
3.56053e+15
3.57541e+15
3.59054e+15
3.60793e+15
3.62237e+15
3.63133e+15
3.6412e+15
3.65454e+15
3.66514e+15
3.67064e+15
3.67667e+15
3.68594e+15
3.69343e+15
3.69683e+15
3.69994e+15
3.70615e+15
3.71167e+15
3.71266e+15
3.71095e+15
3.7095e+15
3.70614e+15
3.69887e+15
3.68851e+15
3.6772e+15
3.66435e+15
3.64855e+15
3.62793e+15
3.60707e+15
3.58907e+15
3.57004e+15
3.54634e+15
3.52519e+15
3.50682e+15
3.48313e+15
3.44995e+15
3.41905e+15
3.39318e+15
3.36123e+15
3.32133e+15
3.26988e+15
3.22428e+15
3.18668e+15
3.14075e+15
3.08397e+15
3.03257e+15
7.39484e+14
7.60049e+14
7.80894e+14
8.02339e+14
8.24369e+14
8.46632e+14
8.69474e+14
8.92924e+14
9.16573e+14
9.40382e+14
9.64807e+14
9.89812e+14
1.01492e+15
1.04061e+15
1.06692e+15
1.0933e+15
1.11971e+15
1.14675e+15
1.17435e+15
1.20193e+15
1.23008e+15
1.25884e+15
1.28756e+15
1.31619e+15
1.34541e+15
1.37518e+15
1.40482e+15
1.43495e+15
1.46567e+15
1.49627e+15
1.52669e+15
1.5576e+15
1.58902e+15
1.62026e+15
1.65133e+15
1.68284e+15
1.71476e+15
1.7465e+15
1.77857e+15
1.81107e+15
1.84344e+15
1.87567e+15
1.90817e+15
1.941e+15
1.97375e+15
2.00645e+15
2.03939e+15
2.0726e+15
2.10581e+15
2.13922e+15
2.17288e+15
2.20658e+15
2.2403e+15
2.27434e+15
2.30866e+15
2.34296e+15
2.37715e+15
2.41184e+15
2.44692e+15
2.4817e+15
2.51603e+15
2.55114e+15
2.5868e+15
2.62162e+15
2.65545e+15
2.69035e+15
2.72597e+15
2.76005e+15
2.79253e+15
2.82628e+15
2.86088e+15
2.89328e+15
2.92658e+15
2.96125e+15
2.99394e+15
3.02423e+15
3.05547e+15
3.08828e+15
3.11914e+15
3.14773e+15
3.1771e+15
3.20797e+15
3.23715e+15
3.26432e+15
3.2921e+15
3.3206e+15
3.34811e+15
3.37332e+15
3.39847e+15
3.42414e+15
3.44845e+15
3.47062e+15
3.49025e+15
3.51021e+15
3.53147e+15
3.55061e+15
3.56584e+15
3.5812e+15
3.59781e+15
3.61187e+15
3.62163e+15
3.6324e+15
3.64544e+15
3.65578e+15
3.66202e+15
3.66923e+15
3.67869e+15
3.68591e+15
3.68982e+15
3.6942e+15
3.70096e+15
3.70614e+15
3.70747e+15
3.7072e+15
3.70693e+15
3.70369e+15
3.69685e+15
3.68826e+15
3.67876e+15
3.66646e+15
3.65089e+15
3.63143e+15
3.61266e+15
3.59563e+15
3.57622e+15
3.55174e+15
3.53122e+15
3.51352e+15
3.48864e+15
3.45368e+15
3.42246e+15
3.39708e+15
3.36401e+15
3.32136e+15
3.26937e+15
3.22385e+15
3.18599e+15
3.13916e+15
3.082e+15
3.03057e+15
7.53851e+14
7.74113e+14
7.94665e+14
8.15798e+14
8.37516e+14
8.59479e+14
8.82015e+14
9.05149e+14
9.28498e+14
9.52023e+14
9.76139e+14
1.00084e+15
1.02566e+15
1.05106e+15
1.07706e+15
1.10316e+15
1.12931e+15
1.15605e+15
1.18337e+15
1.21069e+15
1.23857e+15
1.26704e+15
1.2955e+15
1.3239e+15
1.35286e+15
1.38237e+15
1.41177e+15
1.44167e+15
1.47213e+15
1.50249e+15
1.5327e+15
1.56339e+15
1.59459e+15
1.62563e+15
1.65652e+15
1.68783e+15
1.71957e+15
1.75114e+15
1.78305e+15
1.81539e+15
1.8476e+15
1.8797e+15
1.91208e+15
1.9448e+15
1.97746e+15
2.01006e+15
2.04293e+15
2.07609e+15
2.10924e+15
2.14263e+15
2.17629e+15
2.21e+15
2.24371e+15
2.27775e+15
2.31213e+15
2.34647e+15
2.38071e+15
2.41543e+15
2.45059e+15
2.48545e+15
2.51989e+15
2.55504e+15
2.59076e+15
2.62569e+15
2.65968e+15
2.6946e+15
2.73024e+15
2.76444e+15
2.79711e+15
2.83086e+15
2.86542e+15
2.89793e+15
2.93131e+15
2.96582e+15
2.99836e+15
3.02861e+15
3.05977e+15
3.09222e+15
3.12267e+15
3.15093e+15
3.17996e+15
3.21018e+15
3.2386e+15
3.26529e+15
3.29259e+15
3.3207e+15
3.34675e+15
3.37105e+15
3.39534e+15
3.41991e+15
3.44297e+15
3.46419e+15
3.48371e+15
3.50316e+15
3.52297e+15
3.54115e+15
3.55699e+15
3.57252e+15
3.58819e+15
3.60191e+15
3.61295e+15
3.6245e+15
3.63695e+15
3.64716e+15
3.65458e+15
3.66285e+15
3.67215e+15
3.67923e+15
3.68397e+15
3.68952e+15
3.69642e+15
3.70136e+15
3.70325e+15
3.70439e+15
3.70492e+15
3.70188e+15
3.69569e+15
3.68893e+15
3.68098e+15
3.6693e+15
3.65427e+15
3.63609e+15
3.6192e+15
3.60329e+15
3.58387e+15
3.5591e+15
3.53907e+15
3.52186e+15
3.49596e+15
3.45983e+15
3.42846e+15
3.40284e+15
3.36846e+15
3.32493e+15
3.27263e+15
3.22648e+15
3.18612e+15
3.13826e+15
3.08107e+15
3.0297e+15
7.68683e+14
7.88628e+14
8.08873e+14
8.297e+14
8.51093e+14
8.72747e+14
8.94979e+14
9.17784e+14
9.40818e+14
9.64044e+14
9.87859e+14
1.01224e+15
1.03677e+15
1.06187e+15
1.08756e+15
1.11335e+15
1.13923e+15
1.16569e+15
1.19271e+15
1.21975e+15
1.24736e+15
1.27554e+15
1.30372e+15
1.33188e+15
1.36058e+15
1.38982e+15
1.41898e+15
1.44864e+15
1.47884e+15
1.50895e+15
1.53895e+15
1.56943e+15
1.60039e+15
1.63122e+15
1.66193e+15
1.69306e+15
1.7246e+15
1.75599e+15
1.78775e+15
1.81992e+15
1.85198e+15
1.88394e+15
1.9162e+15
1.94881e+15
1.98136e+15
2.01387e+15
2.04667e+15
2.07977e+15
2.11286e+15
2.14622e+15
2.17987e+15
2.21355e+15
2.24724e+15
2.28129e+15
2.31569e+15
2.35004e+15
2.38429e+15
2.41906e+15
2.45424e+15
2.48914e+15
2.52363e+15
2.55883e+15
2.59456e+15
2.62954e+15
2.66363e+15
2.69859e+15
2.7342e+15
2.76845e+15
2.80125e+15
2.83502e+15
2.86952e+15
2.90208e+15
2.93544e+15
2.96979e+15
3.0022e+15
3.03238e+15
3.06338e+15
3.09549e+15
3.12562e+15
3.15358e+15
3.18218e+15
3.21179e+15
3.23977e+15
3.26604e+15
3.29283e+15
3.3202e+15
3.3452e+15
3.36868e+15
3.39206e+15
3.4156e+15
3.4377e+15
3.45819e+15
3.47726e+15
3.49597e+15
3.51478e+15
3.53245e+15
3.54835e+15
3.56354e+15
3.57869e+15
3.5926e+15
3.6043e+15
3.61586e+15
3.62809e+15
3.63888e+15
3.64707e+15
3.65541e+15
3.66474e+15
3.67266e+15
3.6782e+15
3.6838e+15
3.69078e+15
3.6966e+15
3.69942e+15
3.70079e+15
3.70167e+15
3.7e+15
3.69525e+15
3.68896e+15
3.68182e+15
3.67183e+15
3.65831e+15
3.6404e+15
3.62405e+15
3.60969e+15
3.5912e+15
3.56574e+15
3.54494e+15
3.52812e+15
3.50227e+15
3.46529e+15
3.43275e+15
3.40646e+15
3.37169e+15
3.32794e+15
3.27438e+15
3.22606e+15
3.18534e+15
3.13729e+15
3.08001e+15
3.0282e+15
7.83943e+14
8.03566e+14
8.23498e+14
8.44001e+14
8.6507e+14
8.86406e+14
9.08308e+14
9.30791e+14
9.53505e+14
9.76427e+14
9.99925e+14
1.02399e+15
1.0482e+15
1.07299e+15
1.09836e+15
1.12386e+15
1.14945e+15
1.17561e+15
1.20233e+15
1.22909e+15
1.25641e+15
1.2843e+15
1.3122e+15
1.3401e+15
1.36854e+15
1.3975e+15
1.42641e+15
1.45582e+15
1.48576e+15
1.51564e+15
1.54542e+15
1.57567e+15
1.6064e+15
1.63702e+15
1.66754e+15
1.69849e+15
1.72984e+15
1.76106e+15
1.79266e+15
1.82467e+15
1.85658e+15
1.88841e+15
1.92055e+15
1.95306e+15
1.9855e+15
2.01791e+15
2.05064e+15
2.08367e+15
2.11669e+15
2.15001e+15
2.18366e+15
2.2173e+15
2.25095e+15
2.28498e+15
2.31938e+15
2.35372e+15
2.38796e+15
2.42271e+15
2.4579e+15
2.49279e+15
2.52729e+15
2.56247e+15
2.59817e+15
2.63314e+15
2.66727e+15
2.70221e+15
2.73776e+15
2.772e+15
2.80486e+15
2.83861e+15
2.87303e+15
2.90558e+15
2.93886e+15
2.97304e+15
3.00532e+15
3.03541e+15
3.06622e+15
3.09803e+15
3.12787e+15
3.15554e+15
3.18375e+15
3.21301e+15
3.24059e+15
3.26647e+15
3.29277e+15
3.31887e+15
3.34327e+15
3.36602e+15
3.3886e+15
3.41122e+15
3.43243e+15
3.45216e+15
3.47066e+15
3.48865e+15
3.5065e+15
3.52347e+15
3.53922e+15
3.55404e+15
3.5685e+15
3.58227e+15
3.59453e+15
3.60618e+15
3.61805e+15
3.62919e+15
3.63826e+15
3.64694e+15
3.65624e+15
3.66485e+15
3.6713e+15
3.6773e+15
3.68434e+15
3.69089e+15
3.69464e+15
3.69652e+15
3.69789e+15
3.69749e+15
3.69403e+15
3.68866e+15
3.68255e+15
3.67415e+15
3.662e+15
3.64425e+15
3.62864e+15
3.61576e+15
3.59782e+15
3.57143e+15
3.55e+15
3.53333e+15
3.50718e+15
3.46917e+15
3.43573e+15
3.40861e+15
3.37269e+15
3.32768e+15
3.27365e+15
3.22508e+15
3.18397e+15
3.13558e+15
3.07812e+15
3.02583e+15
7.99662e+14
8.18965e+14
8.38563e+14
8.58748e+14
8.79493e+14
9.00489e+14
9.2207e+14
9.44231e+14
9.6661e+14
9.89197e+14
1.01238e+15
1.03613e+15
1.06001e+15
1.08449e+15
1.10955e+15
1.13473e+15
1.16e+15
1.18587e+15
1.21229e+15
1.23875e+15
1.26578e+15
1.29338e+15
1.321e+15
1.34861e+15
1.37678e+15
1.40548e+15
1.43411e+15
1.46327e+15
1.49297e+15
1.52259e+15
1.55213e+15
1.58216e+15
1.61268e+15
1.64308e+15
1.67339e+15
1.70414e+15
1.73532e+15
1.76635e+15
1.79779e+15
1.82965e+15
1.86141e+15
1.89309e+15
1.92511e+15
1.95751e+15
1.98984e+15
2.02215e+15
2.05479e+15
2.08776e+15
2.1207e+15
2.15397e+15
2.18759e+15
2.22119e+15
2.25477e+15
2.28878e+15
2.32317e+15
2.35746e+15
2.39164e+15
2.42638e+15
2.46154e+15
2.49639e+15
2.53083e+15
2.56599e+15
2.60166e+15
2.63658e+15
2.67066e+15
2.70557e+15
2.74107e+15
2.77524e+15
2.80806e+15
2.84178e+15
2.87614e+15
2.90857e+15
2.94174e+15
2.97579e+15
3.00794e+15
3.03784e+15
3.06841e+15
3.09997e+15
3.12958e+15
3.15699e+15
3.18496e+15
3.2139e+15
3.24107e+15
3.26659e+15
3.29174e+15
3.31725e+15
3.34114e+15
3.36324e+15
3.38505e+15
3.4069e+15
3.42737e+15
3.44644e+15
3.46434e+15
3.48163e+15
3.49873e+15
3.51514e+15
3.53066e+15
3.54506e+15
3.55898e+15
3.57266e+15
3.5853e+15
3.59691e+15
3.60844e+15
3.61989e+15
3.6297e+15
3.63855e+15
3.64779e+15
3.65708e+15
3.66441e+15
3.67059e+15
3.67768e+15
3.68507e+15
3.68975e+15
3.69196e+15
3.69374e+15
3.69474e+15
3.69259e+15
3.68793e+15
3.68253e+15
3.67591e+15
3.66497e+15
3.64708e+15
3.63188e+15
3.62043e+15
3.60297e+15
3.57566e+15
3.5533e+15
3.53676e+15
3.51067e+15
3.4716e+15
3.43608e+15
3.40831e+15
3.37211e+15
3.32685e+15
3.27241e+15
3.22331e+15
3.18166e+15
3.13317e+15
3.07548e+15
3.02222e+15
8.15786e+14
8.34753e+14
8.54031e+14
8.73875e+14
8.94276e+14
9.14953e+14
9.36182e+14
9.57987e+14
9.80038e+14
1.0023e+15
1.02516e+15
1.04856e+15
1.07214e+15
1.09627e+15
1.121e+15
1.14586e+15
1.17083e+15
1.19639e+15
1.22249e+15
1.24866e+15
1.27537e+15
1.30267e+15
1.33e+15
1.35733e+15
1.38523e+15
1.41365e+15
1.44203e+15
1.4709e+15
1.50034e+15
1.52972e+15
1.55903e+15
1.58882e+15
1.61912e+15
1.6493e+15
1.67942e+15
1.70999e+15
1.74097e+15
1.77184e+15
1.8031e+15
1.83481e+15
1.86644e+15
1.89797e+15
1.92987e+15
1.96217e+15
1.99439e+15
2.02658e+15
2.05914e+15
2.09204e+15
2.12491e+15
2.15811e+15
2.19168e+15
2.22524e+15
2.25874e+15
2.29268e+15
2.32703e+15
2.36128e+15
2.39537e+15
2.43002e+15
2.46513e+15
2.4999e+15
2.53425e+15
2.56932e+15
2.60489e+15
2.63972e+15
2.6737e+15
2.70852e+15
2.7439e+15
2.77797e+15
2.8107e+15
2.84436e+15
2.87858e+15
2.91093e+15
2.94388e+15
2.97773e+15
3.00974e+15
3.03956e+15
3.07e+15
3.10142e+15
3.13086e+15
3.15811e+15
3.18582e+15
3.21444e+15
3.24115e+15
3.26545e+15
3.28998e+15
3.31522e+15
3.33871e+15
3.36022e+15
3.38137e+15
3.4026e+15
3.4224e+15
3.44082e+15
3.4582e+15
3.47491e+15
3.4913e+15
3.5071e+15
3.52232e+15
3.5363e+15
3.54959e+15
3.5629e+15
3.57581e+15
3.5874e+15
3.59844e+15
3.60977e+15
3.6203e+15
3.62965e+15
3.63871e+15
3.64814e+15
3.65632e+15
3.66341e+15
3.67066e+15
3.6782e+15
3.68351e+15
3.68691e+15
3.68958e+15
3.6913e+15
3.68978e+15
3.68661e+15
3.68296e+15
3.67738e+15
3.66699e+15
3.649e+15
3.63484e+15
3.62437e+15
3.60646e+15
3.57803e+15
3.55532e+15
3.53866e+15
3.51079e+15
3.47114e+15
3.43543e+15
3.40732e+15
3.37042e+15
3.32432e+15
3.26999e+15
3.22067e+15
3.17785e+15
3.12844e+15
3.07081e+15
3.01774e+15
8.32646e+14
8.51293e+14
8.70255e+14
8.89769e+14
9.09839e+14
9.30189e+14
9.51088e+14
9.72559e+14
9.94284e+14
1.01624e+15
1.03875e+15
1.06183e+15
1.08509e+15
1.1089e+15
1.13329e+15
1.15784e+15
1.18251e+15
1.20775e+15
1.23354e+15
1.25941e+15
1.28582e+15
1.31281e+15
1.33984e+15
1.36691e+15
1.3945e+15
1.42264e+15
1.45076e+15
1.47937e+15
1.50852e+15
1.53764e+15
1.56671e+15
1.59626e+15
1.62631e+15
1.65628e+15
1.68618e+15
1.71652e+15
1.74731e+15
1.778e+15
1.80908e+15
1.84061e+15
1.87207e+15
1.90345e+15
1.9352e+15
1.96736e+15
1.99947e+15
2.03154e+15
2.06398e+15
2.0968e+15
2.12958e+15
2.1627e+15
2.19621e+15
2.22971e+15
2.26315e+15