/*--------------------------------*- C++ -*----------------------------------*\
| =========                 |                                                 |
| \\      /  F ield         | OpenFOAM: The Open Source CFD Toolbox           |
|  \\    /   O peration     | Version:  v2012                                 |
|   \\  /    A nd           | Website:  www.openfoam.com                      |
|    \\/     M anipulation  |                                                 |
\*---------------------------------------------------------------------------*/
FoamFile
{
    version     2.0;
    format      ascii;
    class       volScalarField;
    location    "1e-06";
    object      totalPMean;
}
// * * * * * * * * * * * * * * * * * * * * * * * * * * * * * * * * * * * * * //

dimensions      [1 -1 -2 0 0 0 0];


internalField   nonuniform List<scalar> 
10098
(
2.63522e+07
2.62866e+07
2.62124e+07
2.61555e+07
2.61255e+07
2.60817e+07
2.60199e+07
2.59787e+07
2.59607e+07
2.59327e+07
2.58788e+07
2.5833e+07
2.63623e+07
2.6296e+07
2.62225e+07
2.6166e+07
2.61352e+07
2.60902e+07
2.60285e+07
2.59878e+07
2.59694e+07
2.59403e+07
2.58861e+07
2.58406e+07
2.63731e+07
2.63066e+07
2.62337e+07
2.61768e+07
2.61453e+07
2.60999e+07
2.60384e+07
2.59975e+07
2.59786e+07
2.59489e+07
2.58946e+07
2.58488e+07
2.67349e+07
2.67652e+07
2.67779e+07
2.67691e+07
2.67566e+07
2.6746e+07
2.67141e+07
2.66697e+07
2.662e+07
2.65676e+07
2.65047e+07
2.64412e+07
2.6384e+07
2.63162e+07
2.62442e+07
2.61885e+07
2.61558e+07
2.61087e+07
2.60473e+07
2.60075e+07
2.59885e+07
2.5957e+07
2.5902e+07
2.58575e+07
2.67361e+07
2.67673e+07
2.67832e+07
2.67755e+07
2.6762e+07
2.67517e+07
2.67228e+07
2.66799e+07
2.66294e+07
2.6577e+07
2.65163e+07
2.64546e+07
2.63964e+07
2.63268e+07
2.6256e+07
2.62023e+07
2.61691e+07
2.61202e+07
2.60586e+07
2.60199e+07
2.60007e+07
2.59673e+07
2.59107e+07
2.58666e+07
2.67398e+07
2.67718e+07
2.67889e+07
2.67817e+07
2.67692e+07
2.67601e+07
2.67323e+07
2.66898e+07
2.66402e+07
2.65888e+07
2.65291e+07
2.64676e+07
2.64091e+07
2.63393e+07
2.62693e+07
2.62158e+07
2.61823e+07
2.61329e+07
2.60713e+07
2.60324e+07
2.60127e+07
2.59786e+07
2.59212e+07
2.58763e+07
2.6742e+07
2.67747e+07
2.67944e+07
2.67886e+07
2.67753e+07
2.67668e+07
2.67416e+07
2.67009e+07
2.66506e+07
2.65994e+07
2.65414e+07
2.64816e+07
2.6422e+07
2.63512e+07
2.62821e+07
2.62302e+07
2.61961e+07
2.61453e+07
2.60836e+07
2.60457e+07
2.60257e+07
2.59896e+07
2.59312e+07
2.58865e+07
2.67461e+07
2.67796e+07
2.67996e+07
2.67945e+07
2.67829e+07
2.6776e+07
2.67513e+07
2.67104e+07
2.66621e+07
2.66125e+07
2.65552e+07
2.64952e+07
2.64356e+07
2.63652e+07
2.62968e+07
2.62446e+07
2.62102e+07
2.61595e+07
2.60981e+07
2.60594e+07
2.60386e+07
2.60023e+07
2.59433e+07
2.58973e+07
2.6728e+07
2.67482e+07
2.67824e+07
2.68049e+07
2.6801e+07
2.67892e+07
2.67831e+07
2.67607e+07
2.67216e+07
2.66729e+07
2.66241e+07
2.65683e+07
2.65098e+07
2.64493e+07
2.63782e+07
2.63109e+07
2.62599e+07
2.62251e+07
2.61733e+07
2.6112e+07
2.6074e+07
2.60527e+07
2.60146e+07
2.59548e+07
2.59086e+07
2.67104e+07
2.67301e+07
2.67523e+07
2.67874e+07
2.68096e+07
2.68064e+07
2.6797e+07
2.67927e+07
2.67705e+07
2.67313e+07
2.6685e+07
2.66384e+07
2.6583e+07
2.6524e+07
2.64638e+07
2.63938e+07
2.63271e+07
2.62753e+07
2.62402e+07
2.61893e+07
2.61285e+07
2.60891e+07
2.60668e+07
2.60288e+07
2.59687e+07
2.59207e+07
2.6669e+07
2.67125e+07
2.67325e+07
2.6754e+07
2.679e+07
2.68144e+07
2.68123e+07
2.6803e+07
2.68e+07
2.67799e+07
2.67421e+07
2.6696e+07
2.66507e+07
2.65968e+07
2.65391e+07
2.64783e+07
2.6408e+07
2.63425e+07
2.62917e+07
2.62562e+07
2.62045e+07
2.61441e+07
2.61051e+07
2.60821e+07
2.60427e+07
2.5982e+07
2.59333e+07
2.66146e+07
2.66718e+07
2.67134e+07
2.67336e+07
2.67578e+07
2.6795e+07
2.68183e+07
2.68166e+07
2.68107e+07
2.68101e+07
2.67895e+07
2.67513e+07
2.67083e+07
2.66663e+07
2.66123e+07
2.65535e+07
2.64935e+07
2.64252e+07
2.63602e+07
2.6308e+07
2.62724e+07
2.62225e+07
2.61628e+07
2.61217e+07
2.60972e+07
2.60587e+07
2.59981e+07
2.59469e+07
2.5896e+07
2.59896e+07
2.60802e+07
2.61751e+07
2.62576e+07
2.63201e+07
2.63875e+07
2.64653e+07
2.65283e+07
2.65689e+07
2.6615e+07
2.66723e+07
2.67144e+07
2.67345e+07
2.67591e+07
2.67973e+07
2.68221e+07
2.68212e+07
2.68164e+07
2.68175e+07
2.67986e+07
2.67614e+07
2.67194e+07
2.66794e+07
2.66268e+07
2.65687e+07
2.65085e+07
2.64408e+07
2.6377e+07
2.63253e+07
2.62893e+07
2.62396e+07
2.61806e+07
2.61391e+07
2.61136e+07
2.60742e+07
2.60134e+07
2.5961e+07
2.59084e+07
2.58381e+07
2.57712e+07
2.57037e+07
2.56179e+07
2.54984e+07
2.53913e+07
2.59999e+07
2.60923e+07
2.61837e+07
2.62606e+07
2.63227e+07
2.63925e+07
2.64685e+07
2.65268e+07
2.65673e+07
2.66168e+07
2.6674e+07
2.67126e+07
2.67324e+07
2.67613e+07
2.68017e+07
2.6824e+07
2.68225e+07
2.68225e+07
2.68277e+07
2.68071e+07
2.67681e+07
2.67307e+07
2.66962e+07
2.66424e+07
2.65821e+07
2.65238e+07
2.64599e+07
2.63966e+07
2.6342e+07
2.63065e+07
2.62602e+07
2.62023e+07
2.61574e+07
2.61297e+07
2.60924e+07
2.60325e+07
2.5976e+07
2.59194e+07
2.58485e+07
2.57824e+07
2.57128e+07
2.5623e+07
2.55014e+07
2.53963e+07
2.60161e+07
2.61093e+07
2.6197e+07
2.62693e+07
2.6332e+07
2.64034e+07
2.64764e+07
2.65307e+07
2.65722e+07
2.66247e+07
2.66806e+07
2.67158e+07
2.67367e+07
2.67696e+07
2.68106e+07
2.68304e+07
2.68291e+07
2.6834e+07
2.68419e+07
2.68192e+07
2.67787e+07
2.67464e+07
2.6716e+07
2.66605e+07
2.65977e+07
2.65411e+07
2.64807e+07
2.64171e+07
2.63592e+07
2.63234e+07
2.62803e+07
2.62235e+07
2.61753e+07
2.61454e+07
2.61102e+07
2.60524e+07
2.59927e+07
2.59331e+07
2.58629e+07
2.57972e+07
2.57253e+07
2.56326e+07
2.55113e+07
2.54072e+07
2.60292e+07
2.612e+07
2.62068e+07
2.62783e+07
2.63391e+07
2.64084e+07
2.64806e+07
2.65349e+07
2.65758e+07
2.66271e+07
2.66827e+07
2.67187e+07
2.67401e+07
2.67728e+07
2.68145e+07
2.68358e+07
2.68357e+07
2.68415e+07
2.68508e+07
2.68296e+07
2.67906e+07
2.67593e+07
2.67304e+07
2.66765e+07
2.66147e+07
2.65576e+07
2.64978e+07
2.64357e+07
2.63784e+07
2.63416e+07
2.62985e+07
2.62431e+07
2.6195e+07
2.61633e+07
2.61269e+07
2.60698e+07
2.60096e+07
2.59485e+07
2.58758e+07
2.58086e+07
2.5736e+07
2.56425e+07
2.55199e+07
2.54147e+07
2.58586e+07
2.59568e+07
2.60442e+07
2.61343e+07
2.6219e+07
2.6287e+07
2.63468e+07
2.64163e+07
2.64869e+07
2.65383e+07
2.65792e+07
2.66318e+07
2.66868e+07
2.67209e+07
2.67429e+07
2.67782e+07
2.68204e+07
2.68408e+07
2.68416e+07
2.68509e+07
2.6862e+07
2.68406e+07
2.68018e+07
2.67738e+07
2.67483e+07
2.66943e+07
2.66319e+07
2.65756e+07
2.65182e+07
2.64568e+07
2.63981e+07
2.63609e+07
2.63201e+07
2.62658e+07
2.62159e+07
2.61822e+07
2.61467e+07
2.60905e+07
2.60282e+07
2.59643e+07
2.58903e+07
2.58224e+07
2.57484e+07
2.56525e+07
2.55289e+07
2.5424e+07
2.56545e+07
2.57619e+07
2.58744e+07
2.59727e+07
2.6056e+07
2.61425e+07
2.62273e+07
2.62959e+07
2.6353e+07
2.64189e+07
2.64892e+07
2.65422e+07
2.6582e+07
2.66321e+07
2.6687e+07
2.67233e+07
2.67457e+07
2.67791e+07
2.68218e+07
2.68453e+07
2.68479e+07
2.68563e+07
2.68683e+07
2.68502e+07
2.6814e+07
2.67858e+07
2.676e+07
2.67097e+07
2.665e+07
2.65929e+07
2.65348e+07
2.64756e+07
2.64192e+07
2.63813e+07
2.63391e+07
2.62864e+07
2.6238e+07
2.62026e+07
2.61645e+07
2.61086e+07
2.60466e+07
2.59817e+07
2.59039e+07
2.58331e+07
2.5759e+07
2.56631e+07
2.55377e+07
2.54305e+07
2.54724e+07
2.55786e+07
2.56754e+07
2.57809e+07
2.58924e+07
2.59886e+07
2.60695e+07
2.61541e+07
2.62378e+07
2.63044e+07
2.63597e+07
2.64245e+07
2.64937e+07
2.65451e+07
2.65846e+07
2.66352e+07
2.66895e+07
2.67247e+07
2.67476e+07
2.67824e+07
2.68253e+07
2.6849e+07
2.68532e+07
2.68638e+07
2.68768e+07
2.686e+07
2.68255e+07
2.67996e+07
2.67763e+07
2.6727e+07
2.66683e+07
2.66117e+07
2.6555e+07
2.64973e+07
2.64409e+07
2.64026e+07
2.6362e+07
2.63106e+07
2.62619e+07
2.6224e+07
2.61858e+07
2.61303e+07
2.60671e+07
2.59998e+07
2.59192e+07
2.58463e+07
2.57714e+07
2.56737e+07
2.55465e+07
2.54387e+07
2.53727e+07
2.54918e+07
2.55987e+07
2.56907e+07
2.57924e+07
2.59049e+07
2.6002e+07
2.60786e+07
2.61591e+07
2.62435e+07
2.63113e+07
2.63639e+07
2.64253e+07
2.64947e+07
2.65473e+07
2.65859e+07
2.66326e+07
2.6687e+07
2.67253e+07
2.67488e+07
2.67808e+07
2.68241e+07
2.68516e+07
2.68581e+07
2.68671e+07
2.68804e+07
2.6868e+07
2.68371e+07
2.68104e+07
2.67867e+07
2.67414e+07
2.66867e+07
2.66293e+07
2.65712e+07
2.65162e+07
2.64634e+07
2.64245e+07
2.63819e+07
2.63324e+07
2.6286e+07
2.62464e+07
2.62044e+07
2.61493e+07
2.60868e+07
2.60188e+07
2.59331e+07
2.58563e+07
2.57816e+07
2.56843e+07
2.55547e+07
2.5444e+07
2.52576e+07
2.53932e+07
2.55118e+07
2.56176e+07
2.57072e+07
2.58068e+07
2.59189e+07
2.60146e+07
2.60887e+07
2.6167e+07
2.6251e+07
2.63178e+07
2.63683e+07
2.6429e+07
2.64979e+07
2.65497e+07
2.65864e+07
2.66327e+07
2.66865e+07
2.67247e+07
2.67488e+07
2.67815e+07
2.68248e+07
2.68531e+07
2.68615e+07
2.68722e+07
2.68861e+07
2.68758e+07
2.68476e+07
2.68226e+07
2.68005e+07
2.67577e+07
2.67051e+07
2.66484e+07
2.65916e+07
2.65385e+07
2.6487e+07
2.64475e+07
2.64064e+07
2.63586e+07
2.63125e+07
2.62699e+07
2.6227e+07
2.61723e+07
2.61089e+07
2.60383e+07
2.59487e+07
2.5869e+07
2.57937e+07
2.56947e+07
2.55627e+07
2.54511e+07
2.52726e+07
2.54055e+07
2.55253e+07
2.5632e+07
2.57174e+07
2.58133e+07
2.59265e+07
2.60233e+07
2.60934e+07
2.61685e+07
2.62533e+07
2.63212e+07
2.63696e+07
2.64257e+07
2.6495e+07
2.6549e+07
2.65846e+07
2.66272e+07
2.66813e+07
2.67227e+07
2.67474e+07
2.67773e+07
2.68206e+07
2.68532e+07
2.6864e+07
2.68729e+07
2.68869e+07
2.68815e+07
2.68576e+07
2.68319e+07
2.6809e+07
2.67705e+07
2.6723e+07
2.66658e+07
2.66074e+07
2.65574e+07
2.65104e+07
2.64703e+07
2.64271e+07
2.63815e+07
2.63381e+07
2.62933e+07
2.62463e+07
2.6192e+07
2.61294e+07
2.60581e+07
2.59623e+07
2.58782e+07
2.58032e+07
2.57044e+07
2.55696e+07
2.54506e+07
2.52878e+07
2.54196e+07
2.55382e+07
2.56434e+07
2.57272e+07
2.58218e+07
2.59344e+07
2.60294e+07
2.60984e+07
2.61733e+07
2.62577e+07
2.6324e+07
2.63697e+07
2.64252e+07
2.6494e+07
2.65466e+07
2.65815e+07
2.66246e+07
2.66783e+07
2.67189e+07
2.67442e+07
2.67754e+07
2.68189e+07
2.68517e+07
2.68641e+07
2.68752e+07
2.68899e+07
2.68866e+07
2.68651e+07
2.68419e+07
2.68213e+07
2.67852e+07
2.67394e+07
2.6684e+07
2.66283e+07
2.65804e+07
2.65344e+07
2.64939e+07
2.64533e+07
2.641e+07
2.63661e+07
2.63172e+07
2.62698e+07
2.62167e+07
2.61525e+07
2.60774e+07
2.59773e+07
2.58907e+07
2.58147e+07
2.57131e+07
2.55747e+07
2.54519e+07
2.52956e+07
2.54249e+07
2.55441e+07
2.56498e+07
2.57308e+07
2.58238e+07
2.59373e+07
2.60323e+07
2.60975e+07
2.61688e+07
2.62544e+07
2.63216e+07
2.63653e+07
2.64181e+07
2.64876e+07
2.65418e+07
2.65756e+07
2.66161e+07
2.66703e+07
2.67134e+07
2.67391e+07
2.67685e+07
2.68123e+07
2.68484e+07
2.6863e+07
2.68734e+07
2.68885e+07
2.68894e+07
2.68719e+07
2.6849e+07
2.68284e+07
2.67967e+07
2.67552e+07
2.67004e+07
2.66443e+07
2.65996e+07
2.65578e+07
2.65166e+07
2.64749e+07
2.64341e+07
2.63925e+07
2.63404e+07
2.62891e+07
2.62371e+07
2.61734e+07
2.60966e+07
2.59897e+07
2.5899e+07
2.58233e+07
2.57211e+07
2.55749e+07
2.54506e+07
2.53009e+07
2.54309e+07
2.55479e+07
2.56491e+07
2.57308e+07
2.5827e+07
2.59352e+07
2.6026e+07
2.60914e+07
2.61654e+07
2.6249e+07
2.63124e+07
2.63563e+07
2.64123e+07
2.6481e+07
2.65313e+07
2.65652e+07
2.66092e+07
2.66636e+07
2.67033e+07
2.67292e+07
2.67628e+07
2.68081e+07
2.68416e+07
2.68563e+07
2.68717e+07
2.68902e+07
2.68899e+07
2.68721e+07
2.68554e+07
2.68402e+07
2.6808e+07
2.67659e+07
2.67156e+07
2.66664e+07
2.66231e+07
2.65792e+07
2.6538e+07
2.65023e+07
2.6465e+07
2.6419e+07
2.63611e+07
2.63112e+07
2.62631e+07
2.61948e+07
2.61111e+07
2.60012e+07
2.59103e+07
2.58324e+07
2.57207e+07
2.55727e+07
2.54495e+07
2.53129e+07
2.54427e+07
2.55553e+07
2.56548e+07
2.57386e+07
2.58358e+07
2.59409e+07
2.60266e+07
2.60947e+07
2.61711e+07
2.62504e+07
2.63104e+07
2.63564e+07
2.64147e+07
2.64807e+07
2.65275e+07
2.65628e+07
2.66099e+07
2.66629e+07
2.66992e+07
2.67263e+07
2.6764e+07
2.68094e+07
2.684e+07
2.68555e+07
2.68762e+07
2.68972e+07
2.68953e+07
2.68778e+07
2.68676e+07
2.68572e+07
2.68244e+07
2.67811e+07
2.67363e+07
2.66934e+07
2.66503e+07
2.66042e+07
2.65639e+07
2.65343e+07
2.64996e+07
2.64501e+07
2.63882e+07
2.63403e+07
2.62948e+07
2.62222e+07
2.61343e+07
2.60224e+07
2.59299e+07
2.58487e+07
2.57333e+07
2.55848e+07
2.54622e+07
2.53178e+07
2.54452e+07
2.55579e+07
2.56576e+07
2.57396e+07
2.58316e+07
2.59359e+07
2.60227e+07
2.60886e+07
2.61623e+07
2.62425e+07
2.63046e+07
2.63495e+07
2.64053e+07
2.64718e+07
2.6521e+07
2.65558e+07
2.66004e+07
2.66537e+07
2.6693e+07
2.6721e+07
2.67565e+07
2.68021e+07
2.6836e+07
2.6854e+07
2.68736e+07
2.68949e+07
2.6897e+07
2.68845e+07
2.68744e+07
2.6864e+07
2.68357e+07
2.67978e+07
2.6754e+07
2.67113e+07
2.66719e+07
2.66305e+07
2.65891e+07
2.65578e+07
2.6526e+07
2.64794e+07
2.64142e+07
2.63618e+07
2.63168e+07
2.62449e+07
2.61559e+07
2.60378e+07
2.59402e+07
2.58591e+07
2.57439e+07
2.5593e+07
2.5462e+07
1.15095e+07
1.1684e+07
1.18571e+07
1.20326e+07
1.22102e+07
1.23859e+07
1.25638e+07
1.27437e+07
1.2922e+07
1.30982e+07
1.32766e+07
1.3457e+07
1.36344e+07
1.38138e+07
1.39953e+07
1.41742e+07
1.43503e+07
1.45285e+07
1.47086e+07
1.48849e+07
1.50631e+07
1.52433e+07
1.54205e+07
1.55945e+07
1.57703e+07
1.59478e+07
1.61214e+07
1.62965e+07
1.64734e+07
1.66472e+07
1.68176e+07
1.69893e+07
1.71625e+07
1.73325e+07
1.74994e+07
1.76674e+07
1.78363e+07
1.8002e+07
1.81681e+07
1.8335e+07
1.84994e+07
1.86615e+07
1.88235e+07
1.89857e+07
1.9146e+07
1.93045e+07
1.94625e+07
1.96207e+07
1.97775e+07
1.99335e+07
2.00894e+07
2.02446e+07
2.03985e+07
2.05522e+07
2.07062e+07
2.08592e+07
2.10101e+07
2.11617e+07
2.13146e+07
2.14654e+07
2.1612e+07
2.17611e+07
2.19128e+07
2.20602e+07
2.22007e+07
2.23455e+07
2.24946e+07
2.26362e+07
2.27682e+07
2.29058e+07
2.30493e+07
2.318e+07
2.33155e+07
2.34574e+07
2.35914e+07
2.37148e+07
2.38442e+07
2.39813e+07
2.41106e+07
2.42301e+07
2.43555e+07
2.44882e+07
2.46135e+07
2.47283e+07
2.48486e+07
2.49756e+07
2.50963e+07
2.52049e+07
2.53203e+07
2.54416e+07
2.5552e+07
2.56506e+07
2.57335e+07
2.58252e+07
2.59271e+07
2.60135e+07
2.60797e+07
2.61532e+07
2.62328e+07
2.62951e+07
2.63407e+07
2.63969e+07
2.64631e+07
2.65121e+07
2.65475e+07
2.65928e+07
2.66461e+07
2.66854e+07
2.67144e+07
2.67513e+07
2.6797e+07
2.68314e+07
2.68512e+07
2.68729e+07
2.68951e+07
2.68989e+07
2.68899e+07
2.68826e+07
2.68745e+07
2.68488e+07
2.68138e+07
2.6773e+07
2.67339e+07
2.66972e+07
2.66572e+07
2.66154e+07
2.65864e+07
2.65566e+07
2.65098e+07
2.64407e+07
2.6387e+07
2.63424e+07
2.62693e+07
2.61775e+07
2.60545e+07
2.59532e+07
2.58713e+07
2.57537e+07
2.55982e+07
2.54633e+07
1.1602e+07
1.17729e+07
1.19426e+07
1.21147e+07
1.2289e+07
1.24616e+07
1.26364e+07
1.28133e+07
1.29887e+07
1.31622e+07
1.33379e+07
1.35157e+07
1.36906e+07
1.38676e+07
1.40466e+07
1.42233e+07
1.43973e+07
1.45734e+07
1.47514e+07
1.49259e+07
1.51022e+07
1.52805e+07
1.5456e+07
1.56283e+07
1.58026e+07
1.59785e+07
1.61506e+07
1.63243e+07
1.64997e+07
1.66721e+07
1.68413e+07
1.70118e+07
1.71837e+07
1.73526e+07
1.75186e+07
1.76856e+07
1.78535e+07
1.80183e+07
1.81835e+07
1.83495e+07
1.85132e+07
1.86746e+07
1.88359e+07
1.89976e+07
1.91574e+07
1.93156e+07
1.94734e+07
1.96313e+07
1.97879e+07
1.99439e+07
2.00998e+07
2.0255e+07
2.0409e+07
2.0563e+07
2.07172e+07
2.08704e+07
2.10217e+07
2.11739e+07
2.13272e+07
2.14784e+07
2.16257e+07
2.17756e+07
2.19278e+07
2.20757e+07
2.2217e+07
2.23628e+07
2.25123e+07
2.26545e+07
2.27872e+07
2.29257e+07
2.30695e+07
2.32006e+07
2.33365e+07
2.34787e+07
2.36125e+07
2.37355e+07
2.38642e+07
2.40002e+07
2.41282e+07
2.42465e+07
2.43699e+07
2.45003e+07
2.46234e+07
2.47368e+07
2.48542e+07
2.4979e+07
2.50989e+07
2.52076e+07
2.53191e+07
2.54349e+07
2.55434e+07
2.56418e+07
2.57232e+07
2.58125e+07
2.5913e+07
2.60001e+07
2.60649e+07
2.61359e+07
2.62162e+07
2.62812e+07
2.63263e+07
2.63799e+07
2.64469e+07
2.64995e+07
2.65349e+07
2.65774e+07
2.66315e+07
2.66749e+07
2.67051e+07
2.67393e+07
2.67852e+07
2.68243e+07
2.68468e+07
2.68666e+07
2.68888e+07
2.68985e+07
2.68951e+07
2.68871e+07
2.68782e+07
2.68584e+07
2.68299e+07
2.67896e+07
2.67497e+07
2.67175e+07
2.66833e+07
2.664e+07
2.66074e+07
2.65802e+07
2.65369e+07
2.64649e+07
2.64051e+07
2.63599e+07
2.62886e+07
2.61965e+07
2.60661e+07
2.59588e+07
2.5878e+07
2.57614e+07
2.55979e+07
2.54598e+07
1.16964e+07
1.18636e+07
1.20299e+07
1.21987e+07
1.23696e+07
1.2539e+07
1.27106e+07
1.28844e+07
1.30569e+07
1.32277e+07
1.34007e+07
1.35757e+07
1.37482e+07
1.39226e+07
1.40992e+07
1.42736e+07
1.44455e+07
1.46195e+07
1.47954e+07
1.49679e+07
1.51423e+07
1.53187e+07
1.54923e+07
1.56631e+07
1.58357e+07
1.601e+07
1.61807e+07
1.63528e+07
1.65267e+07
1.66978e+07
1.68657e+07
1.70351e+07
1.72057e+07
1.73735e+07
1.75386e+07
1.77046e+07
1.78715e+07
1.80354e+07
1.81998e+07
1.8365e+07
1.85279e+07
1.86886e+07
1.88494e+07
1.90105e+07
1.91699e+07
1.93277e+07
1.94852e+07
1.96429e+07
1.97992e+07
1.99552e+07
2.01111e+07
2.02662e+07
2.04202e+07
2.05743e+07
2.07287e+07
2.0882e+07
2.10336e+07
2.11862e+07
2.13397e+07
2.14912e+07
2.1639e+07
2.17895e+07
2.1942e+07
2.20901e+07
2.22321e+07
2.23785e+07
2.25282e+07
2.26706e+07
2.28041e+07
2.29432e+07
2.3087e+07
2.32184e+07
2.33547e+07
2.34969e+07
2.36303e+07
2.37532e+07
2.38813e+07
2.40162e+07
2.41429e+07
2.42601e+07
2.43818e+07
2.45098e+07
2.46304e+07
2.47422e+07
2.48578e+07
2.49802e+07
2.50968e+07
2.52025e+07
2.53107e+07
2.54221e+07
2.5528e+07
2.56248e+07
2.5707e+07
2.57947e+07
2.58928e+07
2.59794e+07
2.60451e+07
2.61156e+07
2.61954e+07
2.62618e+07
2.63082e+07
2.63623e+07
2.64292e+07
2.64831e+07
2.65198e+07
2.65632e+07
2.66176e+07
2.66621e+07
2.66938e+07
2.67291e+07
2.67755e+07
2.68156e+07
2.68406e+07
2.68619e+07
2.68854e+07
2.68977e+07
2.68975e+07
2.68926e+07
2.68858e+07
2.68697e+07
2.68447e+07
2.6807e+07
2.67707e+07
2.67421e+07
2.67099e+07
2.6665e+07
2.66333e+07
2.6608e+07
2.65641e+07
2.64877e+07
2.64257e+07
2.63803e+07
2.63083e+07
2.62132e+07
2.60775e+07
2.59658e+07
2.5881e+07
2.5762e+07
2.55972e+07
2.54587e+07
1.17939e+07
1.19576e+07
1.21202e+07
1.22856e+07
1.24532e+07
1.26192e+07
1.27878e+07
1.29586e+07
1.3128e+07
1.32958e+07
1.34661e+07
1.36384e+07
1.38081e+07
1.39802e+07
1.41543e+07
1.43262e+07
1.44958e+07
1.46677e+07
1.48415e+07
1.50119e+07
1.51844e+07
1.53588e+07
1.55306e+07
1.56996e+07
1.58706e+07
1.60432e+07
1.62122e+07
1.63829e+07
1.65554e+07
1.6725e+07
1.68915e+07
1.70596e+07
1.72291e+07
1.73957e+07
1.75596e+07
1.77246e+07
1.78906e+07
1.80535e+07
1.82171e+07
1.83815e+07
1.85436e+07
1.87037e+07
1.88639e+07
1.90245e+07
1.91833e+07
1.93406e+07
1.94979e+07
1.96553e+07
1.98114e+07
1.99673e+07
2.01231e+07
2.02781e+07
2.0432e+07
2.05863e+07
2.07408e+07
2.08941e+07
2.10458e+07
2.11988e+07
2.13525e+07
2.1504e+07
2.16522e+07
2.18032e+07
2.19559e+07
2.21042e+07
2.22465e+07
2.23933e+07
2.25432e+07
2.26858e+07
2.28198e+07
2.29595e+07
2.31037e+07
2.3235e+07
2.33712e+07
2.35133e+07
2.36465e+07
2.37688e+07
2.38962e+07
2.40303e+07
2.41559e+07
2.42717e+07
2.43917e+07
2.45177e+07
2.46363e+07
2.47465e+07
2.48602e+07
2.49809e+07
2.50932e+07
2.51966e+07
2.53016e+07
2.54096e+07
2.55126e+07
2.56078e+07
2.56895e+07
2.57751e+07
2.58704e+07
2.59563e+07
2.6022e+07
2.60909e+07
2.61699e+07
2.62384e+07
2.62856e+07
2.63382e+07
2.64056e+07
2.64628e+07
2.65005e+07
2.6542e+07
2.65972e+07
2.66461e+07
2.66794e+07
2.67128e+07
2.67594e+07
2.68042e+07
2.68323e+07
2.68524e+07
2.6876e+07
2.68942e+07
2.68988e+07
2.68938e+07
2.68876e+07
2.68776e+07
2.68597e+07
2.68218e+07
2.67852e+07
2.67614e+07
2.67346e+07
2.6687e+07
2.66512e+07
2.66285e+07
2.65872e+07
2.6507e+07
2.64387e+07
2.63929e+07
2.63224e+07
2.62265e+07
2.60818e+07
2.59634e+07
2.58797e+07
2.57609e+07
2.55943e+07
2.54524e+07
1.18928e+07
1.20528e+07
1.2212e+07
1.23738e+07
1.2538e+07
1.27009e+07
1.2866e+07
1.30335e+07
1.31999e+07
1.33649e+07
1.35324e+07
1.37019e+07
1.3869e+07
1.40383e+07
1.42098e+07
1.43794e+07
1.45468e+07
1.47164e+07
1.48879e+07
1.50564e+07
1.52267e+07
1.53992e+07
1.55691e+07
1.57364e+07
1.59057e+07
1.60766e+07
1.62442e+07
1.64132e+07
1.65841e+07
1.67523e+07
1.69177e+07
1.70845e+07
1.72527e+07
1.74182e+07
1.75811e+07
1.77452e+07
1.79103e+07
1.80723e+07
1.82349e+07
1.83986e+07
1.85601e+07
1.87195e+07
1.88791e+07
1.90392e+07
1.91976e+07
1.93545e+07
1.95114e+07
1.96686e+07
1.98244e+07
1.99801e+07
2.01359e+07
2.02908e+07
2.04446e+07
2.05988e+07
2.07533e+07
2.09066e+07
2.10581e+07
2.12111e+07
2.13649e+07
2.15164e+07
2.16644e+07
2.18154e+07
2.19681e+07
2.21163e+07
2.22586e+07
2.24055e+07
2.25551e+07
2.26972e+07
2.2831e+07
2.29708e+07
2.31141e+07
2.32462e+07
2.33824e+07
2.35244e+07
2.36574e+07
2.37795e+07
2.39061e+07
2.40395e+07
2.41642e+07
2.42789e+07
2.43973e+07
2.4522e+07
2.46393e+07
2.4748e+07
2.48596e+07
2.49748e+07
2.50853e+07
2.51866e+07
2.52885e+07
2.53929e+07
2.5492e+07
2.55841e+07
2.56664e+07
2.57507e+07
2.58412e+07
2.59242e+07
2.5992e+07
2.60622e+07
2.61382e+07
2.62054e+07
2.6256e+07
2.63123e+07
2.63781e+07
2.64341e+07
2.64749e+07
2.6521e+07
2.65766e+07
2.66239e+07
2.66592e+07
2.66974e+07
2.67457e+07
2.67887e+07
2.68179e+07
2.68434e+07
2.68711e+07
2.68887e+07
2.68943e+07
2.68957e+07
2.6896e+07
2.68867e+07
2.68672e+07
2.68348e+07
2.68061e+07
2.67852e+07
2.67562e+07
2.67052e+07
2.66722e+07
2.66521e+07
2.66058e+07
2.65183e+07
2.64494e+07
2.6406e+07
2.63309e+07
2.62255e+07
2.60796e+07
2.59622e+07
2.58772e+07
2.57546e+07
2.55867e+07
2.54455e+07
1.19969e+07
1.21533e+07
1.23091e+07
1.24675e+07
1.26282e+07
1.27879e+07
1.29499e+07
1.31141e+07
1.32776e+07
1.34398e+07
1.36043e+07
1.37709e+07
1.39355e+07
1.41022e+07
1.42711e+07
1.44382e+07
1.46034e+07
1.47707e+07
1.49399e+07
1.51063e+07
1.52746e+07
1.54448e+07
1.56129e+07
1.57784e+07
1.59458e+07
1.61149e+07
1.62809e+07
1.64483e+07
1.66175e+07
1.67842e+07
1.69482e+07
1.71136e+07
1.72804e+07
1.74446e+07
1.76064e+07
1.77693e+07
1.79332e+07
1.80942e+07
1.82559e+07
1.84186e+07
1.85792e+07
1.87377e+07
1.88967e+07
1.90562e+07
1.9214e+07
1.93702e+07
1.95268e+07
1.96836e+07
1.9839e+07
1.99945e+07
2.01502e+07
2.03049e+07
2.04585e+07
2.06126e+07
2.07672e+07
2.09206e+07
2.10722e+07
2.12252e+07
2.13792e+07
2.1531e+07
2.16793e+07
2.18304e+07
2.19832e+07
2.21317e+07
2.22747e+07
2.24215e+07
2.25711e+07
2.27138e+07
2.28486e+07
2.29883e+07
2.31317e+07
2.32638e+07
2.34001e+07
2.35413e+07
2.36737e+07
2.37957e+07
2.39221e+07
2.4054e+07
2.41771e+07
2.42907e+07
2.4408e+07
2.45303e+07
2.46449e+07
2.47521e+07
2.48622e+07
2.4976e+07
2.50814e+07
2.518e+07
2.52792e+07
2.538e+07
2.54751e+07
2.5564e+07
2.56466e+07
2.57296e+07
2.5815e+07
2.58947e+07
2.59659e+07
2.60369e+07
2.61096e+07
2.61757e+07
2.62318e+07
2.62909e+07
2.63545e+07
2.64102e+07
2.64556e+07
2.65054e+07
2.656e+07
2.66068e+07
2.66452e+07
2.66876e+07
2.6736e+07
2.67778e+07
2.68091e+07
2.68395e+07
2.68694e+07
2.68873e+07
2.68949e+07
2.69027e+07
2.69079e+07
2.69004e+07
2.68829e+07
2.68543e+07
2.6832e+07
2.68145e+07
2.67853e+07
2.67332e+07
2.67022e+07
2.66838e+07
2.66337e+07
2.65426e+07
2.64741e+07
2.64307e+07
2.63499e+07
2.62411e+07
2.60949e+07
2.59752e+07
2.58813e+07
2.5755e+07
2.55876e+07
2.54468e+07
1.21034e+07
1.22561e+07
1.24085e+07
1.25634e+07
1.27206e+07
1.2877e+07
1.30359e+07
1.31968e+07
1.33571e+07
1.35165e+07
1.36781e+07
1.38418e+07
1.40037e+07
1.41678e+07
1.43339e+07
1.44985e+07
1.46614e+07
1.48263e+07
1.49931e+07
1.51574e+07
1.53236e+07
1.54917e+07
1.56577e+07
1.58214e+07
1.5987e+07
1.61542e+07
1.63185e+07
1.64843e+07
1.66517e+07
1.68168e+07
1.69795e+07
1.71435e+07
1.73088e+07
1.74717e+07
1.76324e+07
1.77941e+07
1.79568e+07
1.81168e+07
1.82776e+07
1.84393e+07
1.8599e+07
1.87568e+07
1.89151e+07
1.90739e+07
1.92311e+07
1.93868e+07
1.95429e+07
1.96993e+07
1.98543e+07
2.00095e+07
2.01651e+07
2.03196e+07
2.04729e+07
2.06269e+07
2.07815e+07
2.09349e+07
2.10864e+07
2.12394e+07
2.13934e+07
2.15452e+07
2.16937e+07
2.18448e+07
2.19976e+07
2.21462e+07
2.22894e+07
2.24363e+07
2.25857e+07
2.27284e+07
2.28636e+07
2.30034e+07
2.31464e+07
2.32787e+07
2.34148e+07
2.35553e+07
2.36872e+07
2.38089e+07
2.39345e+07
2.40651e+07
2.41871e+07
2.42996e+07
2.44154e+07
2.45357e+07
2.46488e+07
2.47546e+07
2.48631e+07
2.49744e+07
2.50764e+07
2.51724e+07
2.52686e+07
2.53662e+07
2.54582e+07
2.55449e+07
2.56262e+07
2.57069e+07
2.57891e+07
2.58674e+07
2.5939e+07
2.6009e+07
2.60801e+07
2.61472e+07
2.62056e+07
2.62646e+07
2.63274e+07
2.63854e+07
2.64333e+07
2.6483e+07
2.65376e+07
2.65875e+07
2.66285e+07
2.66705e+07
2.67189e+07
2.67642e+07
2.67986e+07
2.68288e+07
2.68595e+07
2.68825e+07
2.68951e+07
2.69033e+07
2.69103e+07
2.69088e+07
2.68971e+07
2.68677e+07
2.68463e+07
2.68347e+07
2.68093e+07
2.6754e+07
2.67196e+07
2.67034e+07
2.66542e+07
2.65602e+07
2.6487e+07
2.64408e+07
2.63601e+07
2.62512e+07
2.61004e+07
2.5973e+07
2.58782e+07
2.57519e+07
2.55841e+07
2.54409e+07
1.22117e+07
1.23607e+07
1.25096e+07
1.2661e+07
1.28148e+07
1.29679e+07
1.31234e+07
1.32811e+07
1.34383e+07
1.35947e+07
1.37534e+07
1.39142e+07
1.40734e+07
1.42347e+07
1.43981e+07
1.45602e+07
1.47207e+07
1.48833e+07
1.50477e+07
1.52098e+07
1.53738e+07
1.55397e+07
1.57036e+07
1.58655e+07
1.60292e+07
1.61945e+07
1.63571e+07
1.65212e+07
1.66869e+07
1.68505e+07
1.70117e+07
1.71743e+07
1.73382e+07
1.74998e+07
1.76593e+07
1.78199e+07
1.79814e+07
1.81404e+07
1.83002e+07
1.8461e+07
1.86198e+07
1.87768e+07
1.89344e+07
1.90926e+07
1.92491e+07
1.94043e+07
1.95599e+07
1.97159e+07
1.98704e+07
2.00254e+07
2.01808e+07
2.0335e+07
2.0488e+07
2.06418e+07
2.07963e+07
2.09494e+07
2.11007e+07
2.12536e+07
2.14075e+07
2.15591e+07
2.17076e+07
2.18585e+07
2.20111e+07
2.21595e+07
2.23029e+07
2.24496e+07
2.25986e+07
2.27412e+07
2.28767e+07
2.30163e+07
2.31588e+07
2.32911e+07
2.34269e+07
2.35667e+07
2.3698e+07
2.38194e+07
2.39444e+07
2.40739e+07
2.41948e+07
2.43064e+07
2.44209e+07
2.45399e+07
2.46516e+07
2.47562e+07
2.48631e+07
2.49702e+07
2.50703e+07
2.5164e+07
2.52577e+07
2.53521e+07
2.5441e+07
2.55251e+07
2.56049e+07
2.56833e+07
2.57621e+07
2.5838e+07
2.59098e+07
2.59788e+07
2.60473e+07
2.61138e+07
2.6175e+07
2.62346e+07
2.6296e+07
2.63553e+07
2.64069e+07
2.6458e+07
2.65123e+07
2.65646e+07
2.66091e+07
2.66527e+07
2.67011e+07
2.67487e+07
2.67862e+07
2.68185e+07
2.68507e+07
2.68777e+07
2.68941e+07
2.69057e+07
2.69166e+07
2.69202e+07
2.69125e+07
2.68835e+07
2.68648e+07
2.68581e+07
2.68339e+07
2.67749e+07
2.67388e+07
2.67232e+07
2.66721e+07
2.65743e+07
2.64986e+07
2.64501e+07
2.6365e+07
2.62514e+07
2.60997e+07
2.59717e+07
2.5875e+07
2.57471e+07
2.55791e+07
2.54349e+07
1.23227e+07
1.24681e+07
1.26134e+07
1.27614e+07
1.29117e+07
1.30614e+07
1.32136e+07
1.33682e+07
1.35222e+07
1.36755e+07
1.38312e+07
1.39891e+07
1.41454e+07
1.4304e+07
1.44648e+07
1.46242e+07
1.47821e+07
1.49423e+07
1.51044e+07
1.52641e+07
1.54259e+07
1.55897e+07
1.57515e+07
1.59113e+07
1.60731e+07
1.62366e+07
1.63973e+07
1.65597e+07
1.67238e+07
1.68857e+07
1.70453e+07
1.72065e+07
1.7369e+07
1.75293e+07
1.76874e+07
1.78469e+07
1.80073e+07
1.81652e+07
1.8324e+07
1.84839e+07
1.86418e+07
1.87979e+07
1.89547e+07
1.91123e+07
1.92682e+07
1.94227e+07
1.95778e+07
1.97334e+07
1.98874e+07
2.0042e+07
2.01972e+07
2.03511e+07
2.05036e+07
2.06572e+07
2.08116e+07
2.09644e+07
2.11153e+07
2.12681e+07
2.14218e+07
2.15731e+07
2.17213e+07
2.18721e+07
2.20244e+07
2.21725e+07
2.23156e+07
2.24622e+07
2.2611e+07
2.27533e+07
2.28886e+07
2.3028e+07
2.31703e+07
2.33021e+07
2.34375e+07
2.35768e+07
2.37075e+07
2.38282e+07
2.39524e+07
2.40809e+07
2.4201e+07
2.43116e+07
2.44253e+07
2.45432e+07
2.46535e+07
2.47569e+07
2.486e+07
2.49651e+07
2.50635e+07
2.51551e+07
2.52463e+07
2.53382e+07
2.54248e+07
2.55068e+07
2.55848e+07
2.5661e+07
2.57374e+07
2.58116e+07
2.58829e+07
2.59506e+07
2.60174e+07
2.60839e+07
2.61466e+07
2.62061e+07
2.62663e+07
2.63268e+07
2.63811e+07
2.64327e+07
2.64866e+07
2.65414e+07
2.65889e+07
2.66328e+07
2.66812e+07
2.67318e+07
2.67724e+07
2.68053e+07
2.68383e+07
2.68703e+07
2.6891e+07
2.69041e+07
2.69166e+07
2.69264e+07
2.6924e+07
2.68927e+07
2.68745e+07
2.68735e+07
2.68513e+07
2.67889e+07
2.67491e+07
2.67348e+07
2.66844e+07
2.65838e+07
2.65012e+07
2.64498e+07
2.63641e+07
2.62498e+07
2.60963e+07
2.59658e+07
2.58676e+07
2.57398e+07
2.55711e+07
2.54226e+07
1.24349e+07
1.25765e+07
1.27183e+07
1.28627e+07
1.30095e+07
1.31559e+07
1.33047e+07
1.34558e+07
1.36067e+07
1.3757e+07
1.39098e+07
1.40646e+07
1.42181e+07
1.43738e+07
1.45317e+07
1.46885e+07
1.4844e+07
1.50017e+07
1.51613e+07
1.53189e+07
1.54783e+07
1.56398e+07
1.57995e+07
1.59574e+07
1.61173e+07
1.62788e+07
1.64378e+07
1.65983e+07
1.67607e+07
1.6921e+07
1.70792e+07
1.72389e+07
1.74e+07
1.75589e+07
1.77159e+07
1.78742e+07
1.80335e+07
1.81903e+07
1.83481e+07
1.85071e+07
1.86642e+07
1.88195e+07
1.89756e+07
1.91325e+07
1.92878e+07
1.94416e+07
1.95962e+07
1.97514e+07
1.99049e+07
2.0059e+07
2.02139e+07
2.03675e+07
2.05196e+07
2.06727e+07
2.08268e+07
2.09793e+07
2.11297e+07
2.1282e+07
2.14354e+07
2.15863e+07
2.17338e+07
2.18841e+07
2.20359e+07
2.21836e+07
2.23262e+07
2.24723e+07
2.26204e+07
2.27622e+07
2.2897e+07
2.30361e+07
2.31776e+07
2.33091e+07
2.34435e+07
2.35819e+07
2.37122e+07
2.38327e+07
2.39562e+07
2.40842e+07
2.42038e+07
2.4314e+07
2.44267e+07
2.45437e+07
2.46527e+07
2.47522e+07
2.48532e+07
2.49575e+07
2.50547e+07
2.51445e+07
2.52336e+07
2.53237e+07
2.54082e+07
2.54881e+07
2.55647e+07
2.56392e+07
2.57133e+07
2.57855e+07
2.58564e+07
2.59229e+07
2.59874e+07
2.60526e+07
2.61169e+07
2.61765e+07
2.62347e+07
2.62948e+07
2.63521e+07
2.64055e+07
2.64586e+07
2.6514e+07
2.65646e+07
2.66119e+07
2.66605e+07
2.67115e+07
2.67543e+07
2.67914e+07
2.68272e+07
2.68614e+07
2.68836e+07
2.69017e+07
2.69199e+07
2.69325e+07
2.69302e+07
2.68978e+07
2.6884e+07
2.68863e+07
2.68618e+07
2.67944e+07
2.67536e+07
2.67396e+07
2.66823e+07
2.65762e+07
2.64921e+07
2.64442e+07
2.63568e+07
2.62395e+07
2.60872e+07
2.59568e+07
2.58539e+07
2.57223e+07
2.55544e+07
2.54071e+07
1.25517e+07
1.26898e+07
1.28282e+07
1.29691e+07
1.31124e+07
1.32556e+07
1.34011e+07
1.3549e+07
1.36968e+07
1.38441e+07
1.39938e+07
1.41457e+07
1.42964e+07
1.44493e+07
1.46044e+07
1.47586e+07
1.49116e+07
1.50668e+07
1.52239e+07
1.53791e+07
1.55363e+07
1.56954e+07
1.5853e+07
1.60089e+07
1.61667e+07
1.63262e+07
1.64834e+07
1.66421e+07
1.68026e+07
1.69612e+07
1.71178e+07
1.72759e+07
1.74354e+07
1.7593e+07
1.77486e+07
1.79055e+07
1.80636e+07
1.82193e+07
1.8376e+07
1.85338e+07
1.86899e+07
1.88443e+07
1.89994e+07
1.91556e+07
1.93101e+07
1.94632e+07
1.9617e+07
1.97717e+07
1.99247e+07
2.00783e+07