/*--------------------------------*- C++ -*----------------------------------*\
| =========                 |                                                 |
| \\      /  F ield         | OpenFOAM: The Open Source CFD Toolbox           |
|  \\    /   O peration     | Version:  v2012                                 |
|   \\  /    A nd           | Website:  www.openfoam.com                      |
|    \\/     M anipulation  |                                                 |
\*---------------------------------------------------------------------------*/
FoamFile
{
    version     2.0;
    format      ascii;
    class       volScalarField;
    location    "1e-06";
    object      totalP;
}
// * * * * * * * * * * * * * * * * * * * * * * * * * * * * * * * * * * * * * //

dimensions      [1 -1 -2 0 0 0 0];


internalField   nonuniform List<scalar> 
10098
(
300035
300931
300233
301093
306453
308153
306190
307981
312636
315387
313565
315876
299982
300781
300261
301218
306527
308070
306225
308110
312757
315399
313595
315999
300207
301074
300590
301501
306775
308378
306597
308417
313099
315754
314003
316299
286641
289703
290647
289749
289958
292979
293027
293411
294141
296055
296334
297070
300097
300825
300558
301587
306643
308102
306462
308411
313166
315617
313927
316443
286218
289295
290645
289675
289612
292592
293034
293432
293937
295806
296373
297285
300140
300691
300646
301878
306854
308169
306629
308693
313433
315747
314013
316593
286851
289896
291120
290056
290131
293166
293441
293617
294321
296304
296753
297581
300428
301033
301054
302224
307130
308529
307068
309048
313726
316146
314487
316951
286788
289795
291357
290265
290061
293001
293582
293954
294258
296127
296806
297797
300395
300837
301085
302403
307232
308438
307087
309237
313898
316147
314508
317120
287531
290518
291886
290694
290680
293688
294079
294027
294739
296771
297278
298161
300769
301311
301597
302793
307571
308913
307660
309670
314246
316630
315096
317546
287946
287480
290461
292143
290926
290623
293557
294242
294447
294671
296617
297339
298385
300737
301119
301635
302988
307675
308822
307712
309879
314425
316637
315159
317739
290496
288617
288412
291387
292755
291426
291404
294448
294832
294605
295291
297483
297930
298799
301206
301764
302280
303393
308059
309434
308445
310386
314805
317221
315895
318247
289777
290875
288882
288401
291380
293051
291683
291378
294358
295041
294927
295189
297347
298022
299041
301172
301589
302347
303619
308166
309348
308540
310629
314991
317228
316001
318481
288313
290980
291627
289635
289567
292554
293762
292241
292347
295517
295763
295217
295963
298505
298758
299489
301748
302454
303170
304085
308609
310128
309475
311230
315397
317937
316931
319089
321765
285970
286125
288158
289156
287083
287136
289825
290781
288426
288411
291170
292102
289960
289641
292631
294165
292579
292390
295511
296076
295621
295989
298441
298925
299793
301726
302311
303293
304343
308656
310046
309613
311534
315590
317940
317070
319380
322203
321325
322993
325733
328119
324579
325913
287064
287612
289270
289730
287869
288338
290819
291230
288978
289411
292100
292509
290305
290443
293540
294600
292768
293037
296455
296628
295659
296468
299467
299631
300185
302348
303280
304243
304949
309336
311100
310830
312330
316234
318880
318243
320087
322543
321760
323597
326179
328232
324614
326135
289586
290398
291549
291612
290200
291005
292996
292956
291091
291980
294250
294130
292147
292822
295645
296112
294257
295112
298496
298043
296803
298215
301465
300870
301147
303392
304656
305391
305678
309966
312114
311893
313033
316779
319777
319469
320983
323436
322957
324946
327290
329226
325827
327572
289778
290386
291975
292205
290490
291035
293348
293522
291460
292014
294480
294632
292540
292820
295720
296512
294628
295091
298461
298338
297160
298142
301059
301036
301530
303392
304453
305571
306098
310145
312034
312129
313486
317027
319737
319650
321317
323835
322979
324815
327547
329556
325929
327472
293058
293216
292117
292993
294236
293953
292484
293365
295353
295025
293203
294183
296368
296019
294065
294823
297548
297883
295930
296886
300263
299713
298222
299722
303262
302442
302633
304605
306031
306985
307131
311106
313464
313631
314645
317891
320991
321173
322411
324717
323988
325991
328562
330315
326710
328481
291012
291471
293575
294071
292430
292990
294671
294726
292911
293419
295721
295763
293734
294281
296642
296684
294671
294906
297689
298416
296532
296969
300281
300079
298799
299773
302609
302640
303166
304694
305806
307154
307677
311352
313331
313828
315202
318190
320879
321326
322764
325209
324057
325854
328842
330725
326899
328396
295494
295593
294235
294691
296649
296816
295205
295814
297357
297046
295300
295960
298084
297743
295855
296649
298795
298503
296606
297165
299752
300184
298291
299104
302275
301852
300380
301741
305072
304445
304742
306304
307660
308909
309171
312676
315066
315644
316784
319381
322369
323076
324153
326399
325245
327132
330058
331703
327842
329513
296496
296176
296752
294613
294735
297189
297804
295594
295844
297802
297939
295780
296039
298468
298574
296487
296774
299097
299291
297357
297320
299941
300845
299090
299275
302339
302325
301174
301885
304709
304711
305448
306500
307440
309080
309855
312991
314880
315815
317441
319725
322161
323215
324539
326969
325301
326954
330359
332180
328076
329399
297793
300320
299850
300200
298138
298172
300593
300958
298721
298949
300873
300705
298535
298855
301182
300988
298957
299420
301586
301490
299640
299884
302335
302980
301248
301778
304621
304510
303212
304239
307157
306965
307499
308594
309735
311313
311853
314763
317067
318116
319522
321256
323960
325287
326253
328442
326688
328399
331814
333375
329198
330644
298285
300582
300578
301443
298612
298335
301217
302061
299184
299064
301401
301712
299103
298989
301624
301950
299668
299607
301937
302400
300512
300142
302589
303798
302225
302076
304753
305174
304255
304594
307074
307395
308452
308954
309571
311542
312723
315152
316850
318277
320303
321651
323692
325419
326697
329151
326723
328175
332166
333918
329501
330496
302266
304585
304359
304835
302228
302074
304779
305219
302448
302475
304702
304618
302076
302167
304678
304548
302332
302581
304759
304783
302970
303020
305330
306139
304544
304907
307445
307642
306483
307296
309931
310050
310720
311472
312460
314324
315158
317312
319591
321184
322796
323449
325844
327951
328713
330742
328332
329886
333864
335279
330779
331952
303067
305096
305423
306389
302925
302506
305717
306621
303187
302799
305579
305967
302875
302466
305354
305780
303266
302911
305301
305954
304058
303433
305740
307239
305784
305398
307712
308611
307860
307858
310014
310861
312139
312088
312451
314740
316360
317838
319440
321406
323832
324035
325645
328097
329352
332015
328519
329681
334367
336114
331245
331955
305527
307770
307915
308322
305094
305234
308028
308402
305252
305351
307785
307680
304769
304815
307572
307493
305099
305236
307566
307678
305855
305755
308100
309047
307526
307727
310162
310651
309589
310204
312623
312884
313859
314353
315321
317459
318647
319883
322135
324292
326069
325416
327299
330347
330795
332645
329320
330736
335483
336659
331603
332557
310331
312692
312105
312365
310212
310482
312412
312471
310121
310449
312139
311681
309375
309714
311761
311182
309238
309825
311598
311128
309642
310143
312056
312362
311019
311966
314188
313980
312850
314347
316968
316713
317058
318140
319612
321076
321899
323158
326055
328168
329449
328421
330777
334235
333976
335904
332680
334031
338491
339267
334562
335643
310964
312862
312953
313606
310798
310707
313106
313533
310603
310595
312663
312710
309957
309831
312245
312216
309972
309951
312029
312158
310580
310323
312385
313319
312142
312234
314387
314818
314196
314789
316859
317290
318491
318693
319492
321644
323318
323761
325807
328497
330591
329020
330386
334211
334480
336718
332637
333544
338770
339931
334879
335307
271919
272806
272962
273477
274312
274362
274785
275510
275960
275898
276291
277098
276958
277312
278034
278433
278291
278680
279527
279359
279726
280510
280930
280817
281230
282138
282018
282423
283245
283719
283700
284157
284993
285458
285548
286037
286904
287058
287541
288344
288880
289212
289730
290505
291087
291548
292084
292835
293382
293943
294613
295323
295826
296386
297115
297883
298184
298723
299604
300426
300355
300883
302038
302837
302274
302795
304231
304909
303969
304438
306496
305291
305625
307242
307947
306799
307186
308928
309680
308705
309157
310908
311762
310738
311219
312890
313867
312442
312902
314773
315009
315555
313665
313800
315952
316299
313931
314145
315982
315832
313410
313500
315691
315364
313316
313605
315462
315249
313794
313953
315788
316363
315249
315805
317793
317960
317216
318358
320496
320713
321434
322109
323355
325295
326707
326904
329550
332316
334005
331708
333489
337632
337412
339329
335116
336042
341270
342058
336855
337553
270973
271884
272091
272658
273518
273610
274098
274838
275311
275289
275724
276539
276434
276831
277559
277968
277860
278276
279124
278986
279385
280166
280595
280508
280941
281841
281744
282172
282991
283467
283467
283937
284768
285234
285344
285843
286701
286864
287360
288160
288696
289039
289572
290336
290907
291378
291944
292682
293235
293823
294504
295200
295727
296329
297061
297824
298142
298747
299628
300419
300353
300943
302090
302874
302313
302902
304356
305083
304085
304568
306621
305428
305786
307429
308136
307055
307389
309149
309868
308995
309401
311172
312001
311259
311617
313287
314341
313355
313744
315364
315880
316761
314633
314592
316744
317519
314823
314708
316644
317031
314309
313965
316264
316532
314302
314029
315994
316384
314928
314422
316272
317405
316549
316328
318183
318883
318700
319008
320725
321515
323030
322810
323466
325893
328148
327618
329416
332717
335156
332453
333293
337784
338065
340321
335302
335820
341612
342955
337320
337529
269618
270542
270822
271419
272302
272468
272966
273742
274254
274318
274787
275612
275582
275991
276742
277183
277148
277589
278440
278364
278773
279564
280018
279994
280450
281346
281305
281738
282564
283061
283109
283594
284425
284910
285060
285579
286441
286630
287138
287942
288490
288852
289402
290168
290747
291226
291808
292547
293088
293686
294381
295060
295584
296199
296939
297674
298012
298627
299508
300276
300255
300886
301984
302727
302236
302842
304236
304904
303976
304477
306404
305260
305790
307468
308156
307145
307557
309316
310006
309214
309694
311422
312196
311583
311992
313628
314594
313939
314527
315895
316649
317541
316249
316364
318498
319367
317417
317503
319383
319769
317523
317434
319546
319644
317669
317715
319495
319601
318268
318175
319889
320678
319838
320102
321823
322333
321930
322743
324548
325276
326128
326445
327542
329927
331898
330958
333212
336700
338662
335214
336438
341172
340943
342898
337845
338477
344175
345193
339376
339994
268722
269687
269984
270644
271568
271738
272319
273135
273669
273740
274257
275116
275086
275561
276340
276791
276756
277231
278104
278021
278484
279295
279753
279722
280204
281115
281064
281540
282376
282870
282912
283417
284253
284737
284880
285406
286276
286453
286976
287781
288325
288674
289233
289999
290565
291041
291638
292381
292898
293522
294242
294902
295416
296077
296837
297551
297900
298603
299488
300236
300234
300936
302048
302776
302323
303017
304432
305127
304359
305047
307053
305919
306176
307827
308489
307439
307865
309608
310272
309467
309926
311649
312391
311854
312265
313917
314869
314478
315027
316431
317243
318313
317168
317282
319271
320489
318513
318352
320223
321196
318746
318207
320349
321181
318997
318364
320216
321136
319750
318840
320490
322135
321498
320838
322277
323636
323825
323613
324841
326387
328683
327454
327710
330698
333730
331930
333185
337269
340159
336400
336565
341597
342123
344376
338451
338518
344917
346469
340273
340186
267116
268091
268446
269113
270046
270301
270862
271683
272263
272389
272933
273799
273851
274307
275098
275593
275609
276114
276994
276984
277427
278258
278756
278772
279279
280205
280228
280682
281538
282075
282172
282693
283550
284070
284253
284817
285709
285933
286455
287301
287883
288256
288836
289635
290230
290702
291321
292097
292607
293227
293960
294629
295111
295752
296514
297215
297507
298176
299035
299742
299667
300338
301401
302061
301529
302207
303530
304085
303113
303784
305577
304586
305043
306772
307509
306576
306932
308788
309539
308858
309287
311094
311843
311396
311941
313666
314522
314305
314871
316263
317134
318079
317628
317911
319724
320860
319746
319947
321578
322403
320641
320629
322469
322983
321265
321247
322902
323343
322192
321978
323633
324650
324030
324112
325768
326509
326392
326992
328706
329630
330724
330357
331438
334178
336493
333890
335625
339983
341873
337014
337416
342892
342889
344754
339193
339756
345871
346905
340794
341193
266125
267140
267562
268271
269237
269550
270170
271029
271652
271847
272417
273304
273412
273919
274728
275258
275330
275841
276736
276770
277254
278085
278607
278673
279191
280103
280155
280644
281492
282030
282145
282678
283526
284051
284239
284800
285670
285888
286437
287241
287809
288161
288740
289522
290109
290554
291168
291949
292423
293045
293796
294462
294930
295591
296379
297088
297396
298078
298988
299728
299743
300434
301542
302273
301917
302612
303982
304690
304057
304757
306704
305675
306073
307687
308364
307496
307993
309702
310343
309671
310206
311868
312499
312110
312759
314342
315016
314966
315643
316992
317726
318564
318688
319199
320644
321648
321581
322098
323366
324246
323672
324030
325365
325966
325146
325511
326689
327043
326398
326648
327852
328596
328252
328868
330209
330707
330562
331752
333515
334205
335672
335177
336524
339094
341270
338475
340426
344865
346309
341407
342277
348267
347174
348628
343631
343973
349525
350426
344891
345483
265149
266173
266637
267385
268354
268710
269381
270236
270875
271112
271715
272603
272753
273297
274098
274638
274753
275294
276181
276251
276765
277588
278116
278219
278757
279663
279743
280256
281094
281638
281784
282334
283174
283703
283925
284494
285361
285592
286148
286959
287532
287891
288479
289264
289855
290307
290930
291722
292189
292827
293590
294254
294714
295392
296188
296890
297204
297905
298809
299540
299573
300290
301384
302091
301774
302495
303816
304480
303865
304562
306349
305452
305935
307530
308207
307370
307848
309533
310189
309554
310058
311709
312346
312010
312630
314224
314853
314944
315562
316902
317670
318529
318828
319378
320747
321877
322048
322531
323803
324940
324542
324747
326039
327016
326198
326200
327338
328170
327557
327313
328465
329717
329557
329508
330714
331793
332015
332354
333767
335029
336953
335465
336261
339579
342283
338659
339837
345015
346919
341742
341747
347487
347416
349180
343855
343870
349751
351062
345433
345464
263850
264882
265407
266173
267160
267576
268248
269139
269813
270122
270747
271645
271853
272409
273233
273803
273983
274541
275430
275554
276082
276917
277468
277625
278176
279080
279207
279730
280577
281139
281326
281890
282733
283283
283533
284118
284990
285243
285811
286630
287215
287582
288184
288981
289583
290026
290657
291466
291913
292545
293336
293999
294439
295104
295921
296615
296921
297603
298513
299231
299285
299978
301063
301759
301509
302207
303498
304159
303639
304318
306046
305256
305762
307324
308022
307284
307798
309446
310113
309546
310077
311689
312310
312039
312724
314233
314892
314997
315677
316974
317693
318449
318950
319577
320746
321683
322329
322924
323956
325026
325401
325844
326960
328066
328028
328374
329369
330349
330219
330406
331388
332678
332691
333081
334158
335395
335412
336160
337718
339049
340685
339060
340110
343605
345805
341461
342712
348004
349377
343727
343909
350063
349550
350916
346002
346219
351826
352783
347519
348027
263004
264069
264604
265421
266441
266860
267603
268520
269211
269523
270188
271118
271328
271941
272789
273371
273551
274141
275056
275181
275754
276605
277165
277313
277887
278813
278926
279487
280345
280909
281088
281671
282524
283072
283315
283906
284790
285029
285612
286440
287022
287373
287982
288787
289386
289819
290458
291283
291707
292359
293170
293837
294256
294947
295791
296484
296787
297509
298460
299171
299240
299983
301082
301786
301563
302304
303618
304284
303790
304494
306241
305429
305986
307548
308243
307475
308020
309645
310301
309691
310224
311835
312433
312171
312840
314295
314973
315061
315704
316981
317687
318445
319036
319674
320760
321706
322588
323235
324173
325354
326075
326551
327472
328780
329053
329271
330080
331391
331462
331333
332164
333828
334052
333953
334895
336537
336785
336932
338241
339957
342681
339691
340298
344373
346946
342184
342936
348810
350535
345619
345253
350922
350563
352076
346889
346751
352528
353923
348719
348605
261467
262530
263112
263928
264948
265434
266153
267070
267793
268152
268838
269767
270046
270645
271501
272117
272344
272962
273878
274069
274627
275494
276085
276279
276880
277811
277990
278531
279405
280007
280237
280832
281703
282285
282565
283189
284090
284373
284957
285812
286430
286800
287422
288257
288880
289307
289969
290820
291242
291881
292703
293384
293779
294446
295285
295973
296233
296917
297845
298528
298544
299247
300311
300967
300689
301402
302645
303250
302704
303426
305081
304396
304876
306436
307191
306535
306994
308657
309388
308880
309369
311033
311804
311664
312275
313798
314507
314685
315351
316724
317474
318249
319007
319722
320774
321651
322820
323521
324339
325427
326659
327252
328018
329281
330165
330667
331294
332611
333153
333476
334153
335733
336079
336482
337319
338985
338836
339338
340677
342119
343809
340120
341207
345497
347299
341546
342317
348561
349532
343227
342977
350325
350328
351609
347117
347535
352958
353984
349301
349667
260550
261645
262280
263131
264180
264710
265477
266432
267192
267608
268314
269268
269596
270238
271121
271771
272048
272674
273607
273836
274431
275306
275926
276157
276755
277689
277896
278470
279338
279945
280183
280786
281654
282244
282527
283145
284048
284327
284922
285766
286380
286737
287357
288188
288809
289215
289859
290725
291127
291765
292594
293272
293658
294329
295203
295910
296192
296884
297858
298582
298670
299381
300489
301208
301055
301771
303043
303743
303359
304047
305703
305100
305665
307164
307890
307299
307875
309435
310106
309620
310214
311752
312471
312217
312869
314309
314969
315126
315818
317073
317729
318421
319144
319865
320807
321568
322781
323555
324243
325203
326694
327481
328063
329222
330654
331450
331944
333240
334332
335069
335706
337221
337836
338713
339730
341221
340933
341957
343902
344944
347046
343902
344775
348829
350408
345159
346075
352193
352927
348147
348478
353957
353260
354303
350733
351078
355757
356738
353137
353770
259655
260752
261413
262298
263344
263904
264715
265658
266426
266869
267607
268561
268922
269602
270477
271139
271449
272104
273034
273293
273921
274786
275410
275668
276291
277217
277444
278045
278909
279521
279784
280403
281263
281859
282167
282796
283695
283987
284599
285442
286060
286425
287057
287887
288513
288926
289583
290453
290850
291506
292344
293024
293406
294092
294970
295673
295958
296672
297635
298350
298458
299191
300281
300988
300861
301599
302839
303514
303167
303878
305487
304917
305501
306978
307703
307152
307723
309263
309929
309465
310048
311583
312300
312053
312699
314147
314826
314999
315652
316914
317589
318304
319040
319749
320686
321454
322707
323481
324169
325121
326753
327553
328101
329315
330911
331716
332143
333534
334789
335501
336051
337690
338345
339062
339989
341698
341315
342112
343893
345090
347183
343265
344236
348847
350526
345129
345709
352020
352866
347748
347701
353784
353465
354727
351221
351322
355929
357300
354013
354132
258454
259547
260260
261143
262196
262806
263604
264575
265372
265883
266631
267592
268009
268691
269588
270276
270653
271323
272252
272565
273194
274072
274718
275033
275668
276593
276865
277466
278337
278969
279278
279907
280772
281386
281732
282368
283268
283583
284199
285051
285680
286062
286703
287545
288178
288599
289260
290141
290530
291178
292035
292716
293096
293769
294660
295356
295647
296340
297302
298015
298148
298851
299936
300634
300563
301277
302484
303151
302882
303581
305132
304654
305236
306675
307405
306947
307530
309032
309704
309328
309966
311442
312163
312018
312703
314092
314789
314978
315681
316918
317587
318299
319022
319783
320719
321465
322696
323523
324199
325092
326744
327604
328078
329178
330928
331822
332169
333485
334949
335822
336351
337983
338779
339660
340688
342468
341963
342842
344819
345876
347780
343962
344856
349205
350688
345487
346134
352127
352766
348309
348440
354238
353945
354978
352266
352630
356809
358052
355629
356201
257716
258827
259529
260461
261547
262134
263000
264004
264803
265301
266093
267084
267484
268230
269160
269854
270220
270924
271884
272176
272859
273765
274412
274709
275370
276322
276566
277212
278111
278740
279028
279681
280565
281176
281498
282147
283064
283353
283996
284866
285487
285846
286505
287361
287986
288388
289068
289966
290321
291006
291887
292563
292914
293627
294548
295238
295513
296259
297267
297962
298090
298856
299961
300655
300582
301345
302592
303259
302983
303716
305309
304777
305430
306894
307610
307105
307729
309246
309931
309481
310090
311607
312365
312172
312805
314192
314872
315020
315671
316884
317554
318266
318941
319650
320590
321329
322526
323322
323989
324859
326544
327429
327877
328938
330795
331783
332110
333364
334963
335978
336501
338014
338826
339882
341010
342728
342046
343094
345299
346412
348313
344712
345883
350962
352379
347325
347808
353981
354385
349490
349277
354829
354727
355801
353268
353280
357364
358993
357022
357023
256332
257432
258165
259092
260152
260801
261648
262619
263445
263976
264779
265765
266230
266959
267874
268600
269003
269731
270686
271045
271715
272614
273291
273630
274315
275267
275583
276209
277105
277777
278112
278774
279665
280306
280658
281341
282267
282601
283236
284118
284778
285156
285822
286696
287347
287745
288440
289356
289729
290386
291266
291961
292304
292984
293896
294591
294834
295541
296520
297207
297289
298017
299088
299753
299629
300370
301558
302189
301883
302634
304152
303715
304253
305693
306470
306085
306615
308126
308894
308636
309234
310826
311586
311483
312072
313539
314307
314546
315207
316536
317273
318037
318809
319587
320584
321375
322656
323477
324216
325124
326840
327744
328228
329268
331140
332141
332423
333614
335187
336229
336618
338034
338739
339811
340741
342343
341453
342329
344330
345181
346661
342376
343435
347694
348494
343001
343662
350316
351510
347465
347436
353532
353721
354725
353309
353704
357369
358694
357818
358357
255519
256633
257416
258353
259431
260126
260991
262002
262856
263457
264269
265266
265783
266539
267480
268233
268703
269431
270391
270796
271487
272397
273097
273488
274173
275122
275474
276131
277029
277701
278055
278719
279605
280256
280630
281293
282213
282552
283194
284073
284729
285111
285775
286647
287305
287706
288380
289302
289674
290337
291229
291925
292283
292970
293904
294615
294895
295609
296615
297336
297491
298219
299316
300030
300023
300755
301957
302654
302485
303187
304691
304351
304966
306351
307103
306799
307412
308831
309586
309364
309995
311428
312107
312031
312718
314088
314803
314979
315667
316876
317532
318238
318899
319658
320605
321330
322452
323280
323997
324839
326384
327298
327812
328790
330539
331554
331941
333100
334642
335726
336300
337713
338496
339629
340813
342459
341822
342860
345171
346212
348039
344737
345971
350779
352119
347596
348288
353852
354053
350088
350237
355379
355256
355996
355077
355438
358539
359692
359841
360619
254798
255919
256709
257673
258755
259460
260368
261371
262239
262836
263675
264684
265213
266008
266948
267718
268186
268942
269917
270329
271057
271969
272681
273069
273776
274738
275095
275782
276681
277363
277719
278399
279289
279946
280312
280989
281922
282260
282920
283802
284466
284841
285519
286396
287056
287449
288140
289076
289433
290120
291022
291724
292068
292778
293722
294441
294712
295449
296463
297188
297343
298095
299199
299919
299918
300674
301886
302583
302426
303169
304659
304325
304999
306393
307112
306795
307462
308894
309593
309305
309916
311388
312121
312062
312685
314012
314742
314909
315566
316781
317446
318154
318794
319526
320483
321212
322302
323099
323843
324683
326188
327096
327634
328599
330319
331365
331788
332917
334437
335610
336238
337607
338344
339617
340839
342470
341790
342982
345340
346379
348094
344851
346154
350795
351908
347397
348098
353731
354199
350449
350472
355483
355442
356138
355492
355730
358668
359866
360646
361217
253518
254610
255418
256371
257439
258174
259051
260054
260926
261559
262405
263404
263971
264749
265696
266474
266985
267758
268723
269181
269895
270818
271544
271972
272698
273658
274065
274738
275652
276356
276754
277447
278351
279020
279421
280132
281064
281434
282091
282994
283676
284071
284759
285653
286325
286723
287433
288377
288739
289400
290314
291019
291359
292044
292991
293692
293945
294651
295653
296346
296475
297202
298273
298944
298922
299664
300825
301471
301314
302079
303518
303242
303823
305198
305973
305747
306332
307788
308572
308435
309067
310555
311299
311315
311973
313352
314125
314372
315072
316372
317119
317890
318575
319386
320417
321213
322316
323189
324007
324898
326374
327310
327929
328913
330545
331570
332034
333109
334487
335590
336180
337388
337998
339107
340201
341619
340824
341742
343861
344730
346136
342680
343839
348099
349007
344670
345381
351057
351881
348679
348901
354132
354520
355355
355378
355933
358764
359887
361543
362388
252790
253913
254752
255718
256812
257574
258485
259516
260421
261091
261949
262979
263580
264389
265361
266174
266711
267490
268486
268970
269714
270652
271411
271873
272599
273578
273991
274688
275607
276325
276732
277426
278339
279033
279428
280117
281071
281440
282111
283015
283707
284095
284780
285687
286373
286759
287450
288421
288777
289454
290382
291105
291448
292144
293116
293848
294119
294836
295873
296610
296775
297505
298621
299353
299391
300126
301335
302051
301965
302687
304145
303931
304594
305933
306703
306513
307178
308584
309312
309158
309833
311240
311942
311892
312583
313922
314661
314865
315568
316777
317440
318151
318753
319537
320510
321239
322212
323047
323850
324693
326009
326917
327573
328530
330012
331013
331591
332687
333996
335076
335831
337114
337787
338896
340208
341769
341217
342269
344583
345671
347306
344515
345678
349915
351061
347415
348185
353160
353790
350774
351195
355721
355785
356313
356486
357015
359276
359994
362177
363197
252138
253247
254096
255089
256168
256951
257895
258901
259808
260491
261373
262391
263018
263857
264811
265630
266191
266995
267980
268493
269263
270188
270950
271431
272180
273147
273588
274310
275214
275933
276361
277075
277974
278670
279087
279795
280737
281123
281812
282703
283398
283800
284498
285395
286081
286485
287192
288155
288523
289220
290141
290865
291218
291936
292900
293632
293917
294654
295676
296411
296605
297352
298444
299177
299259
300012
301187
301903
301877
302618
304026
303861
304542
305851
306601
306454
307127
308505
309232
309103
309729
311087
311815
311857
312556
313860
314548
314768
315441
316651
317329
318048
318646
319405
320389
321127
322074
322886
323718
324559
325825
326730
327432
328384
329806
330831
331461
332552
333807
334946
335759
337004
337636
338862
340179
341669
341145
342334
344633
345649
347232
344668
345884
349942
351008
347634
348396
353198
353765
351024
351371
355691
355781
356364
356657
357073
359268
359967
362521
363374
250982
252064
252925
253891
254955
255751
256654
257673
258581
259297
260174
261181
261833
262649
263616
264441
265041
265848
266826
267366
268121
269059
269833
270351
271107
272078
272552
273258
274185
274921
275382
276104
277016
277721
278170
278895
279842
280248
280929
281845
282552
282969
283677
284591
285282
285693
286412
287382
287748
288418
289365
290089
290432
291125
292100
292813
293083
293796
294811
295514
295685
296415
297491
298180
298240
298989
300137
300807
300773
301542
302931
302789
303397
304709
305498
305409
306044
307423
308215
308179
308849
310263
311062
311129
311804
313155
313948
314230
314950
316198
316935
317723
318343
319192
320262
321056
321995
322872
323797
324681
325900
326832
327609
328574
329912
330912
331593
332624
333746
334797
335615
336735
337201
338250
339520
340794
340123
341009
343166
344023
345302
342673
343786
347623
348548
345323
346134
350947
351799
349423
349950
354409
354953
355777
356389
357181
359498
360343
363364
364429
250332
251452
252330
253313
254407
255230
256169
257203
258149
258873
259765
260814
261487
262338
263327
264192
264790
265607
266631
267190
267982
268946
269749
270259
271023
272023
272501
273241
274177
274939
275392
276119
277055
277789
278210
278923
279911
280310
281009
281935
282664
283061
283768
284707
285424
285804
286512
287529
287884
288583
289542
290292
290630
291343
292341
293099
293367
294090
295152
295910
296089
296823
297959
298710
298790
299530
300743
301482
301475
302200
303628
303508
304213
305505
306289
306199
306899
308243
309017
308953
309650
310988
311743
311771
312488
313789
314513
314694
315429
316654
317335
318079
318629
319414
320430
321176
322010
322838
323731
324572
325667
326570
327377
328327
329546
330517
331288
332376
333434
334466
335418
336655
337171
338239
339645
341116
340666
341686
343931
345025
346532
344364
345435
349249
350328
347573
348434
352775
353494
351255
351908
355851
356076
356643
357233
357917
359778
360244
363208
364261
249730
250817
251702
252709
253777
254605
255571
256581
257507
258255
259172
260190
260883
261760
262729
263580
264218
265063
266054
266642
267455
268394
269189
269739
270529
271502
272010
272770
273685
274438
274925
275672
276583
277305
277774
278517
279468
279893
280614
281517
282234
282667
283392
284304
285010
285435
286168
287153
287532
288249
289191
289931
290295
291025
292004
292743
293048
293795
294819
295555
295787
296543
297629
298359
298510
299271
300420
301138
301218
301971
303325
303279
303970
305228
306000
305979
306663
307968
308736
308742
309412
310713
311478
311589