/*--------------------------------*- C++ -*----------------------------------*\
| =========                 |                                                 |
| \\      /  F ield         | OpenFOAM: The Open Source CFD Toolbox           |
|  \\    /   O peration     | Version:  v2012                                 |
|   \\  /    A nd           | Website:  www.openfoam.com                      |
|    \\/     M anipulation  |                                                 |
\*---------------------------------------------------------------------------*/
FoamFile
{
    version     2.0;
    format      ascii;
    class       volVectorField;
    location    "1e-06";
    object      U;
}
// * * * * * * * * * * * * * * * * * * * * * * * * * * * * * * * * * * * * * //

dimensions      [0 1 -1 0 0 0 0];


internalField   nonuniform List<vector> 
10098
(
(1.85635 -0.532916 0)
(1.85903 -0.53951 -5.52251e-28)
(1.87505 -0.580561 6.27524e-36)
(1.91318 -0.61601 -2.47596e-29)
(1.97843 -0.6349 -1.08302e-28)
(1.99998 -0.632912 0)
(2.04624 -0.631611 -1.42516e-30)
(2.09572 -0.623063 -5.73639e-35)
(2.16614 -0.593897 -2.79782e-29)
(2.19099 -0.581035 -6.20781e-29)
(2.22743 -0.526122 -7.81057e-29)
(2.23916 -0.458095 -1.72961e-30)
(1.88055 -0.538509 2.82158e-28)
(1.88703 -0.545331 4.15892e-31)
(1.91679 -0.591112 9.48511e-31)
(1.94902 -0.626717 0)
(2.00222 -0.642738 -1.22448e-28)
(2.023 -0.639715 0)
(2.08192 -0.642302 9.30225e-29)
(2.13168 -0.635229 -3.75729e-28)
(2.19076 -0.602484 -2.77016e-29)
(2.21067 -0.587022 0)
(2.25709 -0.532978 -1.60825e-28)
(2.27583 -0.465963 1.81706e-30)
(2.04144 -0.571378 -1.80342e-30)
(2.03939 -0.57529 0)
(2.04373 -0.619619 0)
(2.08131 -0.661429 0)
(2.14704 -0.681712 -2.71621e-29)
(2.16659 -0.677068 1.44778e-30)
(2.2047 -0.676152 -9.21858e-31)
(2.25176 -0.670257 -6.76684e-29)
(2.32548 -0.638604 -2.75375e-29)
(2.35085 -0.621605 -3.12372e-30)
(2.38251 -0.559281 0)
(2.38866 -0.486928 -5.67035e-28)
(2.43571 -0.0854653 1.73613e-29)
(2.36089 -0.105214 1.06038e-30)
(2.30537 -0.143803 0)
(2.2435 -0.183634 -2.08208e-28)
(2.21646 -0.186571 -3.30583e-29)
(2.1594 -0.224972 -1.56606e-29)
(2.11918 -0.284343 2.61036e-30)
(2.09097 -0.344265 7.60444e-35)
(2.07694 -0.351587 -1.15458e-29)
(2.0529 -0.400775 4.6873e-28)
(2.04267 -0.467623 1.33621e-28)
(2.04541 -0.532235 3.97583e-28)
(2.06144 -0.577384 -2.52402e-28)
(2.06412 -0.580057 0)
(2.08801 -0.631078 2.23571e-30)
(2.11598 -0.674787 2.4509e-29)
(2.16671 -0.692558 -3.44899e-28)
(2.18522 -0.685485 0)
(2.23996 -0.688824 3.34899e-28)
(2.2882 -0.685801 0)
(2.34639 -0.65021 -2.75222e-29)
(2.36608 -0.629069 -2.56112e-30)
(2.40997 -0.566073 -3.03245e-28)
(2.42895 -0.495486 -3.47033e-28)
(2.46694 -0.0800485 0)
(2.41067 -0.10271 7.09913e-28)
(2.36679 -0.139959 0)
(2.27793 -0.177503 -3.44176e-28)
(2.24321 -0.183039 0)
(2.20095 -0.225895 0)
(2.17843 -0.285782 0)
(2.12586 -0.342898 4.40177e-30)
(2.09815 -0.351363 5.86715e-28)
(2.08593 -0.406209 -1.79691e-28)
(2.09433 -0.475218 1.81308e-29)
(2.08166 -0.53759 0)
(2.08125 -0.582538 0)
(2.09016 -0.58909 0)
(2.13017 -0.643662 0)
(2.15404 -0.685925 2.53186e-29)
(2.18639 -0.701247 -4.54378e-28)
(2.20555 -0.696823 0)
(2.27443 -0.704162 -7.58785e-28)
(2.32964 -0.700514 0)
(2.36777 -0.658951 2.72027e-29)
(2.38289 -0.638405 7.44727e-35)
(2.43849 -0.57658 5.40897e-28)
(2.47107 -0.504267 -3.18709e-28)
(2.69429 -0.0859896 1.33703e-28)
(2.614 -0.108933 5.9962e-29)
(2.55586 -0.14537 4.55286e-30)
(2.49117 -0.185903 -5.23723e-29)
(2.4613 -0.194394 0)
(2.39595 -0.238861 0)
(2.35152 -0.298641 2.78212e-30)
(2.31773 -0.359674 -6.36534e-30)
(2.30133 -0.372147 1.45883e-28)
(2.26874 -0.429198 -1.28868e-28)
(2.25352 -0.497833 -1.90234e-29)
(2.2506 -0.563784 1.41658e-28)
(2.26238 -0.615457 1.46558e-29)
(2.26044 -0.622522 4.41954e-30)
(2.2773 -0.675943 4.30693e-30)
(2.30087 -0.719529 -3.15986e-28)
(2.3488 -0.740776 4.16335e-29)
(2.36508 -0.737708 1.03949e-30)
(2.41472 -0.743148 1.67348e-30)
(2.46085 -0.736093 -2.52422e-29)
(2.51711 -0.695111 0)
(2.53629 -0.675217 2.56265e-30)
(2.5768 -0.607272 9.13599e-29)
(2.59551 -0.526321 -3.32071e-28)
(2.73589 -0.0866775 -1.59238e-29)
(2.67372 -0.110548 -1.21055e-29)
(2.62552 -0.146369 0)
(2.53499 -0.185889 0)
(2.49689 -0.19545 0)
(2.44737 -0.242263 1.10484e-28)
(2.4176 -0.302261 5.137e-30)
(2.36195 -0.361383 2.22094e-28)
(2.33102 -0.374288 0)
(2.31136 -0.434986 0)
(2.31187 -0.505574 -3.40101e-29)
(2.29634 -0.570149 2.43591e-28)
(2.29023 -0.620365 2.30555e-34)
(2.29537 -0.63014 2.03062e-30)
(2.32735 -0.687315 0)
(2.3478 -0.730042 -3.3131e-28)
(2.37675 -0.747881 9.4418e-30)
(2.39347 -0.746368 3.56536e-28)
(2.45725 -0.756138 -1.85139e-30)
(2.50942 -0.749478 0)
(2.5463 -0.703014 0)
(2.56013 -0.682932 0)
(2.61231 -0.616785 1.89168e-28)
(2.64185 -0.535584 0)
(2.9854 -0.0915815 -1.70579e-28)
(2.89963 -0.115792 -6.35278e-29)
(2.83777 -0.151944 -1.2716e-29)
(2.7702 -0.194224 -1.27779e-28)
(2.73788 -0.205972 0)
(2.66484 -0.25412 9.80347e-29)
(2.61485 -0.315403 2.5533e-29)
(2.57542 -0.378844 1.76104e-28)
(2.55643 -0.394953 0)
(2.51539 -0.457573 0)
(2.49334 -0.529004 -6.32649e-29)
(2.48495 -0.597511 1.21479e-28)
(2.49146 -0.654336 1.3297e-29)
(2.48474 -0.664287 -2.97545e-30)
(2.49343 -0.720945 -5.51318e-30)
(2.51196 -0.76558 0)
(2.55645 -0.789581 0)
(2.56987 -0.789152 7.27205e-28)
(2.61345 -0.797094 -1.60523e-28)
(2.65601 -0.787497 0)
(2.70949 -0.741312 3.2913e-28)
(2.72733 -0.721428 -1.02993e-28)
(2.76369 -0.648752 2.49807e-28)
(2.78039 -0.559413 3.95859e-29)
(3.07512 -0.0871516 -1.40304e-28)
(3.03039 -0.091569 -1.16367e-28)
(2.96509 -0.116956 3.47091e-35)
(2.91346 -0.152753 -1.141e-28)
(2.81812 -0.193961 -1.92881e-28)
(2.77629 -0.206339 -1.58168e-28)
(2.72176 -0.256996 1.29015e-29)
(2.68681 -0.318699 4.65947e-29)
(2.62428 -0.381525 1.98339e-28)
(2.58836 -0.396589 -7.93634e-35)
(2.56266 -0.462947 -1.21226e-29)
(2.55728 -0.536453 -2.07893e-29)
(2.53591 -0.603803 0)
(2.52159 -0.659088 0)
(2.52329 -0.671732 0)
(2.54875 -0.73227 0)
(2.56418 -0.776434 2.05421e-28)
(2.58698 -0.796942 -6.68515e-29)
(2.60093 -0.797908 2.7319e-28)
(2.66062 -0.810539 -2.93282e-28)
(2.70945 -0.801337 -3.10116e-28)
(2.74156 -0.749557 2.9581e-30)
(2.75304 -0.729438 2.79584e-31)
(2.80284 -0.658712 -3.72619e-28)
(2.83121 -0.569254 4.12233e-29)
(3.42591 -0.0745391 -7.85149e-29)
(3.34849 -0.0910114 -1.52996e-28)
(3.3034 -0.0965576 -9.37192e-29)
(3.2142 -0.122351 0)
(3.1489 -0.158612 -1.43827e-28)
(3.07736 -0.202458 0)
(3.04198 -0.216842 -1.07233e-28)
(2.96343 -0.268788 5.28751e-29)
(2.90783 -0.331889 5.46656e-29)
(2.86186 -0.397847 5.42975e-30)
(2.83909 -0.41725 2.75718e-29)
(2.79049 -0.485639 4.55296e-29)
(2.76162 -0.56033 1.66405e-29)
(2.74689 -0.631656 1.76731e-30)
(2.74591 -0.693679 2.51452e-29)
(2.73464 -0.706627 -8.42907e-30)
(2.73554 -0.766969 1.44694e-28)
(2.74797 -0.813151 2.17749e-28)
(2.78684 -0.840247 -1.69459e-28)
(2.79699 -0.842406 0)
(2.83513 -0.853234 6.02465e-30)
(2.87297 -0.840921 -5.83272e-28)
(2.92191 -0.789473 -3.04214e-30)
(2.93753 -0.76966 -4.75814e-31)
(2.97101 -0.692556 -4.17309e-28)
(2.98627 -0.595045 3.61451e-28)
(3.57089 -0.0697671 0)
(3.50893 -0.0737391 -2.96068e-28)
(3.39946 -0.0893055 4.21913e-29)
(3.35203 -0.0961003 -2.95458e-29)
(3.28656 -0.1236 5.18379e-29)
(3.2334 -0.159011 -1.17243e-28)
(3.13005 -0.201332 0)
(3.08357 -0.216642 2.87963e-29)
(3.0266 -0.271648 3.80829e-29)
(2.9893 -0.334834 -2.26619e-31)
(2.91641 -0.399349 3.42994e-30)
(2.87348 -0.418115 2.18673e-28)
(2.84299 -0.491074 1.7293e-28)
(2.83442 -0.56771 1.55584e-29)
(2.80415 -0.637305 -8.38289e-31)
(2.77856 -0.698037 -2.24415e-28)
(2.77737 -0.714283 0)
(2.79817 -0.778611 2.58012e-28)
(2.80688 -0.823956 0)
(2.82034 -0.847486 0)
(2.83114 -0.851575 0)
(2.88813 -0.86751 0)
(2.93331 -0.855148 -2.97781e-28)
(2.95758 -0.797698 5.77249e-29)
(2.96562 -0.778181 4.18063e-31)
(3.01511 -0.703617 -8.284e-30)
(3.04475 -0.605868 3.72756e-28)
(3.9375 -0.0789529 8.71264e-29)
(3.84625 -0.0738063 -2.2763e-28)
(3.77855 -0.0762227 -1.30339e-28)
(3.69693 -0.0928644 2.12327e-28)
(3.64915 -0.101676 7.84748e-29)
(3.55957 -0.129952 2.48725e-35)
(3.4916 -0.164902 -9.39354e-29)
(3.41488 -0.209348 -1.06736e-29)
(3.37521 -0.227439 3.5829e-29)
(3.29398 -0.284202 3.75293e-29)
(3.23369 -0.347906 -7.33578e-29)
(3.18045 -0.415724 0)
(3.15155 -0.439011 1.02232e-28)
(3.09709 -0.514477 1.85017e-28)
(3.06189 -0.591814 -4.84787e-30)
(3.04041 -0.664933 -2.51286e-29)
(3.02908 -0.73286 -2.4604e-29)
(3.01366 -0.750293 -1.18898e-29)
(3.00741 -0.814302 2.82618e-28)
(3.01291 -0.861312 4.34887e-29)
(3.04354 -0.892019 9.60897e-29)
(3.04989 -0.898007 -1.70455e-28)
(3.08348 -0.912175 5.09223e-28)
(3.11572 -0.895973 2.42475e-28)
(3.15932 -0.839263 3.16093e-30)
(3.17174 -0.82072 9.98694e-29)
(3.20384 -0.740313 5.92643e-28)
(3.2183 -0.633748 7.35306e-29)
(3.22248 -0.523957 1.70768e-29)
(4.51316 -0.337619 3.34422e-28)
(4.50309 -0.324011 1.26254e-28)
(4.46972 -0.266921 0)
(4.40515 -0.209248 0)
(4.30231 -0.167187 -1.88342e-29)
(4.2724 -0.1597 -3.80148e-28)
(4.22145 -0.124671 -4.74327e-29)
(4.15359 -0.0923883 0)
(4.038 -0.076194 0)
(3.99673 -0.0782861 -8.54142e-28)
(3.93526 -0.0743599 3.66038e-28)
(3.87202 -0.0734201 -6.47642e-30)
(3.75104 -0.0881562 8.17719e-28)
(3.7003 -0.100073 -4.91046e-28)
(3.63991 -0.131294 -2.65218e-28)
(3.58798 -0.163781 -5.47738e-28)
(3.47156 -0.205209 1.28954e-29)
(3.41882 -0.2255 -5.42867e-28)
(3.36359 -0.287017 7.56383e-29)
(3.32873 -0.34998 -3.68416e-28)
(3.24057 -0.414037 7.19094e-28)
(3.18754 -0.437571 5.38315e-28)
(3.1549 -0.51983 -2.19836e-28)
(3.14793 -0.599153 2.03524e-28)
(3.10464 -0.66863 5.97335e-28)
(3.06316 -0.735916 6.89613e-28)
(3.06007 -0.758212 0)
(3.07987 -0.826589 2.09806e-28)
(3.07988 -0.871462 0)
(3.079 -0.898587 0)
(3.0862 -0.907818 3.61748e-31)
(3.14305 -0.927788 7.29633e-28)
(3.18527 -0.910658 4.99876e-28)
(3.19813 -0.847044 -2.99056e-28)
(3.20124 -0.829814 0)
(3.25279 -0.753054 1.43718e-27)
(3.2873 -0.645726 0)
(3.26749 -0.528351 1.40847e-28)
(3.22519 -0.427464 -1.1626e-27)
(3.21836 -0.404488 3.12604e-29)
(3.19963 -0.308592 8.03953e-29)
(3.14585 -0.214845 0)
(3.04909 -0.140635 1.36222e-29)
(3.01166 -0.126123 -5.4657e-28)
(4.87888 -0.358348 6.54608e-29)
(4.84602 -0.349748 -3.49213e-29)
(4.78142 -0.286622 1.77971e-28)
(4.72797 -0.221278 -3.90357e-28)
(4.65174 -0.182965 1.42039e-28)
(4.60603 -0.181257 6.89352e-28)
(4.52731 -0.140884 -1.40966e-34)
(4.46469 -0.101221 -1.46545e-29)
(4.37984 -0.0879987 -4.64987e-28)
(4.32955 -0.096745 6.64468e-28)
(4.24032 -0.0898094 4.16107e-29)
(4.17179 -0.0821878 1.32208e-29)
(4.0833 -0.0991046 3.73959e-34)
(4.03071 -0.118479 4.60805e-28)
(3.94211 -0.149258 6.01865e-28)
(3.87258 -0.175346 4.08646e-28)
(3.79 -0.218476 8.43943e-28)
(3.74377 -0.246688 1.23326e-30)
(3.662 -0.310476 -6.81103e-28)
(3.59874 -0.367727 -3.90402e-30)
(3.53917 -0.432707 9.95328e-28)
(3.50106 -0.465266 -9.05582e-35)
(3.4423 -0.55253 8.84543e-28)
(3.40142 -0.626766 0)
(3.37456 -0.696965 5.21735e-28)
(3.34998 -0.773362 5.86395e-28)
(3.33048 -0.80021 0)
(3.31731 -0.865578 -7.87744e-28)
(3.31632 -0.908386 4.08432e-29)
(3.33662 -0.942821 -4.87787e-29)
(3.33807 -0.957226 -3.93026e-28)
(3.36741 -0.975495 0)
(3.39466 -0.951546 7.04017e-29)
(3.43313 -0.888633 1.39097e-27)
(3.44032 -0.875424 1.51569e-29)
(3.47122 -0.795206 1.4057e-27)
(3.48251 -0.676319 -3.77846e-28)
(3.48467 -0.553855 1.23249e-27)
(3.45426 -0.452754 -3.80494e-29)
(3.43069 -0.429542 7.2791e-34)
(3.3877 -0.324895 -6.53508e-28)
(3.34173 -0.224883 -7.75065e-30)
(3.26034 -0.149969 0)
(3.21503 -0.137632 0)
(5.2747 -0.378319 1.77773e-28)
(5.21936 -0.361261 -2.67606e-28)
(5.1206 -0.301227 2.54223e-28)
(5.07854 -0.244188 1.20593e-28)
(5.02554 -0.203019 1.61145e-32)
(4.96765 -0.192753 4.43296e-29)
(4.85541 -0.152804 3.29497e-29)
(4.80407 -0.120976 0)
(4.7454 -0.107337 9.44893e-28)
(4.69174 -0.107661 -9.14455e-29)
(4.56775 -0.0993586 -3.38486e-29)
(4.50413 -0.0998046 0)
(4.44123 -0.119478 3.76405e-28)
(4.39349 -0.131316 6.13471e-28)
(4.269 -0.159037 -4.37315e-29)
(4.19413 -0.193179 8.43727e-30)
(4.1341 -0.242539 -1.88362e-28)
(4.10151 -0.264634 9.47669e-29)
(3.98554 -0.324093 -4.45619e-28)
(3.90597 -0.388076 1.2116e-29)
(3.86379 -0.462816 -3.30178e-30)
(3.84772 -0.491754 -4.68205e-29)
(3.75816 -0.573275 -2.31823e-28)
(3.68781 -0.652617 1.03302e-30)
(3.67275 -0.733925 -2.18404e-29)
(3.664 -0.813525 2.56711e-28)
(3.62973 -0.833476 3.81508e-29)
(3.57811 -0.899209 -2.1696e-28)
(3.58246 -0.952369 8.84728e-29)
(3.61957 -0.992543 -5.4835e-28)
(3.61805 -1.00206 -1.54496e-29)
(3.61237 -1.01681 2.48924e-28)
(3.63565 -0.997952 2.65397e-28)
(3.69132 -0.937841 4.18463e-28)
(3.70634 -0.920975 0)
(3.70876 -0.83074 -1.08753e-29)
(3.70204 -0.709021 -9.55294e-28)
(3.71878 -0.586751 1.48277e-29)
(3.70126 -0.477505 2.96517e-34)
(3.66194 -0.448045 -6.74081e-28)
(3.5897 -0.3388 0)
(3.5534 -0.239726 6.40283e-28)
(3.48702 -0.161273 0)
(3.43793 -0.144862 1.16399e-27)
(5.34065 -0.377617 -8.45995e-29)
(5.30711 -0.357108 -1.41939e-29)
(5.23324 -0.301148 -6.29644e-29)
(5.17342 -0.24707 1.04042e-28)
(5.08935 -0.202348 -6.48325e-29)
(5.04525 -0.188205 4.58514e-29)
(4.96516 -0.151136 -3.74574e-29)
(4.89914 -0.122632 -2.28726e-28)
(4.80939 -0.106326 -1.45432e-28)
(4.76048 -0.102593 0)
(4.6737 -0.0959168 9.04329e-29)
(4.60127 -0.100409 -2.8378e-28)
(4.50669 -0.118658 -1.93218e-28)
(4.45286 -0.126555 3.23263e-29)
(4.3667 -0.154795 0)
(4.29103 -0.193764 -4.54404e-28)
(4.20165 -0.24322 9.20524e-30)
(4.15089 -0.261168 -3.59917e-29)
(4.07099 -0.320566 -3.70946e-29)
(4.0002 -0.389934 0)
(3.93381 -0.466523 0)
(3.8881 -0.490732 0)
(3.82895 -0.572671 -3.06422e-28)
(3.77954 -0.658097 0)
(3.7461 -0.742172 -2.17772e-29)
(3.70769 -0.817258 1.22647e-28)
(3.68626 -0.836916 -6.2409e-29)
(3.66533 -0.909667 0)
(3.65665 -0.965821 -6.35945e-29)
(3.66508 -1.00213 -2.32294e-28)
(3.66223 -1.00951 -6.19736e-29)
(3.68773 -1.03083 6.07192e-28)
(3.71016 -1.01557 0)
(3.74074 -0.950658 1.28732e-28)
(3.7418 -0.928717 0)
(3.76967 -0.840531 0)
(3.77408 -0.720861 3.0272e-29)
(3.77178 -0.595848 1.89237e-28)
(3.73388 -0.481271 -2.5613e-34)
(3.71014 -0.449259 -2.43786e-28)
(3.6611 -0.341676 -3.63722e-29)
(3.60985 -0.24252 5.22469e-29)
(3.52167 -0.161235 -1.99212e-28)
(3.47469 -0.142306 2.25362e-28)
(5.88354 -0.510752 -1.09074e-28)
(5.82826 -0.447842 3.90855e-29)
(5.7663 -0.384566 0)
(5.70782 -0.36246 1.27879e-29)
(5.60968 -0.307974 -1.85273e-29)
(5.55188 -0.256235 4.82752e-29)
(5.48781 -0.210172 -6.98633e-31)
(5.42913 -0.193723 2.8132e-29)
(5.32418 -0.157355 0)
(5.26472 -0.131083 -1.47174e-28)
(5.19852 -0.114197 2.95853e-30)
(5.14481 -0.107475 0)
(5.03071 -0.100885 1.14794e-28)
(4.96412 -0.108475 -1.78881e-28)
(4.89235 -0.127805 7.85452e-29)
(4.84323 -0.13291 -8.75502e-29)
(4.72562 -0.160658 -4.07175e-29)
(4.65041 -0.204191 -1.58187e-28)
(4.57725 -0.256937 5.61837e-30)
(4.54033 -0.272728 5.15337e-29)
(4.42618 -0.331461 -6.18793e-29)
(4.34906 -0.40575 -1.47488e-29)
(4.29061 -0.487913 4.93053e-30)
(4.26774 -0.511862 6.29266e-29)
(4.17559 -0.59211 1.78249e-28)
(4.10767 -0.6828 -3.35654e-30)
(4.07605 -0.773848 3.91436e-29)
(4.05419 -0.854799 -1.06195e-28)
(4.01559 -0.871351 8.04934e-31)
(3.9623 -0.945407 0)
(3.95478 -1.00948 0)
(3.97977 -1.05343 -2.26445e-28)
(3.97304 -1.0593 -3.87369e-28)
(3.96526 -1.07849 4.81399e-28)
(3.98502 -1.0655 0)
(4.02547 -1.00059 -3.40556e-30)
(4.0336 -0.976806 0)
(4.02922 -0.878896 0)
(4.02205 -0.753982 4.75733e-28)
(4.02455 -0.624009 -2.22799e-28)
(3.99873 -0.501132 1.66776e-28)
(3.95739 -0.465292 -6.06708e-29)
(3.88686 -0.352407 0)
(3.83975 -0.249948 8.95187e-30)
(3.76478 -0.163627 -1.0732e-28)
(3.71318 -0.142576 0)
(6.13468 -0.589954 9.84047e-31)
(6.09057 -0.564992 -1.74722e-28)
(5.99871 -0.507496 -1.74766e-28)
(5.93538 -0.447015 1.10159e-28)
(5.8414 -0.38256 4.09442e-30)
(5.80461 -0.358628 1.38792e-28)
(5.71887 -0.30639 2.44833e-30)
(5.65341 -0.257026 0)
(5.56018 -0.209605 0)
(5.5154 -0.19098 0)
(5.43123 -0.156028 0)
(5.36448 -0.131975 0)
(5.27054 -0.113729 0)
(5.22191 -0.104729 -3.95187e-29)
(5.13711 -0.0988924 2.60869e-28)
(5.06473 -0.108674 0)
(4.96685 -0.127451 -5.86394e-31)
(4.91183 -0.130303 3.70861e-29)
(4.82821 -0.157953 -1.37525e-28)
(4.74959 -0.204068 -1.45333e-28)
(4.65484 -0.25732 0)
(4.59926 -0.270585 0)
(4.51975 -0.329422 -4.58372e-28)
(4.44252 -0.40666 0)
(4.37039 -0.490976 0)
(4.31697 -0.511671 -4.02865e-29)
(4.25567 -0.592606 1.82022e-28)
(4.19685 -0.68684 7.22149e-30)
(4.15804 -0.780847 2.03225e-29)
(4.10555 -0.858298 -1.35278e-28)
(4.08145 -0.875662 -8.04725e-31)
(4.05102 -0.954857 3.23852e-29)
(4.03673 -1.02202 6.93989e-29)
(4.03391 -1.06257 -1.23247e-28)
(4.02621 -1.06748 -4.27644e-28)
(4.04798 -1.0932 4.94072e-28)
(4.06538 -1.08228 3.44576e-29)
(4.08352 -1.01272 -6.54216e-29)
(4.07653 -0.984804 2.5194e-28)
(4.09754 -0.889314 1.54849e-29)
(4.09388 -0.764606 3.11042e-29)
(4.08467 -0.632606 1.16924e-29)
(4.03685 -0.50538 1.85766e-28)
(4.01215 -0.467679 6.42139e-29)
(3.95701 -0.354937 -4.44907e-28)
(3.90137 -0.252165 2.00269e-28)
(3.80462 -0.163918 1.00954e-28)
(3.75554 -0.141036 -4.74901e-29)
(6.80634 -0.707184 5.06623e-29)
(6.72021 -0.65181 0)
(6.63541 -0.586005 0)
(6.55774 -0.561652 0)
(6.45451 -0.505785 -9.06119e-29)
(6.37878 -0.447617 1.26584e-28)
(6.30144 -0.383875 -5.77701e-29)
(6.23841 -0.359966 3.93277e-29)
(6.13755 -0.309562 -2.86788e-29)
(6.06426 -0.2621 -9.28017e-35)
(5.99002 -0.215372 3.21097e-29)
(5.92893 -0.195882 4.37381e-29)
(5.82766 -0.161953 4.25967e-29)
(5.76021 -0.13938 -2.09924e-29)
(5.68826 -0.121474 -4.74438e-30)
(5.63417 -0.111665 0)
(5.5297 -0.106031 -1.07621e-30)
(5.46172 -0.117167 0)
(5.38486 -0.137373 -4.34122e-29)
(5.33469 -0.139039 -4.12482e-29)
(5.22535 -0.16646 -9.27782e-29)
(5.15226 -0.215473 -1.49415e-29)
(5.07062 -0.271622 -6.92875e-29)
(5.03062 -0.284404 5.34471e-29)
(4.91911 -0.342822 -2.06717e-28)
(4.84507 -0.424034 0)
(4.77319 -0.512946 -7.31975e-29)
(4.74495 -0.534791 9.17847e-30)
(4.64919 -0.616173 -3.85836e-29)
(4.58228 -0.713721 2.85502e-35)
(4.53587 -0.813137 -1.96487e-28)
(4.50315 -0.897097 -2.74617e-29)
(4.45896 -0.912374 -2.42268e-28)
(4.40295 -0.994055 -1.418e-29)
(4.38413 -1.06832 -3.04105e-29)
(4.39811 -1.11655 6.61153e-29)
(4.38526 -1.12098 -3.56825e-28)
(4.37332 -1.14504 -1.39554e-29)
(4.38477 -1.13421 -6.09969e-34)
(4.40489 -1.06188 1.1291e-28)
(4.40421 -1.03254 4.15725e-28)
(4.3882 -0.927855 0)
(4.37607 -0.797863 5.339e-28)
(4.36282 -0.659255 9.02845e-28)
(4.32702 -0.524521 -2.20733e-28)
(4.28217 -0.48348 1.93563e-28)
(4.21078 -0.365293 -4.43559e-28)
(4.15296 -0.257986 4.50163e-28)
(4.06974 -0.165166 7.91914e-29)
(4.01493 -0.140838 0)
(7.01795 -0.745686 1.54832e-28)
(6.92228 -0.696252 2.232e-29)
(6.83613 -0.642671 0)
(6.71732 -0.577934 0)
(6.66964 -0.552777 0)
(6.56601 -0.497888 0)
(6.49055 -0.441647 2.69692e-28)
(6.38125 -0.378508 -9.99641e-29)
(6.34053 -0.35413 7.62758e-29)
(6.2441 -0.30489 5.62497e-29)
(6.17072 -0.259335 1.05278e-28)
(6.06688 -0.212617 6.87837e-29)
(6.02038 -0.192525 4.07355e-29)
(5.93252 -0.159681 -7.20998e-29)
(5.86404 -0.138275 -5.60219e-29)
(5.76589 -0.120067 -1.11922e-29)
(5.71791 -0.109605 1.66216e-28)
(5.63504 -0.104497 -3.72597e-28)
(5.56504 -0.116396 8.80353e-30)
(5.46558 -0.136169 -1.1969e-28)
(5.41011 -0.136767 3.41368e-29)
(5.33085 -0.164708 4.43706e-29)
(5.25457 -0.214653 1.92338e-28)
(5.15639 -0.270884 -8.31778e-29)
(5.09759 -0.282085 -9.234e-29)
(5.02028 -0.341598 -3.65249e-29)
(4.94302 -0.424193 0)
(4.86353 -0.514491 -1.01769e-28)
(4.80208 -0.533748 3.72542e-29)
(4.7399 -0.615818 3.06297e-29)
(4.67658 -0.716909 0)
(4.6296 -0.818676 -2.33895e-28)
(4.56259 -0.900107 0)
(4.53574 -0.917321 0)
(4.49764 -1.00316 -2.12775e-29)
(4.47796 -1.08046 -3.31579e-29)
(4.46141 -1.12538 2.85624e-28)
(4.44799 -1.12997 0)
(4.46425 -1.16016 -1.98666e-29)
(4.47262 -1.14933 1.08621e-27)
(4.47098 -1.07246 -4.10713e-29)
(4.4536 -1.04034 -2.76042e-29)
(4.46293 -0.938118 6.4299e-28)
(4.45 -0.806854 5.89413e-28)
(4.42952 -0.666243 5.41071e-28)
(4.36922 -0.527928 -2.60696e-28)
(4.34253 -0.486052 -1.7676e-28)
(4.28075 -0.366969 0)
(4.2199 -0.25882 3.07007e-28)
(4.11358 -0.164395 5.90884e-29)
(4.06225 -0.139235 -9.45384e-29)
(7.63966 -0.782518 1.42309e-29)
(7.51295 -0.731178 1.01478e-28)
(7.42098 -0.681683 1.87995e-29)
(7.32281 -0.628447 1.72115e-28)
(7.22716 -0.565305 -5.53362e-29)
(7.14922 -0.541523 0)
(7.04336 -0.487989 -1.44745e-28)
(6.95204 -0.433622 3.00555e-28)
(6.86223 -0.372683 -6.35677e-29)
(6.79617 -0.349224 4.10326e-29)
(6.69209 -0.30235 1.14228e-28)
(6.60491 -0.258863 -2.68471e-31)
(6.51986 -0.21395 2.56873e-29)
(6.45658 -0.19517 0)
(6.35836 -0.164129 3.76664e-29)
(6.28368 -0.143767 -2.90817e-29)
(6.20675 -0.127303 2.59918e-35)
(6.15191 -0.116939 2.3547e-28)
(6.05468 -0.112651 -1.15498e-28)
(5.98603 -0.125396 -1.17241e-29)
(5.90733 -0.146861 -8.99157e-29)
(5.85726 -0.147602 3.67205e-29)
(5.75845 -0.176018 4.13656e-29)
(5.68927 -0.227563 4.78819e-29)
(5.60441 -0.286388 -1.46575e-28)
(5.5631 -0.298565 0)
(5.45929 -0.358344 0)
(5.39154 -0.443673 -5.45346e-29)
(5.31102 -0.537636 2.23767e-30)
(5.27852 -0.559486 7.24515e-29)
(5.18396 -0.64177 -1.16929e-30)
(5.12119 -0.746489 2.04492e-29)
(5.06206 -0.852483 0)
(5.02008 -0.94104 0)
(4.97112 -0.95735 0)
(4.91416 -1.04666 2.0066e-29)
(4.88321 -1.12973 4.50716e-34)
(4.88256 -1.18124 1.50939e-28)
(4.86165 -1.18608 2.81268e-29)
(4.8415 -1.21388 0)
(4.83664 -1.20017 1.12251e-27)
(4.83117 -1.11835 -1.72579e-28)
(4.81912 -1.0852 0)
(4.7876 -0.974913 1.57085e-30)
(4.76586 -0.838338 0)
(4.7348 -0.690235 0)
(4.68601 -0.545332 -6.59108e-30)
(4.63686 -0.50065 -3.93339e-28)
(4.56192 -0.376209 0)
(4.49314 -0.262575 -3.10957e-28)
(4.4012 -0.164065 -2.87649e-29)
(4.34384 -0.138646 2.14194e-28)
(7.72085 -0.770428 -4.14017e-29)
(7.62535 -0.71822 -5.24528e-29)
(7.53145 -0.666787 -4.91068e-29)
(7.43711 -0.614154 -6.1885e-32)
(7.30719 -0.553477 -1.25211e-28)
(7.2596 -0.530184 4.96059e-29)
(7.15291 -0.475663 -1.32265e-28)
(7.06615 -0.422202 6.36197e-30)
(6.94235 -0.363348 -2.49881e-28)
(6.89984 -0.341261 3.98322e-29)
(6.80015 -0.294216 2.28865e-29)
(6.71637 -0.251289 -3.95532e-29)
(6.59999 -0.208252 6.33483e-29)
(6.55308 -0.191537 0)
(6.46481 -0.16066 0)
(6.39302 -0.140263 0)
(6.28764 -0.123793 0)
(6.23941 -0.114876 -1.26225e-30)
(6.16134 -0.111486 8.45362e-29)
(6.09479 -0.123605 -4.92596e-29)
(5.99202 -0.144418 1.42343e-29)
(5.93743 -0.145932 8.80255e-29)
(5.86682 -0.17589 -4.56699e-29)
(5.79838 -0.22643 -1.11558e-28)
(5.69622 -0.284359 -1.62483e-29)
(5.63594 -0.296349 -3.1506e-29)
(5.56633 -0.359144 -3.66874e-29)
(5.4989 -0.443949 -1.02907e-28)
(5.41093 -0.537305 0)
(5.34262 -0.557634 1.20746e-29)
(5.28446 -0.644062 -5.06791e-28)
(5.22803 -0.749976 9.36123e-29)
(5.16959 -0.855994 -1.44111e-28)
(5.08717 -0.943339 -1.35085e-29)
(5.05942 -0.963648 -4.71363e-29)
(5.02238 -1.05651 -2.80642e-29)
(4.99385 -1.1406 -3.20405e-29)
(4.95519 -1.18867 -1.07121e-28)
(4.93434 -1.19545 -5.02534e-29)
(4.94281 -1.22849 0)
(4.93775 -1.21223 5.97631e-29)
(4.90592 -1.12594 -1.64801e-28)
(4.8752 -1.09226 0)
(4.86988 -0.984635 -7.15556e-28)
(4.84839 -0.845346 6.4468e-29)
(4.80947 -0.69455 0)
(4.73214 -0.547149 -3.92902e-28)
(4.70318 -0.503395 0)
(4.63675 -0.377079 9.06829e-29)
(4.56752 -0.261589 -2.2926e-29)
(4.45082 -0.162419 -3.68408e-29)
(4.3984 -0.137729 3.67144e-28)
(8.23181 -0.747376 6.89069e-29)
(8.10704 -0.696092 0)
(8.01355 -0.644734 -2.43497e-28)
(7.90926 -0.591175 -1.66286e-28)
(7.80536 -0.532378 1.16236e-29)
(7.72982 -0.510992 5.2987e-29)
(7.6222 -0.457972 6.30929e-29)
(7.52275 -0.404966 -1.22745e-28)
(7.42273 -0.349043 -7.60689e-31)
(7.35755 -0.330213 -7.49682e-29)
(7.25296 -0.285607 -9.12339e-29)
(7.15754 -0.243584 1.09324e-28)
(7.06358 -0.204294 -2.25905e-29)
(6.99941 -0.189861 0)
(6.90064 -0.161465 5.5285e-29)
(6.81969 -0.141932 5.11679e-29)
(6.73755 -0.127944 -1.21042e-29)
(6.6829 -0.12104 -3.3152e-29)
(6.59136 -0.119382 5.82885e-31)
(6.52239 -0.131864 6.85116e-29)
(6.44349 -0.154567 0)
(6.39416 -0.158107 -1.2742e-30)
(6.30683 -0.18929 -7.20974e-29)
(6.24166 -0.240128 3.50684e-32)
(6.1589 -0.300126 0)
(6.11707 -0.315106 -2.52948e-29)
(6.0256 -0.379234 6.96996e-29)
(5.96546 -0.464941 -4.36812e-30)
(5.8842 -0.560584 2.23271e-28)
(5.84791 -0.585679 0)
(5.76227 -0.673707 -1.71582e-28)
(5.70732 -0.78159 -1.35456e-28)
(5.64128 -0.889788 -4.29586e-28)
(5.59126 -0.984998 -1.13726e-29)
(5.5418 -1.00694 -9.04555e-29)
(5.48703 -1.10245 5.21102e-29)
(5.44488 -1.18924 5.38156e-29)
(5.42547 -1.24235 7.60909e-29)
(5.39584 -1.25095 0)
(5.36408 -1.28006 0)
(5.33702 -1.25763 -4.50692e-29)
(5.30371 -1.16528 -5.44689e-29)
(5.27741 -1.13153 -4.94828e-28)
(5.2287 -1.0178 -5.48214e-29)
(5.19169 -0.872683 0)
(5.1427 -0.713812 0)
(5.07658 -0.561419 -5.65561e-32)
(5.02297 -0.516004 -8.85016e-29)
(4.94054 -0.384427 -8.87789e-29)
(4.86238 -0.262816 4.94922e-28)
(4.76308 -0.161285 -3.4279e-29)
(4.70193 -0.135456 0)
(8.31245 -0.729213 5.14867e-28)
(8.21833 -0.679219 -5.71341e-28)
(8.13225 -0.622661 3.36893e-28)
(8.02339 -0.567341 -6.79282e-30)
(7.87812 -0.513267 -3.40503e-29)
(7.83643 -0.496539 4.42861e-28)
(7.73922 -0.440364 0)
(7.64041 -0.384658 -9.77342e-30)
(7.50066 -0.33332 4.81141e-28)
(7.46123 -0.320242 -8.71104e-28)
(7.36988 -0.273215 6.29966e-28)
(7.27572 -0.228374 -7.59109e-28)
(7.14193 -0.192013 0)
(7.0957 -0.183721 -3.71602e-29)
(7.01639 -0.155187 -3.9837e-28)
(6.93826 -0.132393 -3.22706e-28)
(6.81807 -0.119369 0)
(6.77112 -0.117977 0)
(6.70566 -0.118103 0)
(6.6426 -0.126734 4.25776e-34)
(6.52868 -0.147973 -5.42937e-28)
(6.47488 -0.155927 -1.11817e-27)
(6.42006 -0.190923 -4.75259e-28)
(6.36503 -0.237646 4.84291e-28)
(6.25269 -0.294206 1.66964e-29)
(6.1908 -0.312044 -5.02684e-29)
(6.13653 -0.382585 0)
(6.08974 -0.465378 -1.68272e-29)
(5.98971 -0.556114 -6.82778e-28)
(5.91394 -0.581703 -3.58534e-28)
(5.86768 -0.678856 0)
(5.83329 -0.785005 0)
(5.76055 -0.888561 0)
(5.66045 -0.984767 -4.18711e-28)
(5.63649 -1.01471 -4.67831e-28)
(5.61454 -1.11349 1.94296e-28)
(5.57422 -1.19632 5.84216e-29)
(5.50329 -1.2455 -9.27013e-28)
(5.47475 -1.25939 -9.13762e-28)
(5.4789 -1.29317 3.58206e-30)
(5.46127 -1.26486 0)
(5.38588 -1.16637 1.19085e-27)
(5.33833 -1.13584 -3.19029e-27)
(5.31966 -1.02606 -1.51676e-28)
(5.29563 -0.876357 0)
(5.22614 -0.711472 -6.6908e-28)
(5.1248 -0.558661 -2.60776e-29)
(5.09502 -0.517852 8.62313e-29)
(5.03047 -0.383641 0)
(4.9498 -0.258669 0)
(4.81515 -0.155573 1.54321e-27)
(4.75793 -0.131847 -1.47967e-27)
(8.78611 -0.711648 2.60164e-28)
(8.66859 -0.667617 1.85563e-28)
(8.57781 -0.606269 7.7944e-29)
(8.47136 -0.542971 0)
(8.354 -0.498934 -1.51277e-28)
(8.28613 -0.491242 -1.0284e-30)
(8.17667 -0.429579 0)
(8.07995 -0.368597 1.49621e-29)
(7.96914 -0.325341 1.9972e-28)
(7.90677 -0.31999 -4.81909e-29)
(7.79809 -0.272109 -9.49563e-31)
(7.70527 -0.221884 -3.40984e-31)
(7.60032 -0.193153 -1.98818e-29)
(7.53767 -0.193728 4.77978e-29)
(7.43768 -0.164054 -4.69441e-29)
(7.35815 -0.135797 3.00637e-29)
(7.26881 -0.128443 -4.55677e-28)
(7.21422 -0.136099 7.81502e-29)
(7.12683 -0.13597 0)
(7.06025 -0.138256 6.02001e-28)
(6.98059 -0.16255 -5.20646e-28)
(6.9304 -0.180125 1.27272e-30)
(6.85389 -0.216065 0)
(6.79149 -0.255733 0)
(6.71528 -0.313059 1.19885e-29)
(6.6705 -0.341606 6.15976e-29)
(6.59456 -0.415421 -5.04738e-28)
(6.53692 -0.491138 0)
(6.46629 -0.580249 -8.46307e-28)
(6.4233 -0.618007 -7.93998e-29)
(6.35312 -0.72198 -6.2325e-29)
(6.30269 -0.822189 -3.10238e-29)
(6.24409 -0.921341 -3.24123e-29)
(6.18559 -1.02991 0)
(6.14075 -1.06945 6.3189e-29)
(6.09027 -1.1648 -3.84202e-28)
(6.04559 -1.24181 0)
(6.00702 -1.29639 -1.06747e-27)
(5.9691 -1.31938 1.95676e-27)
(5.92765 -1.34786 -1.98195e-27)
(5.87992 -1.30559 3.32364e-29)
(5.82026 -1.20169 1.09117e-27)
(5.77589 -1.17759 1.07781e-29)
(5.71023 -1.06507 4.45676e-27)
(5.65077 -0.904004 5.06005e-29)
(5.59114 -0.730521 -4.89977e-28)
(5.50061 -0.580054 -1.93852e-28)
(5.44291 -0.540716 -1.01829e-28)
(5.34867 -0.398164 -9.94089e-29)
(5.26724 -0.264897 4.96285e-28)
(5.15109 -0.161195 -4.18424e-28)
(5.08374 -0.141455 1.08236e-28)
(9.18506 -0.692687 -5.11844e-28)
(9.06113 -0.640491 4.23478e-28)
(8.96077 -0.58334 -3.30479e-31)
(8.88315 -0.527971 3.26492e-28)
(8.79505 -0.478892 0)
(8.70889 -0.468034 5.53316e-28)
(8.58402 -0.410467 2.04655e-28)
(8.5058 -0.359569 -1.9048e-29)
(8.4174 -0.314204 0)
(8.34079 -0.303305 -8.54766e-31)
(8.21045 -0.261666 5.56007e-28)
(8.13123 -0.222771 -2.81435e-28)
(8.0494 -0.194767 -3.65031e-28)
(7.97683 -0.188745 -9.6772e-29)
(7.85043 -0.163595 -2.49835e-28)
(7.78137 -0.147005 -3.24876e-29)
(7.71603 -0.142454 6.3525e-28)
(7.65895 -0.142873 -6.41158e-28)
(7.54304 -0.144925 5.90123e-29)
(7.48312 -0.158207 -2.29237e-29)
(7.42979 -0.187156 -3.57772e-30)
(7.38717 -0.197104 -5.90343e-28)
(7.28155 -0.23191 -4.85574e-28)
(7.22098 -0.28158 0)
(7.1733 -0.346175 5.4986e-28)
(7.14805 -0.367712 8.23937e-29)
(7.04382 -0.437245 -3.29855e-28)
(6.97821 -0.521883 0)
(6.93776 -0.621159 0)
(6.92772 -0.653936 -9.08186e-29)
(6.83054 -0.750502 -6.40497e-29)
(6.75697 -0.858002 0)
(6.72748 -0.969874 -5.3369e-28)
(6.70365 -1.08055 -5.41718e-29)
(6.64472 -1.10914 2.4186e-28)
(6.5584 -1.20592 5.02991e-29)
(6.528 -1.29408 3.87543e-29)
(6.51403 -1.34978 0)
(6.47365 -1.36162 1.53595e-28)
(6.37952 -1.37943 -1.46511e-28)
(6.32023 -1.33891 -1.48489e-27)
(6.26889 -1.23691 -3.25921e-29)
(6.23449 -1.20569 0)
(6.1177 -1.08144 -7.06754e-29)
(6.02972 -0.921442 1.18511e-27)
(5.97378 -0.752304 7.52171e-31)
(5.89481 -0.593496 -9.80428e-28)
(5.81162 -0.547943 -6.79041e-28)
(5.68065 -0.404154 -9.402e-29)
(5.60382 -0.27416 -1.18046e-27)
(5.50445 -0.167982 1.31229e-27)
(5.4323 -0.142672 -8.70345e-28)
(9.23909 -0.670787 -6.17676e-30)
(9.1504 -0.613759 -4.34259e-28)
(9.06971 -0.559688 -2.18929e-28)
(8.97691 -0.508962 -6.05808e-32)
(8.86568 -0.45907 -2.528e-34)
(8.81101 -0.442118 1.98273e-28)
(8.69867 -0.388732 -1.07549e-28)
(8.60787 -0.342533 0)
(8.49211 -0.297506 -1.69117e-28)
(8.43984 -0.281683 -8.43319e-29)
(8.3263 -0.24309 -2.81704e-28)
(8.23727 -0.210924 0)
(8.12711 -0.182748 3.87188e-31)
(8.07171 -0.172263 8.30877e-29)
(7.96853 -0.150645 8.79211e-29)
(7.8906 -0.140958 0)
(7.79703 -0.1361 0)
(7.74695 -0.132163 2.0188e-28)
(7.66159 -0.13681 -2.47867e-28)
(7.59516 -0.156761 -7.87297e-30)
(7.51487 -0.185418 7.13755e-35)
(7.46708 -0.190468 8.33244e-29)