/*--------------------------------*- C++ -*----------------------------------*\
| =========                 |                                                 |
| \\      /  F ield         | OpenFOAM: The Open Source CFD Toolbox           |
|  \\    /   O peration     | Version:  v2012                                 |
|   \\  /    A nd           | Website:  www.openfoam.com                      |
|    \\/     M anipulation  |                                                 |
\*---------------------------------------------------------------------------*/
FoamFile
{
    version     2.0;
    format      ascii;
    class       volVectorField;
    location    "1e-06";
    object      UMean;
}
// * * * * * * * * * * * * * * * * * * * * * * * * * * * * * * * * * * * * * //

dimensions      [0 1 -1 0 0 0 0];


internalField   nonuniform List<vector> 
10098
(
(1.86667 -0.534794 0)
(1.86762 -0.541316 2.7503e-26)
(1.88292 -0.58201 1.52567e-32)
(1.92294 -0.617542 2.32147e-28)
(1.98894 -0.636774 -2.95354e-26)
(2.00831 -0.634712 0)
(2.05394 -0.632991 -2.4715e-28)
(2.10511 -0.624548 1.30849e-32)
(2.17636 -0.595493 9.91746e-29)
(2.19966 -0.582633 2.28659e-26)
(2.23546 -0.527376 -2.18396e-26)
(2.24792 -0.459331 2.2743e-29)
(1.88538 -0.539253 -3.04461e-26)
(1.89081 -0.546128 -4.13065e-28)
(1.92146 -0.59182 -3.75228e-28)
(1.95502 -0.627371 0)
(2.00786 -0.643248 -3.05216e-26)
(2.02658 -0.640154 0)
(2.08635 -0.642808 2.71337e-26)
(2.13789 -0.635836 -2.86996e-26)
(2.19669 -0.6029 1.02466e-28)
(2.21466 -0.587426 0)
(2.26161 -0.533504 -2.1815e-26)
(2.28183 -0.466654 -2.32059e-29)
(2.05174 -0.573284 3.85157e-29)
(2.04815 -0.577191 0)
(2.05161 -0.621133 0)
(2.0911 -0.662964 0)
(2.1576 -0.683652 1.97222e-28)
(2.17507 -0.679011 2.91393e-28)
(2.21251 -0.677669 -2.74159e-28)
(2.26118 -0.671744 -3.03323e-26)
(2.33574 -0.640214 1.05466e-28)
(2.3596 -0.623291 2.10214e-28)
(2.39061 -0.560585 0)
(2.3973 -0.488099 -4.62184e-26)
(2.44356 -0.0868945 2.19994e-28)
(2.36895 -0.106769 8.26101e-30)
(2.31205 -0.144689 0)
(2.24999 -0.184389 -1.26923e-26)
(2.22414 -0.187935 1.16316e-28)
(2.16697 -0.226604 1.25809e-28)
(2.12582 -0.285353 -2.41944e-28)
(2.09786 -0.345074 6.33605e-33)
(2.08414 -0.352785 3.03059e-28)
(2.0599 -0.40227 -1.36097e-26)
(2.04938 -0.468746 -1.66437e-26)
(2.05291 -0.5331 1.96698e-26)
(2.06892 -0.578618 3.36339e-26)
(2.0704 -0.581514 0)
(2.09449 -0.632268 -3.67123e-28)
(2.12386 -0.675745 -2.3241e-28)
(2.17478 -0.693642 -3.59672e-26)
(2.19131 -0.686706 0)
(2.24623 -0.689913 -2.85383e-26)
(2.29606 -0.686749 0)
(2.35451 -0.651077 1.06881e-28)
(2.37245 -0.630098 2.14856e-28)
(2.41638 -0.567074 2.1756e-26)
(2.43644 -0.496434 -2.42352e-26)
(2.47156 -0.0814608 0)
(2.41643 -0.104273 -1.17065e-26)
(2.37172 -0.140962 0)
(2.28138 -0.178509 9.74148e-27)
(2.24775 -0.18431 0)
(2.20618 -0.227392 0)
(2.18352 -0.286762 0)
(2.13009 -0.343793 -2.97468e-28)
(2.10235 -0.352237 -2.87451e-26)
(2.09057 -0.407358 1.38438e-26)
(2.0995 -0.476048 -1.739e-26)
(2.08696 -0.538149 0)
(2.08576 -0.583227 0)
(2.09405 -0.589895 0)
(2.135 -0.644375 0)
(2.16016 -0.686444 -2.25325e-28)
(2.19185 -0.701633 -3.90571e-26)
(2.20918 -0.69725 0)
(2.27894 -0.704609 -6.67259e-26)
(2.33609 -0.701012 0)
(2.37361 -0.659188 -1.10097e-28)
(2.38685 -0.638766 1.48084e-32)
(2.44308 -0.577082 5.07072e-26)
(2.47729 -0.504966 -2.51751e-26)
(2.70523 -0.0872738 -5.24205e-27)
(2.62444 -0.110395 -6.07991e-27)
(2.56458 -0.146393 1.10267e-28)
(2.5003 -0.186918 9.47363e-27)
(2.47198 -0.195779 0)
(2.40586 -0.240463 0)
(2.35995 -0.299733 -2.22412e-28)
(2.32691 -0.360826 -1.48005e-26)
(2.31144 -0.373594 -1.43868e-26)
(2.27812 -0.430837 1.53022e-26)
(2.26195 -0.499155 1.73406e-26)
(2.2601 -0.565064 1.8862e-26)
(2.27231 -0.61719 -3.77146e-28)
(2.26907 -0.624317 -8.21826e-28)
(2.28552 -0.677443 -3.50907e-28)
(2.31049 -0.720929 -4.00984e-26)
(2.35915 -0.742541 3.88935e-26)
(2.37342 -0.739456 2.96912e-28)
(2.42267 -0.744541 -3.43655e-26)
(2.47015 -0.73745 1.29907e-28)
(2.52724 -0.696559 0)
(2.54483 -0.676743 -2.26035e-28)
(2.58489 -0.608452 2.6686e-26)
(2.60423 -0.527454 -2.57816e-26)
(2.74058 -0.0878691 -2.3079e-28)
(2.67968 -0.111812 -6.78234e-27)
(2.63053 -0.14728 0)
(2.53846 -0.186738 0)
(2.50148 -0.196543 0)
(2.45274 -0.243524 -1.11422e-26)
(2.42271 -0.303177 -2.07619e-28)
(2.36622 -0.362335 -1.40465e-26)
(2.33525 -0.375124 0)
(2.31613 -0.436052 0)
(2.31702 -0.506446 3.52453e-26)
(2.3016 -0.570775 3.78794e-26)
(2.29469 -0.621121 -1.70108e-32)
(2.29933 -0.631032 -4.10813e-28)
(2.33227 -0.688092 0)
(2.35392 -0.730674 -4.02326e-26)
(2.38214 -0.748435 3.92471e-26)
(2.39712 -0.746941 -3.53193e-26)
(2.46181 -0.756682 2.58007e-28)
(2.51584 -0.750088 0)
(2.55211 -0.703387 0)
(2.56408 -0.68343 0)
(2.61697 -0.617303 2.83812e-26)
(2.64806 -0.536265 0)
(2.99629 -0.0928446 4.92003e-27)
(2.91011 -0.117193 -6.92916e-27)
(2.84655 -0.153025 7.89262e-27)
(2.77925 -0.19529 8.43467e-27)
(2.74851 -0.207338 0)
(2.67477 -0.25565 -1.13133e-26)
(2.62331 -0.316492 -1.30296e-26)
(2.58451 -0.380098 -1.36409e-26)
(2.56657 -0.396384 0)
(2.52481 -0.459124 0)
(2.50186 -0.530333 3.56515e-26)
(2.49436 -0.598781 1.83286e-26)
(2.50131 -0.65601 -3.8329e-28)
(2.49345 -0.666002 4.06782e-28)
(2.50178 -0.722401 3.40792e-28)
(2.52158 -0.766972 0)
(2.56676 -0.791318 0)
(2.57828 -0.790819 -7.30552e-26)
(2.62153 -0.798433 -3.74622e-26)
(2.66534 -0.788855 0)
(2.71958 -0.742715 3.72869e-26)
(2.73591 -0.722915 3.25253e-26)
(2.7718 -0.649844 2.98604e-26)
(2.78914 -0.560512 -4.37601e-28)
(3.07806 -0.0879918 3.92276e-27)
(3.03509 -0.0927037 4.9172e-27)
(2.97112 -0.11812 -1.48415e-33)
(2.91848 -0.153721 1.48976e-26)
(2.82156 -0.194893 7.75254e-27)
(2.78089 -0.2074 9.37589e-27)
(2.7272 -0.258145 1.12198e-26)
(2.6919 -0.319625 -1.27306e-26)
(2.62853 -0.382328 -1.35903e-26)
(2.59264 -0.397427 5.72188e-33)
(2.5675 -0.463929 3.22212e-28)
(2.56244 -0.537345 1.79976e-26)
(2.5411 -0.604523 0)
(2.52595 -0.65987 0)
(2.52733 -0.672597 0)
(2.55375 -0.73304 0)
(2.57026 -0.777119 4.13325e-26)
(2.59228 -0.797563 3.96041e-26)
(2.60459 -0.798485 -3.88295e-26)
(2.66524 -0.811032 -3.97017e-26)
(2.71583 -0.801939 -4.02393e-26)
(2.74727 -0.749993 -1.89832e-29)
(2.75697 -0.729964 -3.16088e-29)
(2.8075 -0.659139 -3.15553e-26)
(2.83743 -0.569908 -4.3966e-28)
(3.43458 -0.0755323 2.6775e-27)
(3.35754 -0.0919559 3.21548e-27)
(3.31426 -0.0977617 4.5293e-27)
(3.22466 -0.123648 0)
(3.15763 -0.159729 1.36392e-26)
(3.08631 -0.203598 0)
(3.05261 -0.218167 8.9905e-27)
(2.97335 -0.270198 1.10198e-26)
(2.91625 -0.332979 -1.25786e-26)
(2.87087 -0.399278 -5.47684e-28)
(2.84924 -0.418671 -5.81094e-28)
(2.79992 -0.487077 1.69018e-26)
(2.77009 -0.561628 -1.74023e-26)
(2.75621 -0.632967 -1.90774e-26)
(2.75569 -0.695315 -7.69598e-28)
(2.74343 -0.70825 7.99105e-28)
(2.74393 -0.768359 4.00263e-26)
(2.75753 -0.814553 4.12518e-26)
(2.79713 -0.841963 4.05579e-26)
(2.80551 -0.844012 0)
(2.84329 -0.854501 -5.13272e-28)
(2.88225 -0.842249 -8.2728e-26)
(2.93199 -0.790877 1.97893e-29)
(2.9462 -0.771117 3.24329e-29)
(2.97915 -0.693546 -3.30871e-26)
(2.995 -0.596093 2.98496e-26)
(3.57687 -0.0707837 0)
(3.51343 -0.0746471 3.44208e-27)
(3.40239 -0.0902252 -6.75164e-28)
(3.35682 -0.0971461 -4.68921e-28)
(3.29265 -0.124656 4.93829e-28)
(3.23845 -0.16003 6.18285e-27)
(3.13348 -0.202374 0)
(3.08827 -0.217664 -4.95424e-29)
(3.03211 -0.27268 -1.17685e-28)
(2.99437 -0.335777 1.14419e-29)
(2.9206 -0.400394 -5.38026e-28)
(2.87788 -0.419004 -1.475e-26)
(2.84794 -0.491966 1.73268e-26)
(2.83961 -0.568609 -1.81287e-26)
(2.80928 -0.638147 2.29463e-29)
(2.78287 -0.698866 1.77628e-26)
(2.78151 -0.715102 0)
(2.80325 -0.77936 4.1109e-26)
(2.8129 -0.82472 0)
(2.82558 -0.848187 0)
(2.83488 -0.852144 0)
(2.8928 -0.867943 0)
(2.93961 -0.855751 -4.20778e-26)
(2.96321 -0.798214 7.78097e-26)
(2.96955 -0.778716 -3.40208e-29)
(3.01972 -0.703929 5.42349e-28)
(3.05099 -0.606496 3.0819e-26)
(3.94859 -0.0799878 2.67297e-27)
(3.8565 -0.0748808 -4.23214e-27)
(3.78704 -0.0772509 9.52087e-28)
(3.70595 -0.0938936 -1.09304e-27)
(3.66003 -0.102771 4.10841e-27)
(3.56993 -0.131113 2.41507e-33)
(3.50013 -0.166034 5.1024e-27)
(3.42378 -0.210557 -3.32096e-29)
(3.3859 -0.228679 -7.25221e-30)
(3.30386 -0.285464 -1.03414e-28)
(3.24188 -0.348975 2.21865e-26)
(3.18937 -0.417099 0)
(3.16182 -0.440327 -2.73182e-26)
(3.10656 -0.515774 1.82048e-26)
(3.07017 -0.593046 -1.74334e-26)
(3.0496 -0.66628 6.88513e-28)
(3.03883 -0.734461 7.33619e-28)
(3.02257 -0.751799 7.75263e-28)
(3.01577 -0.815606 4.21177e-26)
(3.02234 -0.862716 -4.58305e-28)
(3.05383 -0.893721 -8.68222e-28)
(3.05856 -0.899556 4.22013e-26)
(3.09167 -0.91335 4.56883e-26)
(3.12487 -0.897228 4.35326e-26)
(3.16943 -0.840706 -2.17366e-29)
(3.18057 -0.822164 -3.82269e-26)
(3.21214 -0.741217 3.6527e-26)
(3.22688 -0.634717 -9.85322e-28)
(3.23118 -0.524843 -5.88035e-28)
(4.51671 -0.338616 -1.32645e-26)
(4.50869 -0.325253 -1.12954e-26)
(4.47632 -0.268037 0)
(4.40995 -0.210335 0)
(4.30575 -0.168321 1.19285e-27)
(4.27814 -0.161102 8.43602e-27)
(4.22807 -0.125943 -1.25592e-27)
(4.15834 -0.0935891 0)
(4.04142 -0.0774586 0)
(4.00232 -0.0797169 6.34999e-27)
(3.94166 -0.0756976 -1.89256e-27)
(3.87691 -0.074705 5.12076e-28)
(3.75459 -0.0895671 1.63777e-27)
(3.70573 -0.101538 3.1427e-27)
(3.64639 -0.132663 5.07379e-27)
(3.59338 -0.165133 3.16482e-27)
(3.47552 -0.206697 2.47551e-29)
(3.42416 -0.226922 7.0767e-27)
(3.3695 -0.288357 -1.65931e-28)
(3.3341 -0.351192 9.59273e-27)
(3.24514 -0.415484 -8.74724e-27)
(3.19257 -0.438882 -1.28814e-26)
(3.16026 -0.521042 3.59151e-26)
(3.15342 -0.600218 -1.85463e-26)
(3.11004 -0.669695 -3.36018e-26)
(3.06793 -0.736965 -3.51363e-26)
(3.06477 -0.759199 0)
(3.08531 -0.827441 4.32709e-26)
(3.08614 -0.872312 0)
(3.08473 -0.899358 0)
(3.09057 -0.908471 -4.15465e-29)
(3.14817 -0.928243 4.78699e-26)
(3.19192 -0.911271 4.39388e-26)
(3.20423 -0.847618 -7.82463e-26)
(3.20579 -0.830435 0)
(3.25797 -0.753389 7.98759e-26)
(3.2939 -0.646394 0)
(3.27287 -0.528988 -2.3602e-26)
(3.22977 -0.428392 4.03271e-26)
(3.22404 -0.405582 -6.62671e-28)
(3.20599 -0.309528 -2.9884e-26)
(3.15072 -0.215858 0)
(3.05307 -0.141823 1.13253e-27)
(3.01767 -0.127502 2.61945e-27)
(4.88577 -0.359217 -9.05636e-27)
(4.85408 -0.350022 -1.79869e-27)
(4.78929 -0.287106 9.24461e-27)
(4.73439 -0.222585 6.29392e-27)
(4.6584 -0.18404 -4.88974e-27)
(4.61439 -0.181697 1.19683e-26)
(4.53552 -0.141508 -3.09147e-33)
(4.47095 -0.102575 8.65387e-28)
(4.38629 -0.0892478 2.17e-27)
(4.33785 -0.0972759 8.28659e-27)
(4.24845 -0.0904349 8.1529e-28)
(4.17801 -0.0835369 -4.83439e-28)
(4.08958 -0.100583 7.87105e-34)
(4.03884 -0.119186 7.33507e-27)
(3.95044 -0.14989 8.38672e-27)
(3.87902 -0.176644 -4.39844e-27)
(3.79629 -0.220179 -3.13732e-27)
(3.75177 -0.247609 1.51319e-30)
(3.66988 -0.311081 -1.47634e-26)
(3.60497 -0.368806 -3.80265e-28)
(3.54561 -0.434606 -9.34153e-27)
(3.50868 -0.466385 1.12115e-32)
(3.4497 -0.552922 2.20533e-26)
(3.40787 -0.627706 0)
(3.38148 -0.698487 -1.61399e-26)
(3.357 -0.774718 -3.58882e-26)
(3.33713 -0.800942 0)
(3.32393 -0.86636 -4.65378e-26)
(3.32367 -0.909708 -4.77013e-28)
(3.34423 -0.944267 4.15401e-28)
(3.34436 -0.958022 -4.62529e-26)
(3.37376 -0.975949 0)
(3.4019 -0.952506 4.24272e-26)
(3.44074 -0.889918 -7.36751e-26)
(3.4467 -0.876304 -4.71555e-28)
(3.47758 -0.795382 4.35426e-26)
(3.48949 -0.677009 -3.43521e-26)
(3.4912 -0.554909 -4.84378e-26)
(3.46067 -0.453674 2.3003e-26)
(3.43782 -0.43021 3.16592e-32)
(3.39492 -0.325552 -1.8867e-26)
(3.34732 -0.225876 -1.05709e-27)
(3.26607 -0.150986 0)
(3.22256 -0.138444 0)
(5.28447 -0.378677 1.21029e-26)
(5.22959 -0.361988 -1.15136e-26)
(5.12972 -0.301665 9.79567e-27)
(5.08716 -0.244619 7.24024e-27)
(5.03494 -0.203413 -1.89096e-29)
(4.97823 -0.193409 1.3323e-27)
(4.8647 -0.153385 1.15452e-27)
(4.81234 -0.121483 0)
(4.75445 -0.10777 1.22173e-26)
(4.70238 -0.108256 -1.88275e-27)
(4.57703 -0.100029 -7.81723e-28)
(4.51215 -0.100432 0)
(4.4499 -0.12007 4.13197e-27)
(4.40407 -0.13198 7.70883e-27)
(4.27857 -0.15983 -5.1212e-28)
(4.20219 -0.193962 -1.74739e-28)
(4.14256 -0.24338 -7.24579e-27)
(4.11204 -0.265461 2.92197e-28)
(3.9948 -0.325025 -1.41133e-26)
(3.91362 -0.388888 4.02235e-28)
(3.87223 -0.46385 4.61662e-28)
(3.85803 -0.492714 3.66342e-28)
(3.76716 -0.57441 -2.00996e-26)
(3.69552 -0.653634 7.25242e-28)
(3.68155 -0.735083 7.18561e-28)
(3.67346 -0.814977 -3.77187e-26)
(3.63843 -0.834833 -1.42171e-27)
(3.58593 -0.900375 -4.56512e-26)
(3.59146 -0.95365 -4.20214e-26)
(3.62955 -0.994195 4.07441e-26)
(3.62668 -1.00363 5.16373e-28)
(3.62008 -1.01793 4.71054e-26)
(3.64433 -0.999044 4.31081e-26)
(3.701 -0.939229 -3.87486e-26)
(3.71511 -0.922495 0)
(3.71659 -0.831497 5.79391e-28)
(3.71019 -0.709806 -7.11901e-26)
(3.72696 -0.587422 -5.95162e-28)
(3.70966 -0.478238 3.25716e-32)
(3.67062 -0.449031 -2.51151e-26)
(3.59774 -0.339436 0)
(3.56056 -0.240327 1.39193e-26)
(3.49437 -0.161764 0)
(3.44715 -0.145554 1.35251e-26)
(5.34393 -0.378224 1.4818e-26)
(5.31223 -0.358089 -1.00302e-26)
(5.23852 -0.301789 -3.05767e-27)
(5.17734 -0.247668 -9.59863e-27)
(5.09259 -0.20306 4.84231e-27)
(5.05052 -0.1892 5.4539e-27)
(4.97078 -0.151978 -1.1419e-27)
(4.90306 -0.12338 4.97666e-27)
(4.81263 -0.107142 5.35006e-27)
(4.76564 -0.103538 0)
(4.67933 -0.0968824 -3.68767e-27)
(4.60527 -0.101301 3.24185e-27)
(4.50998 -0.119601 3.66876e-27)
(4.45792 -0.127529 5.76103e-27)
(4.37258 -0.155862 0)
(4.29538 -0.194764 1.16124e-26)
(4.20529 -0.244282 -7.20153e-29)
(4.15604 -0.262139 1.94193e-26)
(4.07653 -0.321681 3.4276e-29)
(4.00442 -0.390862 0)
(3.93799 -0.4676 0)
(3.89312 -0.491673 0)
(3.83408 -0.573546 -3.60751e-26)
(3.78417 -0.659031 0)
(3.75105 -0.743022 7.14754e-28)
(3.71222 -0.818187 -1.71464e-26)
(3.69078 -0.837813 2.08794e-26)
(3.67022 -0.910463 0)
(3.66213 -0.966533 -4.3825e-26)
(3.67037 -1.00295 4.18761e-26)
(3.66634 -1.01017 4.42427e-26)
(3.69236 -1.03127 4.72207e-26)
(3.71563 -1.01597 0)
(3.74614 -0.951238 -4.12258e-26)
(3.74595 -0.929347 0)
(3.7743 -0.840734 0)
(3.77957 -0.721297 -5.48282e-28)
(3.77643 -0.596258 2.99771e-26)
(3.7379 -0.481925 3.19558e-32)
(3.71535 -0.450231 -4.59329e-26)
(3.66696 -0.342371 8.15092e-28)
(3.61408 -0.243187 1.62244e-26)
(3.52523 -0.162056 1.23298e-26)
(3.48028 -0.143358 1.07148e-26)
(5.89398 -0.511282 -1.4073e-26)
(5.8379 -0.448288 2.50639e-26)
(5.77671 -0.385293 0)
(5.71878 -0.363642 -8.89251e-27)
(5.61956 -0.308715 -6.64804e-27)
(5.56099 -0.256892 -6.77837e-27)
(5.49792 -0.211009 -1.20166e-27)
(5.44037 -0.194917 4.50438e-27)
(5.33412 -0.158316 0)
(5.27351 -0.13187 4.52658e-27)
(5.20828 -0.115062 -8.10492e-28)
(5.15605 -0.108615 0)
(5.04049 -0.102015 -5.70295e-27)
(4.97265 -0.109399 1.74872e-27)
(4.90167 -0.128748 -4.01702e-27)
(4.85437 -0.13409 -1.24541e-27)
(4.73558 -0.161933 -5.10129e-28)
(4.65893 -0.20526 4.91873e-27)
(4.58623 -0.258034 -1.01687e-28)
(4.5514 -0.273977 8.34299e-27)
(4.43576 -0.33287 9.38814e-27)
(4.35709 -0.406813 -3.88721e-28)
(4.29938 -0.489148 -8.48549e-28)
(4.27855 -0.513192 -1.46104e-26)
(4.18489 -0.59367 -3.19627e-26)
(4.11572 -0.683981 -7.1966e-28)
(4.08501 -0.775056 -1.43132e-27)
(4.06399 -0.856312 1.7817e-26)
(4.02474 -0.872796 -2.64329e-29)
(3.97052 -0.946642 0)
(3.96398 -1.01071 0)
(3.99016 -1.05503 4.36853e-26)
(3.98228 -1.06083 8.83152e-26)
(3.97351 -1.07956 4.73082e-26)
(3.99411 -1.06649 0)
(4.0356 -1.00192 2.72362e-29)
(4.04311 -0.978364 0)
(4.03769 -0.879639 0)
(4.03069 -0.754782 3.79043e-26)
(4.03316 -0.624762 -3.28851e-26)
(4.00762 -0.502076 -2.64365e-26)
(3.96661 -0.466568 -2.16875e-26)
(3.89532 -0.35319 0)
(3.84712 -0.250684 1.09111e-27)
(3.77256 -0.164413 1.17544e-26)
(3.7228 -0.143639 0)
(6.13814 -0.590579 -2.18293e-27)
(6.09632 -0.566208 1.09603e-26)
(6.00427 -0.508013 -2.57971e-26)
(5.93956 -0.447221 1.00036e-26)
(5.84476 -0.383122 -1.67812e-27)
(5.80998 -0.359789 -5.94718e-27)
(5.72403 -0.307062 -5.76991e-27)
(5.65737 -0.25742 0)
(5.56356 -0.210234 0)
(5.52085 -0.192107 0)
(5.43672 -0.156903 0)
(5.36846 -0.132542 0)
(5.27397 -0.114379 0)
(5.22721 -0.105772 -8.96488e-28)
(5.14261 -0.099951 -2.96533e-27)
(5.06875 -0.109445 0)
(4.97031 -0.128164 -2.26214e-27)
(4.91701 -0.131306 -2.37407e-27)
(4.83403 -0.159169 2.21701e-27)
(4.75388 -0.205016 3.99922e-27)
(4.65858 -0.258145 0)
(4.60451 -0.271536 0)
(4.52526 -0.330719 1.43897e-26)
(4.44657 -0.407589 0)
(4.37463 -0.491835 0)
(4.32202 -0.512534 3.30934e-28)
(4.26084 -0.593844 -1.38142e-26)
(4.20139 -0.687809 -6.78927e-28)
(4.16296 -0.781576 -7.03879e-28)
(4.11007 -0.85919 1.89055e-26)
(4.08611 -0.876654 2.67469e-29)
(4.0558 -0.955719 -1.30245e-27)
(4.04208 -1.02263 -1.00149e-27)
(4.03913 -1.06337 4.42579e-26)
(4.03046 -1.06824 8.85276e-26)
(4.05262 -1.09369 4.71467e-26)
(4.07064 -1.08256 -3.9826e-28)
(4.08882 -1.01324 4.51322e-26)
(4.08084 -0.98557 -3.99695e-26)
(4.10226 -0.889553 -5.8277e-28)
(4.09912 -0.764956 -6.22578e-28)
(4.08927 -0.632878 -6.52431e-28)
(4.04084 -0.505997 -2.67855e-26)
(4.01747 -0.468742 -2.00984e-26)
(3.96264 -0.355583 -1.81607e-26)
(3.90557 -0.252709 1.44257e-26)
(3.8082 -0.164672 -9.85971e-27)
(3.76121 -0.142139 9.98289e-28)
(6.81591 -0.707614 1.38865e-26)
(6.72955 -0.651939 0)
(6.64541 -0.586583 0)
(6.56874 -0.562886 0)
(6.46521 -0.506318 -1.15466e-26)
(6.38812 -0.447873 8.84695e-27)
(6.31136 -0.384489 8.23174e-27)
(6.24927 -0.361239 1.63449e-27)
(6.14769 -0.310302 -1.44229e-27)
(6.07323 -0.262568 -4.18532e-33)
(5.99985 -0.21614 -2.86606e-27)
(5.94004 -0.197162 1.21854e-27)
(5.83778 -0.16293 4.07986e-27)
(5.76897 -0.140046 -1.91255e-27)
(5.69785 -0.12224 7.75573e-28)
(5.64522 -0.112897 0)
(5.53958 -0.107242 -2.59903e-29)
(5.47035 -0.118022 0)
(5.39408 -0.138178 -1.61291e-27)
(5.34565 -0.140265 -6.26598e-28)
(5.23535 -0.167866 1.05568e-27)
(5.16094 -0.216538 4.62058e-28)
(5.07955 -0.272537 -4.50099e-27)
(5.04154 -0.285631 5.37517e-27)
(4.92867 -0.344409 5.3633e-27)
(4.85328 -0.42514 0)
(4.78191 -0.513958 -1.1034e-26)
(4.75561 -0.536023 1.21576e-26)
(4.65847 -0.617493 1.35379e-26)
(4.59057 -0.714947 -1.21024e-32)
(4.54472 -0.814174 -1.88203e-26)
(4.51277 -0.898521 6.66409e-28)
(4.46812 -0.913864 1.91607e-26)
(4.41139 -0.995369 6.4359e-28)
(4.39326 -1.06942 5.05073e-28)
(4.40837 -1.11808 -4.44986e-26)
(4.39458 -1.12254 4.4617e-26)
(4.38181 -1.14616 5.07559e-28)
(4.39383 -1.13507 -4.68316e-32)
(4.41478 -1.06306 -4.61083e-26)
(4.41377 -1.03412 -4.03002e-26)
(4.39676 -0.928573 0)
(4.38492 -0.798592 3.93315e-26)
(4.37128 -0.65982 6.90751e-26)
(4.33574 -0.525415 2.38848e-26)
(4.2914 -0.484822 -1.92481e-26)
(4.21956 -0.366039 -1.70487e-26)
(4.16025 -0.258602 2.74255e-26)
(4.07742 -0.16589 -8.60287e-27)
(4.0245 -0.141947 0)
(7.02425 -0.746548 -1.4458e-26)
(6.92752 -0.696858 1.42719e-26)
(6.84061 -0.642739 0)
(6.72079 -0.578494 0)
(6.67583 -0.554075 0)
(6.57206 -0.498489 0)
(6.49489 -0.44182 2.01321e-26)
(6.38456 -0.379062 9.87415e-27)
(6.3462 -0.355371 3.18501e-27)
(6.24953 -0.305609 6.39352e-27)
(6.17482 -0.259676 3.45205e-27)
(6.07027 -0.213225 -5.94013e-27)
(6.02601 -0.193717 1.1836e-27)
(5.93812 -0.160591 -6.4445e-29)
(5.86819 -0.138781 -2.90445e-27)
(5.76941 -0.120633 7.30589e-28)
(5.72332 -0.110708 2.35549e-27)
(5.64063 -0.105608 -4.85229e-27)
(5.56927 -0.117109 -5.06663e-28)
(5.46918 -0.136773 4.46806e-28)
(5.41533 -0.137772 6.00901e-28)
(5.33674 -0.166035 5.61931e-28)
(5.25905 -0.215598 -2.44939e-27)
(5.16028 -0.271574 -3.25867e-27)
(5.10285 -0.28302 3.17696e-27)
(5.02584 -0.343036 -3.54517e-29)
(4.94724 -0.425172 0)
(4.86787 -0.515229 -9.95746e-27)
(4.8072 -0.534568 -3.03198e-28)
(4.74513 -0.61729 -4.38042e-28)
(4.68118 -0.717914 0)
(4.63455 -0.819362 -1.74587e-26)
(4.567 -0.900976 0)
(4.54051 -0.918357 0)
(4.50248 -1.00409 6.05365e-28)
(4.48326 -1.08101 4.85584e-28)
(4.46649 -1.12617 -9.10835e-26)
(4.45235 -1.13078 0)
(4.46904 -1.16068 4.82101e-28)
(4.47778 -1.14951 5.22431e-26)
(4.47609 -1.07297 4.14973e-28)
(4.45806 -1.04123 4.70558e-28)
(4.46779 -0.938366 4.07644e-26)
(4.4552 -0.807153 4.03288e-26)
(4.43407 -0.666426 3.59062e-26)
(4.37309 -0.52854 2.3639e-26)
(4.34795 -0.48719 1.62801e-26)
(4.28636 -0.367569 0)
(4.22407 -0.259284 1.49448e-26)
(4.11711 -0.165098 4.77909e-27)
(4.06795 -0.140423 2.05729e-27)
(7.6508 -0.78345 -1.35834e-26)
(7.52295 -0.731925 -1.23847e-26)
(7.43053 -0.68216 2.40205e-27)
(7.33153 -0.628512 1.37221e-26)
(7.23619 -0.565773 9.40236e-27)
(7.15996 -0.542691 0)
(7.05419 -0.488533 -1.01594e-26)
(6.96094 -0.433806 1.32489e-26)
(6.87144 -0.37321 5.16352e-27)
(6.80686 -0.350444 1.56457e-27)
(6.70242 -0.303084 8.59305e-27)
(6.61364 -0.259274 1.95871e-29)
(6.52917 -0.214618 -1.72939e-27)
(6.46746 -0.196455 0)
(6.36861 -0.165112 1.07196e-27)
(6.29235 -0.144347 1.53778e-27)
(6.21601 -0.12802 -2.03258e-33)
(6.16268 -0.118187 5.6314e-27)
(6.06461 -0.113879 -2.84397e-27)
(5.99466 -0.12622 5.04715e-28)
(5.91633 -0.14761 1.76804e-27)
(5.86791 -0.148814 6.03097e-28)
(5.76846 -0.177488 5.64883e-28)
(5.69802 -0.228652 3.66055e-28)
(5.61318 -0.287221 -1.7483e-27)
(5.5737 -0.299747 0)
(5.46881 -0.36001 0)
(5.3999 -0.444856 4.95009e-27)
(5.31961 -0.538519 -3.42089e-28)
(5.28889 -0.560642 9.17384e-27)
(5.19321 -0.643427 1.55104e-29)
(5.12968 -0.747767 -1.30072e-26)
(5.07078 -0.853423 0)
(5.02945 -0.942379 0)
(4.98025 -0.958835 0)
(4.92281 -1.04803 -5.86433e-28)
(4.89223 -1.13071 4.18961e-32)
(4.89257 -1.18271 -4.52888e-26)
(4.87101 -1.18762 -4.50435e-28)
(4.85025 -1.215 0)
(4.84554 -1.20088 5.21367e-26)
(4.8407 -1.11939 9.24267e-26)
(4.82869 -1.08675 0)
(4.79626 -0.975571 -5.07129e-29)
(4.77472 -0.838966 0)
(4.74306 -0.69061 0)
(4.69448 -0.546175 1.71741e-27)
(4.6461 -0.502013 1.68984e-26)
(4.57091 -0.376897 0)
(4.50032 -0.263103 -1.34282e-26)
(4.40872 -0.1647 -2.43451e-27)
(4.35334 -0.139839 -2.04022e-27)
(7.72748 -0.771386 1.11306e-26)
(7.63215 -0.71894 -2.70241e-27)
(7.53753 -0.667472 -1.1993e-26)
(7.4419 -0.61433 3.3091e-29)
(7.31072 -0.553986 8.98264e-27)
(7.26628 -0.531328 2.1377e-27)
(7.15975 -0.476361 -8.08536e-27)
(7.07076 -0.422483 -1.6323e-27)
(6.94566 -0.363898 7.81195e-27)
(6.90591 -0.342441 1.53173e-27)
(6.80622 -0.295026 1.98575e-27)
(6.72072 -0.251714 -1.65451e-27)
(6.60336 -0.208849 -2.46143e-28)
(6.55896 -0.19271 0)
(6.47086 -0.16156 0)
(6.39749 -0.140816 0)
(6.29122 -0.124388 0)
(6.24497 -0.115938 -3.05173e-29)
(6.16725 -0.112551 5.16279e-27)
(6.09942 -0.124382 -4.94325e-27)
(5.99578 -0.145046 -4.30838e-28)
(5.94274 -0.146875 4.38377e-27)
(5.87297 -0.177187 -5.9131e-28)
(5.80332 -0.227429 -2.98979e-27)
(5.70031 -0.285074 2.2398e-28)
(5.64123 -0.29722 -1.81383e-28)
(5.57211 -0.360594 -7.94924e-29)
(5.50363 -0.445 3.12254e-27)
(5.41547 -0.538075 0)
(5.34778 -0.558414 7.48284e-27)
(5.2899 -0.645472 1.60041e-26)
(5.23311 -0.751033 -2.32659e-26)
(5.17471 -0.856781 -1.50402e-26)
(5.09153 -0.944226 6.93996e-28)
(5.06438 -0.96464 1.26498e-27)
(5.02763 -1.05751 5.40205e-28)
(4.99927 -1.14119 4.60478e-28)
(4.96015 -1.18954 1.27826e-27)
(4.93894 -1.1963 9.05924e-28)
(4.94796 -1.22903 0)
(4.94307 -1.21241 -8.47568e-28)
(4.91078 -1.12651 4.41047e-26)
(4.87985 -1.09326 0)
(4.87497 -0.984847 -4.2005e-26)
(4.85391 -0.845651 -1.32897e-27)
(4.81392 -0.694698 0)
(4.73581 -0.54775 2.14119e-26)
(4.70874 -0.50456 0)
(4.64264 -0.377643 -1.73731e-27)
(4.57175 -0.262014 -2.26518e-27)
(4.45424 -0.163098 -2.55368e-27)
(4.40416 -0.138962 -4.82575e-27)
(8.2421 -0.748039 8.68686e-27)
(8.1166 -0.696654 0)
(8.02273 -0.645108 -1.64174e-26)
(7.91731 -0.591168 -8.42725e-27)
(7.81353 -0.532723 -4.67229e-27)
(7.74024 -0.511843 2.11325e-27)
(7.63272 -0.45851 2.08946e-27)
(7.53103 -0.405117 -4.58572e-27)
(7.43124 -0.349451 -2.11309e-28)
(7.36801 -0.331215 1.34108e-28)
(7.26313 -0.286307 -3.60903e-28)
(7.16585 -0.243899 8.92513e-28)
(7.07238 -0.20486 2.16216e-27)
(7.01007 -0.190973 0)
(6.91074 -0.162353 -2.01314e-27)
(6.82804 -0.142462 -1.52905e-27)
(6.74644 -0.128584 6.49131e-28)
(6.69338 -0.122177 -6.72948e-27)
(6.60113 -0.120504 6.70428e-27)
(6.5308 -0.132674 -1.26999e-26)
(6.45223 -0.155293 0)
(6.40449 -0.159216 -2.29527e-29)
(6.31667 -0.190666 -5.60601e-27)
(6.25023 -0.241213 1.35754e-29)
(6.16748 -0.300948 0)
(6.12731 -0.316207 1.93429e-27)
(6.03499 -0.380822 1.93311e-28)
(5.9737 -0.466125 -3.25364e-28)
(5.8926 -0.561443 4.46751e-27)
(5.85793 -0.586744 0)
(5.77139 -0.675326 7.27575e-27)
(5.71573 -0.7828 -9.93907e-27)
(5.64977 -0.890648 -1.16697e-26)
(5.60031 -0.986242 1.71549e-26)
(5.55084 -1.00831 1.58862e-26)
(5.49568 -1.1038 -1.04372e-27)
(5.4536 -1.19011 -9.22343e-28)
(5.43512 -1.24374 -8.30495e-28)
(5.40521 -1.25237 0)
(5.37289 -1.28108 0)
(5.34549 -1.25813 9.06786e-28)
(5.3128 -1.16618 9.46309e-28)
(5.287 -1.13297 3.92744e-26)
(5.23744 -1.01834 1.16142e-27)
(5.20027 -0.873157 0)
(5.15076 -0.71393 0)
(5.08481 -0.562153 -7.68554e-29)
(5.03229 -0.517298 1.64215e-27)
(4.9495 -0.384992 1.7819e-27)
(4.86933 -0.263202 6.04049e-27)
(4.77048 -0.161893 -6.39905e-28)
(4.71143 -0.136535 0)
(8.31923 -0.731033 -5.15762e-27)
(8.22558 -0.680733 2.16857e-27)
(8.13912 -0.624017 -5.95503e-27)
(8.02844 -0.568421 1.95486e-27)
(7.88195 -0.514725 1.75624e-27)
(7.84375 -0.498222 -1.28352e-27)
(7.74695 -0.441796 0)
(7.64542 -0.385823 1.57119e-27)
(7.50438 -0.334671 4.47991e-27)
(7.46805 -0.321963 -1.86577e-27)
(7.37694 -0.274666 2.15948e-27)
(7.28056 -0.229525 -7.31977e-27)
(7.14572 -0.193366 0)
(7.1022 -0.185468 -1.07454e-27)
(7.02328 -0.156618 -5.58642e-27)
(6.9433 -0.133559 -5.26696e-27)
(6.82212 -0.120619 0)
(6.77722 -0.119534 0)
(6.71225 -0.119551 0)
(6.64792 -0.128003 2.23639e-29)
(6.53297 -0.149164 -9.56045e-27)
(6.48068 -0.157314 -1.55935e-26)
(6.42678 -0.192509 -6.62032e-27)
(6.37075 -0.239055 7.09696e-27)
(6.25736 -0.29541 -3.60459e-28)
(6.19653 -0.313336 -3.85255e-28)
(6.14285 -0.384277 0)
(6.09536 -0.466809 2.19885e-28)
(5.99481 -0.557324 2.23675e-27)
(5.91958 -0.582874 3.99826e-27)
(5.87374 -0.680614 0)
(5.83928 -0.786681 0)
(5.76615 -0.889832 0)
(5.66533 -0.986093 1.22322e-26)
(5.64217 -1.01604 1.71914e-26)
(5.62077 -1.11485 -1.8816e-26)
(5.58025 -1.19722 -8.86654e-28)
(5.50876 -1.24677 3.90117e-26)
(5.48027 -1.26066 4.45919e-26)
(5.48505 -1.29413 -5.06436e-26)
(5.4672 -1.26535 0)
(5.39105 -1.16744 -3.79335e-26)
(5.3438 -1.13743 7.04646e-26)
(5.32558 -1.02676 3.93699e-26)
(5.30189 -0.87709 0)
(5.23109 -0.712208 2.4898e-26)
(5.12873 -0.559861 -1.97529e-27)
(5.1012 -0.519614 -1.69835e-27)
(5.03706 -0.384546 0)
(4.95436 -0.259584 0)
(4.81881 -0.156857 4.91961e-27)
(4.76409 -0.133592 -5.32184e-27)
(8.7948 -0.712556 -8.49752e-27)
(8.67738 -0.667759 6.00885e-27)
(8.58588 -0.606889 -5.3286e-27)
(8.47777 -0.544152 0)
(8.36045 -0.499685 1.63319e-27)
(8.2953 -0.491438 -3.70465e-29)
(8.18572 -0.43004 0)
(8.08649 -0.369784 -1.52697e-27)
(7.97567 -0.326155 -1.22899e-27)
(7.91566 -0.320289 -1.47468e-27)
(7.80669 -0.272635 -2.7352e-29)
(7.71173 -0.223019 2.00272e-29)
(7.60697 -0.194168 8.90098e-28)
(7.54657 -0.194204 1.10966e-27)
(7.44627 -0.164612 -1.04332e-27)
(7.36474 -0.137014 -1.42037e-27)
(7.27561 -0.12961 -8.60522e-27)
(7.22278 -0.13667 1.63596e-27)
(7.13516 -0.136611 0)
(7.06699 -0.139598 9.06453e-27)
(6.98737 -0.163936 -1.05691e-26)
(6.93868 -0.180808 2.52757e-29)
(6.86232 -0.216805 0)
(6.79849 -0.257206 0)
(6.72208 -0.314687 -4.32813e-28)
(6.67862 -0.342476 -2.62073e-27)
(6.60256 -0.416219 -1.93941e-27)
(6.54372 -0.492524 0)
(6.47306 -0.582071 -6.88237e-28)
(6.43115 -0.619044 6.0022e-27)
(6.3607 -0.722579 5.68712e-28)
(6.30973 -0.823261 9.25959e-28)
(6.25098 -0.923273 1.14887e-27)
(6.19254 -1.03136 0)
(6.1481 -1.06984 -1.05045e-27)
(6.09757 -1.16562 -2.213e-26)
(6.05245 -1.24307 0)
(6.01412 -1.29801 3.85788e-26)
(5.97648 -1.31999 1.02892e-25)
(5.93494 -1.34797 -5.86605e-26)
(5.88631 -1.30597 -1.04324e-27)
(5.82676 -1.20295 -3.70388e-26)
(5.78328 -1.17855 4.31408e-26)
(5.71761 -1.06469 9.83262e-26)
(5.65754 -0.90421 -1.5358e-27)
(5.59686 -0.731273 2.39194e-26)
(5.5065 -0.580755 2.03828e-26)
(5.45066 -0.541368 1.69499e-27)
(5.35646 -0.398369 1.90448e-27)
(5.27249 -0.265654 -3.42599e-27)
(5.15652 -0.162044 -9.20579e-29)
(5.09149 -0.14224 -2.33469e-27)
(9.19477 -0.692277 -3.93471e-27)
(9.06969 -0.640174 7.72224e-27)
(8.96866 -0.583053 -4.08744e-29)
(8.89053 -0.527584 2.1429e-27)
(8.80257 -0.478283 0)
(8.71824 -0.467979 6.66166e-27)
(8.59292 -0.410302 7.64729e-27)
(8.51329 -0.359417 3.01382e-27)
(8.4251 -0.313854 0)
(8.35025 -0.303422 -2.74005e-29)
(8.21911 -0.261789 -2.44261e-27)
(8.13867 -0.222697 2.16122e-27)
(8.05734 -0.194663 7.03567e-30)
(7.98653 -0.189052 -2.22542e-27)
(7.85919 -0.163925 2.32328e-27)
(7.7889 -0.147182 1.39551e-27)
(7.72419 -0.142621 -4.41555e-27)
(7.66857 -0.143279 4.75372e-27)
(7.55163 -0.145481 1.47041e-27)
(7.49077 -0.158692 1.00725e-27)
(7.43792 -0.18754 1.01642e-27)
(7.39666 -0.197567 3.84363e-27)
(7.2903 -0.232706 2.67416e-27)
(7.22877 -0.282364 0)
(7.18136 -0.346716 -2.62954e-27)
(7.15751 -0.368258 6.42355e-28)
(7.05223 -0.438234 -6.732e-28)
(6.98556 -0.522797 0)
(6.94566 -0.621764 0)
(6.93709 -0.654522 2.1802e-28)
(6.8388 -0.751541 5.05976e-28)
(6.76437 -0.858622 0)
(6.73535 -0.970578 -1.20565e-26)
(6.71204 -1.08149 1.02819e-27)
(6.65297 -1.10998 1.9912e-26)
(6.56607 -1.20693 -9.80385e-28)
(6.53581 -1.29471 -9.27743e-28)
(6.52266 -1.35086 0)
(6.48251 -1.36269 4.96251e-26)
(6.38749 -1.38004 1.61478e-27)
(6.32754 -1.33896 -4.98661e-26)
(6.27674 -1.23738 1.10706e-27)
(6.24368 -1.20669 0)
(6.12563 -1.0815 1.09501e-27)
(6.03731 -0.921384 4.20809e-26)
(5.98101 -0.751959 -2.05586e-27)
(5.90215 -0.593479 -2.96036e-26)
(5.82053 -0.548703 -1.97286e-26)
(5.6889 -0.404207 1.96409e-27)
(5.61039 -0.274168 -1.00713e-26)
(5.51122 -0.167882 4.5989e-27)
(5.44143 -0.143263 -8.45105e-27)
(9.24679 -0.671557 8.01494e-27)
(9.15814 -0.61493 9.74109e-28)
(9.07691 -0.560671 4.27831e-27)
(8.98267 -0.509618 3.56664e-29)
(8.87078 -0.459711 -5.80103e-33)
(8.81869 -0.443371 7.90579e-27)
(8.70631 -0.389686 1.04901e-27)
(8.61328 -0.343189 0)
(8.49677 -0.298181 -3.67146e-27)
(8.44696 -0.282891 -2.86583e-27)
(8.33323 -0.244098 -6.90542e-27)
(8.24236 -0.211558 0)
(8.1315 -0.18344 -1.93248e-29)
(8.07847 -0.17346 2.15041e-27)
(7.97526 -0.151721 1.98791e-27)
(7.89567 -0.141641 0)
(7.80153 -0.136774 0)
(7.75325 -0.133242 9.41965e-27)
(7.66803 -0.137976 -9.55238e-27)
(7.60043 -0.157596 1.06251e-27)
(7.51954 -0.186115 -1.11137e-32)
(7.47306 -0.19141 6.28149e-27)
(7.40568 -0.227678 1.49971e-26)