/*--------------------------------*- C++ -*----------------------------------*\
| =========                 |                                                 |
| \\      /  F ield         | OpenFOAM: The Open Source CFD Toolbox           |
|  \\    /   O peration     | Version:  v2012                                 |
|   \\  /    A nd           | Website:  www.openfoam.com                      |
|    \\/     M anipulation  |                                                 |
\*---------------------------------------------------------------------------*/
FoamFile
{
    version     2.0;
    format      ascii;
    class       volSymmTensorField;
    location    "1e-06";
    object      UPrime2Mean;
}
// * * * * * * * * * * * * * * * * * * * * * * * * * * * * * * * * * * * * * //

dimensions      [0 2 -2 0 0 0 0];


internalField   nonuniform List<symmTensor> 
10098
(
(0.000158565 -2.55746e-05 0 4.18142e-06 0 0)
(0.000128861 -2.22289e-05 6.63115e-28 3.92963e-06 -1.03285e-28 5.13828e-51)
(0.000118118 -1.85499e-05 3.73869e-34 2.9999e-06 -5.13755e-35 1.84347e-63)
(0.000148051 -2.17462e-05 1.03019e-29 3.2537e-06 -1.30045e-30 1.49811e-54)
(0.000159731 -2.56505e-05 -7.71004e-28 4.18054e-06 1.12852e-28 5.77571e-51)
(0.000123642 -2.15793e-05 0 3.86131e-06 0 0)
(0.00011419 -1.79114e-05 -8.60827e-30 2.86347e-06 1.17098e-30 1.26832e-54)
(0.000140637 -2.1074e-05 3.52263e-34 3.20306e-06 -4.78622e-35 1.4207e-63)
(0.000154343 -2.3365e-05 7.06708e-30 3.56569e-06 -9.59398e-31 7.86682e-55)
(0.000128268 -2.07387e-05 5.39347e-28 3.40083e-06 -8.03192e-29 3.40121e-51)
(0.000118114 -1.77158e-05 -5.01904e-28 2.68393e-06 6.99583e-29 3.19591e-51)
(0.00012904 -1.85555e-05 9.14485e-31 2.68724e-06 -1.21423e-31 1.31125e-56)
(8.59522e-05 -1.22753e-05 -6.10613e-28 1.79218e-06 7.85629e-29 6.2724e-51)
(7.33539e-05 -1.13479e-05 -1.07689e-29 1.83045e-06 1.40404e-30 2.64128e-54)
(8.19379e-05 -1.14995e-05 -1.05455e-29 1.67235e-06 1.24227e-30 2.33532e-54)
(9.85041e-05 -1.24957e-05 0 1.64436e-06 0 0)
(9.34718e-05 -1.15459e-05 -6.33311e-28 1.47499e-06 7.06248e-29 6.17445e-51)
(6.97772e-05 -9.39033e-06 0 1.29541e-06 0 0)
(7.7995e-05 -1.03527e-05 5.19129e-28 1.40953e-06 -6.20329e-29 4.92588e-51)
(9.99092e-05 -1.24883e-05 -5.998e-28 1.60502e-06 6.8316e-29 5.19989e-51)
(9.62342e-05 -1.13978e-05 6.07399e-30 1.40004e-06 -6.75524e-31 7.97295e-55)
(7.35894e-05 -9.58803e-06 0 1.27537e-06 0 0)
(7.8118e-05 -1.05874e-05 -4.12963e-28 1.45952e-06 5.16406e-29 3.09672e-51)
(9.50336e-05 -1.2755e-05 -8.3871e-31 1.73605e-06 1.03453e-31 1.38103e-56)
(0.000156791 -2.53834e-05 1.43001e-30 4.17881e-06 -2.03028e-31 2.57129e-56)
(0.000130631 -2.29978e-05 0 4.16649e-06 0 0)
(0.00011808 -1.90114e-05 0 3.1545e-06 0 0)
(0.00014763 -2.15844e-05 0 3.22284e-06 0 0)
(0.00015949 -2.61653e-05 9.70902e-30 4.36014e-06 -1.37913e-30 1.29509e-54)
(0.000124743 -2.28282e-05 1.02861e-29 4.29079e-06 -1.61769e-30 1.67804e-54)
(0.000115475 -1.91029e-05 -9.59484e-30 3.22634e-06 1.37145e-30 1.56233e-54)
(0.000140732 -2.09876e-05 -7.54227e-28 3.17304e-06 1.02835e-28 6.20069e-51)
(0.000153763 -2.32475e-05 7.17201e-30 3.54377e-06 -9.7114e-31 8.07765e-55)
(0.000128435 -2.14286e-05 8.56101e-30 3.62615e-06 -1.26035e-30 1.20145e-54)
(0.000118872 -1.80041e-05 0 2.75388e-06 0 0)
(0.000127445 -1.79218e-05 -1.08583e-27 2.54206e-06 1.43493e-28 1.39497e-50)
(0.00012695 -2.00111e-05 9.79473e-31 3.18691e-06 -1.86539e-31 6.28862e-56)
(0.00012982 -2.18179e-05 -1.0889e-32 3.69989e-06 -3.85963e-34 1.89536e-58)
(0.000109515 -1.44892e-05 0 1.93414e-06 0 0)
(0.000106671 -1.30143e-05 -2.66006e-28 1.6063e-06 3.01535e-29 9.93331e-52)
(0.000123135 -1.90994e-05 1.09673e-29 2.99512e-06 -1.49577e-30 2.41873e-54)
(0.000121055 -2.1148e-05 6.98486e-30 3.76643e-06 -1.0557e-30 8.9223e-55)
(0.000107714 -1.50329e-05 -8.94365e-30 2.13059e-06 1.09893e-30 1.45152e-54)
(0.000109814 -1.3094e-05 1.4756e-34 1.61178e-06 -1.53552e-35 3.06176e-64)
(0.000113435 -1.66107e-05 1.04819e-29 2.4681e-06 -1.36414e-30 1.83325e-54)
(0.000110262 -1.85819e-05 -3.14595e-28 3.21519e-06 4.80197e-29 1.34423e-51)
(0.000106936 -1.51599e-05 -3.67015e-28 2.1966e-06 4.69614e-29 1.8819e-51)
(0.000117685 -1.47979e-05 4.45654e-28 1.92188e-06 -4.93429e-29 2.55279e-51)
(0.000115899 -1.70113e-05 7.72516e-28 2.54813e-06 -1.02091e-28 7.71691e-51)
(9.90473e-05 -1.71921e-05 0 3.09678e-06 0 0)
(0.000100983 -1.54972e-05 -1.12773e-29 2.46032e-06 1.44804e-30 2.27447e-54)
(0.000121135 -1.53978e-05 -9.57901e-30 2.0162e-06 1.03341e-30 1.49925e-54)
(0.000123625 -1.66997e-05 -8.36974e-28 2.29697e-06 1.02588e-28 8.50548e-51)
(9.55666e-05 -1.55052e-05 0 2.57884e-06 0 0)
(9.71088e-05 -1.49052e-05 -6.09958e-28 2.33723e-06 8.45607e-29 5.58007e-51)
(0.000119743 -1.54961e-05 0 2.04331e-06 0 0)
(0.000123528 -1.53871e-05 6.71651e-30 1.94951e-06 -7.67454e-31 8.18168e-55)
(9.85401e-05 -1.46967e-05 7.88409e-30 2.22041e-06 -1.04759e-30 1.22675e-54)
(9.84485e-05 -1.4622e-05 4.67091e-28 2.1965e-06 -6.43683e-29 3.22908e-51)
(0.000113247 -1.55209e-05 -5.40214e-28 2.151e-06 6.92757e-29 3.8268e-51)
(8.83688e-05 -1.64603e-05 0 3.19117e-06 0 0)
(0.000101863 -1.89927e-05 -2.71244e-28 3.6702e-06 4.66099e-29 1.05297e-51)
(9.01288e-05 -1.41272e-05 0 2.24991e-06 0 0)
(7.46915e-05 -1.22684e-05 1.86203e-28 2.12734e-06 -2.7805e-29 6.69663e-52)
(8.62566e-05 -1.53303e-05 0 2.82439e-06 0 0)
(9.35723e-05 -1.73146e-05 0 3.37235e-06 0 0)
(9.04354e-05 -1.37443e-05 0 2.13896e-06 0 0)
(8.06617e-05 -1.18073e-05 -9.11435e-30 1.83601e-06 1.06289e-30 1.8198e-54)
(8.05829e-05 -1.23428e-05 -5.73314e-28 1.9298e-06 8.16708e-29 5.98879e-51)
(8.49753e-05 -1.38575e-05 2.7251e-28 2.38863e-06 -3.92527e-29 1.24493e-51)
(9.04336e-05 -1.24568e-05 -3.57114e-28 1.7521e-06 4.4469e-29 2.08782e-51)
(9.21361e-05 -1.12452e-05 0 1.45173e-06 0 0)
(8.22201e-05 -1.13252e-05 0 1.6048e-06 0 0)
(7.46991e-05 -1.1297e-05 0 1.7781e-06 0 0)
(8.4729e-05 -1.15093e-05 0 1.62798e-06 0 0)
(0.000100736 -1.15259e-05 -8.85677e-30 1.3846e-06 8.59209e-31 1.47145e-54)
(9.2296e-05 -1.04274e-05 -8.0082e-28 1.23372e-06 8.07711e-29 1.00877e-50)
(7.10767e-05 -9.24165e-06 0 1.23665e-06 0 0)
(7.93511e-05 -9.95227e-06 -1.27041e-27 1.29191e-06 1.41296e-28 2.9071e-50)
(0.000103096 -1.1672e-05 0 1.37476e-06 0 0)
(9.58391e-05 -9.96138e-06 -6.22774e-30 1.10909e-06 6.11523e-31 8.32473e-55)
(7.34361e-05 -9.20861e-06 2.95149e-34 1.18354e-06 -3.3619e-35 1.74596e-63)
(7.94018e-05 -1.03781e-05 9.67824e-28 1.3829e-06 -1.16117e-28 1.68374e-50)
(9.82614e-05 -1.30239e-05 -5.29092e-28 1.753e-06 6.52737e-29 4.15658e-51)
(0.000174128 -2.19368e-05 -1.43593e-28 2.77597e-06 1.75616e-29 1.8743e-52)
(0.000165307 -2.30346e-05 -1.71498e-28 3.23087e-06 2.24444e-29 2.86313e-52)
(0.000135666 -1.72083e-05 -4.99302e-30 2.20086e-06 5.7307e-31 8.70037e-55)
(0.000141953 -1.70581e-05 2.303e-28 2.08254e-06 -2.55663e-29 5.67794e-52)
(0.000168017 -2.21461e-05 0 2.9359e-06 0 0)
(0.00015449 -2.3034e-05 0 3.48534e-06 0 0)
(0.000130131 -1.6898e-05 -9.09596e-30 2.22405e-06 1.05052e-30 1.32778e-54)
(0.000140875 -1.73884e-05 -3.69322e-28 2.21481e-06 3.97744e-29 1.48864e-51)
(0.00015577 -2.14662e-05 -3.74437e-28 2.98059e-06 4.81854e-29 1.42238e-51)
(0.000143694 -2.17328e-05 3.85633e-28 3.36939e-06 -5.17706e-29 1.59597e-51)
(0.000128894 -1.81707e-05 4.13207e-28 2.60698e-06 -5.26798e-29 2.03194e-51)
(0.000144875 -1.90823e-05 4.69429e-28 2.58527e-06 -5.42646e-29 2.34868e-51)
(0.000150554 -2.30871e-05 -1.3807e-29 3.60636e-06 1.84052e-30 2.48995e-54)
(0.000129343 -2.18981e-05 -2.69149e-29 3.81535e-06 3.88254e-30 1.05747e-53)
(0.000123644 -1.91241e-05 -1.18828e-29 3.05177e-06 1.53302e-30 2.17551e-54)
(0.00014619 -2.02204e-05 -1.00335e-27 2.85973e-06 1.23602e-28 1.05929e-50)
(0.000156956 -2.4161e-05 1.01379e-27 3.7812e-06 -1.41108e-28 1.02697e-50)
(0.000123601 -2.10148e-05 1.04124e-29 3.66501e-06 -1.51846e-30 1.72572e-54)
(0.000117694 -1.80712e-05 -7.84015e-28 2.83523e-06 1.08176e-28 7.81223e-51)
(0.000139292 -1.96063e-05 7.48832e-30 2.80202e-06 -9.13344e-31 9.13084e-55)
(0.000152561 -2.16522e-05 0 3.10215e-06 0 0)
(0.000126064 -1.97451e-05 -8.88021e-30 3.13574e-06 1.22811e-30 1.29268e-54)
(0.000118733 -1.69332e-05 6.10523e-28 2.44194e-06 -8.0662e-29 4.70959e-51)
(0.000128987 -1.76587e-05 -6.05497e-28 2.44193e-06 7.76185e-29 4.28886e-51)
(8.88062e-05 -1.47268e-05 -7.10871e-31 2.51674e-06 1.71477e-31 6.88441e-56)
(0.000105031 -1.69429e-05 -1.43779e-28 2.79206e-06 2.15657e-29 2.85708e-52)
(9.17705e-05 -1.34825e-05 0 2.01326e-06 0 0)
(7.43803e-05 -1.13656e-05 0 1.8074e-06 0 0)
(8.64065e-05 -1.37773e-05 0 2.26947e-06 0 0)
(9.55794e-05 -1.57301e-05 -2.35403e-28 2.68866e-06 3.48861e-29 8.48862e-52)
(9.11999e-05 -1.31066e-05 -7.77733e-30 1.92864e-06 9.62044e-31 1.26749e-54)
(8.11408e-05 -1.27699e-05 -2.81253e-28 2.08723e-06 3.96237e-29 1.41926e-51)
(8.04228e-05 -1.18126e-05 0 1.77752e-06 0 0)
(8.61217e-05 -1.33122e-05 0 2.15959e-06 0 0)
(9.01989e-05 -1.25611e-05 7.17889e-28 1.80121e-06 -8.89819e-29 8.38223e-51)
(9.11376e-05 -1.13864e-05 7.74365e-28 1.48566e-06 -8.30995e-29 9.59207e-51)
(8.13262e-05 -1.13792e-05 -3.55465e-34 1.64121e-06 4.39367e-35 2.30523e-63)
(7.51755e-05 -1.17919e-05 -1.08752e-29 1.93518e-06 1.4365e-30 2.63947e-54)
(8.56496e-05 -1.18431e-05 0 1.70744e-06 0 0)
(0.00010061 -1.22016e-05 -8.52621e-28 1.53789e-06 9.06812e-29 1.05394e-50)
(9.08554e-05 -1.12658e-05 8.09617e-28 1.43962e-06 -8.97089e-29 1.04651e-50)
(7.05686e-05 -9.85335e-06 -6.48277e-28 1.41517e-06 8.08729e-29 8.45186e-51)
(7.98305e-05 -1.04708e-05 8.13391e-30 1.41778e-06 -9.10915e-31 1.48817e-54)
(0.000102682 -1.23987e-05 0 1.54258e-06 0 0)
(9.45279e-05 -1.07711e-05 0 1.28136e-06 0 0)
(7.27587e-05 -9.69198e-06 0 1.31393e-06 0 0)
(7.98367e-05 -1.05016e-05 5.44696e-28 1.41078e-06 -6.54161e-29 5.31758e-51)
(9.81236e-05 -1.27657e-05 0 1.68878e-06 0 0)
(0.000173108 -2.14638e-05 1.39312e-28 2.67485e-06 -1.6677e-29 1.79311e-52)
(0.00016592 -2.22923e-05 -1.7349e-28 3.0131e-06 2.20836e-29 2.74176e-52)
(0.000136517 -1.74151e-05 1.9567e-28 2.24118e-06 -2.33824e-29 4.34653e-52)
(0.000140089 -1.73758e-05 2.09577e-28 2.18393e-06 -2.40627e-29 4.80186e-52)
(0.000166888 -2.15304e-05 0 2.79813e-06 0 0)
(0.00015473 -2.22215e-05 -2.9779e-28 3.23501e-06 3.89822e-29 9.01691e-52)
(0.00012988 -1.64745e-05 -3.13566e-28 2.11985e-06 3.63164e-29 1.16863e-51)
(0.00013924 -1.79216e-05 -3.38189e-28 2.35007e-06 3.91631e-29 1.26102e-51)
(0.000156701 -2.11046e-05 0 2.86899e-06 0 0)
(0.000144266 -2.09952e-05 0 3.12654e-06 0 0)
(0.000129684 -1.79842e-05 8.5246e-28 2.54971e-06 -1.05582e-28 8.57624e-51)
(0.000143067 -1.87665e-05 4.50009e-28 2.52358e-06 -5.22926e-29 2.16926e-51)
(0.000149134 -2.22008e-05 -1.38788e-29 3.36751e-06 1.79565e-30 2.53148e-54)
(0.000130673 -2.14277e-05 1.34445e-29 3.61148e-06 -1.8745e-30 2.62139e-54)
(0.000125641 -1.88278e-05 1.17569e-29 2.91084e-06 -1.46488e-30 2.11241e-54)
(0.000146035 -2.00151e-05 0 2.80415e-06 0 0)
(0.000156124 -2.36942e-05 0 3.65585e-06 0 0)
(0.000124749 -2.04513e-05 -1.72535e-27 3.43432e-06 2.54571e-28 3.61844e-50)
(0.000119593 -1.77482e-05 -8.54314e-28 2.69257e-06 1.13522e-28 9.15169e-51)
(0.000139832 -1.95709e-05 0 2.78264e-06 0 0)
(0.000151634 -2.11407e-05 9.47516e-28 2.97547e-06 -1.22939e-28 9.26308e-51)
(0.000126383 -1.93463e-05 7.69622e-28 3.0018e-06 -1.08417e-28 7.14329e-51)
(0.000119085 -1.63127e-05 6.816e-28 2.26347e-06 -8.63132e-29 5.87066e-51)
(0.00012956 -1.73624e-05 -1.84615e-29 2.35268e-06 2.25682e-30 5.41371e-54)
(7.02713e-05 -1.09089e-05 7.1056e-29 1.76288e-06 -1.04718e-29 1.0052e-52)
(8.88758e-05 -1.42511e-05 9.97359e-29 2.35222e-06 -1.50505e-29 1.61273e-52)
(0.000106029 -1.61907e-05 -4.14841e-35 2.51513e-06 5.78567e-36 2.64109e-65)
(9.19832e-05 -1.3609e-05 3.02022e-28 2.05598e-06 -4.13221e-29 1.43721e-51)
(7.3894e-05 -1.17275e-05 1.45891e-28 1.94993e-06 -2.12055e-29 4.1193e-52)
(8.65148e-05 -1.34023e-05 1.8863e-28 2.14849e-06 -2.68626e-29 5.97963e-52)
(9.65353e-05 -1.49418e-05 2.31255e-28 2.38904e-06 -3.23061e-29 8.05962e-52)
(9.09819e-05 -1.2796e-05 -2.62023e-28 1.85222e-06 3.31021e-29 1.11281e-51)
(8.1141e-05 -1.04986e-05 -2.67288e-28 1.44965e-06 2.94505e-29 1.26209e-51)
(8.13755e-05 -1.15663e-05 1.20514e-34 1.69443e-06 -1.54084e-35 2.6691e-64)
(8.70386e-05 -1.27986e-05 1.00554e-29 1.96843e-06 -1.22284e-30 2.05812e-54)
(9.01139e-05 -1.23874e-05 3.66269e-28 1.765e-06 -4.43608e-29 2.17809e-51)
(9.01995e-05 -1.18042e-05 0 1.60312e-06 0 0)
(8.0167e-05 -1.11917e-05 0 1.61414e-06 0 0)
(7.60594e-05 -1.16707e-05 0 1.87459e-06 0 0)
(8.66963e-05 -1.1781e-05 0 1.67116e-06 0 0)
(0.000100197 -1.23415e-05 8.81033e-28 1.57351e-06 -9.52417e-29 1.13481e-50)
(8.97957e-05 -1.13968e-05 8.03867e-28 1.4842e-06 -9.13831e-29 1.03761e-50)
(7.08968e-05 -9.85523e-06 -7.21624e-28 1.41223e-06 8.90719e-29 1.0499e-50)
(8.06846e-05 -1.01639e-05 -7.64778e-28 1.32967e-06 8.44557e-29 1.04383e-50)
(0.000102174 -1.21925e-05 -8.64312e-28 1.49926e-06 9.29992e-29 1.07737e-50)
(9.3433e-05 -1.10067e-05 -8.35993e-31 1.3402e-06 9.04935e-32 1.44833e-56)
(7.25477e-05 -9.71029e-06 -9.36121e-31 1.32259e-06 1.1144e-31 2.09668e-56)
(7.99767e-05 -9.98783e-06 -6.03683e-28 1.28447e-06 6.83767e-29 6.53396e-51)
(9.83417e-05 -1.25469e-05 -1.68433e-29 1.63033e-06 1.95035e-30 5.49691e-54)
(0.000135747 -1.68163e-05 6.92359e-29 2.09434e-06 -8.27083e-30 5.31651e-53)
(0.000141006 -1.64864e-05 8.08405e-29 1.9469e-06 -9.02595e-30 6.73314e-53)
(0.000172409 -2.06857e-05 1.21994e-28 2.49792e-06 -1.41062e-29 1.33423e-52)
(0.000165247 -2.10641e-05 0 2.70208e-06 0 0)
(0.000135543 -1.74319e-05 3.32888e-28 2.26164e-06 -4.00162e-29 1.23917e-51)
(0.00013874 -1.78177e-05 0 2.31634e-06 0 0)
(0.000166659 -2.09547e-05 2.31406e-28 2.65725e-06 -2.72406e-29 4.92119e-52)
(0.000154529 -2.09311e-05 2.73369e-28 2.87377e-06 -3.3912e-29 7.36399e-52)
(0.000129596 -1.61965e-05 -3.06705e-28 2.05782e-06 3.47036e-29 1.12288e-51)
(0.000138007 -1.95228e-05 -2.11011e-29 2.83426e-06 2.49374e-30 6.61157e-54)
(0.000156434 -2.07185e-05 -2.36442e-29 2.77362e-06 2.7987e-30 7.41224e-54)
(0.000144375 -1.99484e-05 4.21971e-28 2.82205e-06 -5.16636e-29 1.90735e-51)
(0.00012883 -1.7369e-05 -4.07069e-28 2.40223e-06 4.87377e-29 1.93799e-51)
(0.000141083 -1.88971e-05 -4.80657e-28 2.58878e-06 5.71424e-29 2.55443e-51)
(0.000147889 -2.15876e-05 -2.77012e-29 3.21108e-06 3.51604e-30 1.0155e-53)
(0.000132009 -2.07795e-05 2.67278e-29 3.35883e-06 -3.5695e-30 1.03026e-53)
(0.000126294 -1.8265e-05 9.42889e-28 2.725e-06 -1.19241e-28 1.0646e-50)
(0.000144897 -1.98751e-05 1.02254e-27 2.78532e-06 -1.25178e-28 1.10661e-50)
(0.000155756 -2.33143e-05 1.05252e-27 3.5461e-06 -1.4283e-28 1.11497e-50)
(0.000126317 -2.0065e-05 0 3.26254e-06 0 0)
(0.000120753 -1.72132e-05 -1.89424e-29 2.51083e-06 2.29907e-30 5.93754e-54)
(0.00013902 -1.91549e-05 -2.03717e-27 2.68162e-06 2.54634e-28 4.60699e-50)
(0.000151305 -2.10595e-05 1.02739e-30 2.95749e-06 -1.29485e-31 1.55184e-56)
(0.000127589 -1.91059e-05 1.19356e-30 2.8982e-06 -1.58931e-31 2.23301e-56)
(0.000119366 -1.55332e-05 -7.53327e-28 2.05406e-06 9.04482e-29 7.17554e-51)
(0.000129113 -1.68748e-05 7.07123e-28 2.2323e-06 -8.62962e-29 5.89745e-51)
(0.000106356 -1.51405e-05 0 2.1769e-06 0 0)
(8.66833e-05 -1.29005e-05 7.88995e-29 1.95916e-06 -1.09944e-29 9.75415e-53)
(6.97884e-05 -1.11895e-05 -3.02474e-31 1.88838e-06 3.05498e-31 1.03213e-54)
(8.98294e-05 -1.3667e-05 -2.00041e-30 2.13105e-06 3.81202e-31 2.54824e-55)
(0.000106788 -1.52483e-05 2.29736e-30 2.20829e-06 -3.80584e-31 2.60441e-55)
(9.21114e-05 -1.37899e-05 1.21197e-28 2.11485e-06 -1.68889e-29 2.24191e-52)
(7.38757e-05 -1.21847e-05 0 2.12996e-06 0 0)
(8.76228e-05 -1.31724e-05 -8.36767e-30 2.04559e-06 1.03102e-30 1.88759e-54)
(9.7476e-05 -1.40225e-05 -1.03625e-29 2.07739e-06 1.22294e-30 2.48349e-54)
(9.07454e-05 -1.27121e-05 4.31428e-31 1.83794e-06 -5.09546e-32 3.93107e-57)
(8.03376e-05 -1.2559e-05 -1.69865e-29 2.08204e-06 2.16858e-30 6.44668e-54)
(8.26806e-05 -1.18134e-05 -2.98431e-28 1.74408e-06 3.85604e-29 1.57713e-51)
(8.84154e-05 -1.21919e-05 3.4639e-28 1.75917e-06 -4.14052e-29 1.96867e-51)
(9.0494e-05 -1.21761e-05 -3.69126e-28 1.70522e-06 4.34947e-29 2.20018e-51)
(8.94254e-05 -1.24041e-05 6.82483e-31 1.78198e-06 -7.95121e-32 9.04817e-57)
(7.96476e-05 -1.12336e-05 3.44636e-28 1.64145e-06 -4.34611e-29 2.14152e-51)
(7.73332e-05 -1.14369e-05 0 1.7686e-06 0 0)
(8.78054e-05 -1.16258e-05 8.22816e-28 1.60786e-06 -9.36547e-29 1.11651e-50)
(9.95518e-05 -1.2648e-05 0 1.65683e-06 0 0)
(8.92322e-05 -1.16638e-05 0 1.55929e-06 0 0)
(7.18063e-05 -9.83197e-06 0 1.38951e-06 0 0)
(8.14037e-05 -9.76e-06 0 1.22479e-06 0 0)
(0.000101335 -1.20083e-05 -9.00703e-28 1.46537e-06 9.60415e-29 1.18068e-50)
(9.24448e-05 -1.13589e-05 1.61364e-27 1.42806e-06 -1.83224e-28 4.11321e-50)
(7.28064e-05 -9.70645e-06 -1.00313e-30 1.31639e-06 1.19082e-31 2.39274e-56)
(7.95655e-05 -9.29238e-06 1.68074e-29 1.13381e-06 -1.7551e-30 6.31738e-54)
(9.85768e-05 -1.22949e-05 6.49138e-28 1.56306e-06 -7.49417e-29 6.28208e-51)
(0.000177992 -1.9696e-05 7.58371e-29 2.19953e-06 -8.45929e-30 5.47475e-53)
(0.000162626 -1.89627e-05 -9.54608e-29 2.22925e-06 1.07478e-29 8.00214e-53)
(0.000132109 -1.66419e-05 2.49403e-29 2.1123e-06 -3.03755e-30 5.72927e-54)
(0.000140568 -1.71389e-05 -3.10226e-29 2.10966e-06 3.64388e-30 8.57451e-54)
(0.000172904 -1.96398e-05 9.80928e-29 2.25169e-06 -1.07832e-29 8.02123e-53)
(0.000163286 -1.94119e-05 7.98609e-35 2.32452e-06 -9.00412e-36 7.04104e-65)
(0.000132428 -1.73246e-05 1.24696e-28 2.28561e-06 -1.52725e-29 1.75177e-52)
(0.000138128 -1.82575e-05 -8.17839e-30 2.44585e-06 9.12864e-31 1.53333e-54)
(0.000167977 -2.02713e-05 -9.33717e-30 2.46935e-06 1.01032e-30 1.69142e-54)
(0.000153765 -1.9319e-05 -1.15375e-29 2.46215e-06 1.2493e-30 2.35038e-54)
(0.000126317 -1.57889e-05 5.21753e-28 2.00667e-06 -5.91992e-29 3.25454e-51)
(0.000136651 -1.88934e-05 0 2.67432e-06 0 0)
(0.000158499 -1.98458e-05 -7.02993e-28 2.51602e-06 8.07865e-29 4.84768e-51)
(0.00014531 -1.87558e-05 4.60312e-28 2.48337e-06 -5.22757e-29 2.28429e-51)
(0.000126117 -1.64616e-05 -4.03228e-28 2.20846e-06 4.65501e-29 1.93398e-51)
(0.000138817 -1.89402e-05 2.48028e-29 2.63928e-06 -2.90505e-30 8.64799e-54)
(0.00014741 -2.11632e-05 2.65072e-29 3.09458e-06 -3.31416e-30 9.35056e-54)
(0.00013386 -1.9982e-05 2.64015e-29 3.05781e-06 -3.34763e-30 9.98377e-54)
(0.000125833 -1.75155e-05 9.87642e-28 2.51448e-06 -1.20096e-28 1.17405e-50)
(0.000142813 -1.95595e-05 -2.00496e-29 2.73614e-06 2.33166e-30 5.87006e-54)
(0.000155802 -2.30503e-05 -4.03191e-29 3.46226e-06 5.1888e-30 2.24774e-53)
(0.000128634 -1.97768e-05 1.0025e-27 3.10866e-06 -1.38264e-28 1.19207e-50)
(0.000121144 -1.64334e-05 1.05588e-27 2.28381e-06 -1.27166e-28 1.40183e-50)
(0.000136858 -1.83624e-05 1.07737e-27 2.50441e-06 -1.30926e-28 1.31788e-50)
(0.000152006 -2.13069e-05 -1.10573e-30 3.01111e-06 1.40439e-31 1.78017e-56)
(0.000130009 -1.90801e-05 -9.21569e-28 2.83414e-06 1.24628e-28 1.01035e-50)
(0.000121528 -1.49867e-05 8.28932e-28 1.886e-06 -9.43163e-29 8.53746e-51)
(0.000126938 -1.60305e-05 -3.9116e-29 2.05051e-06 4.54023e-30 2.42445e-53)
(0.000128348 -1.5361e-05 -2.1393e-29 1.8639e-06 2.44527e-30 7.09295e-54)
(7.93733e-05 -1.24009e-05 -2.46034e-28 2.02344e-06 3.67025e-29 1.13536e-51)
(0.000102804 -1.52871e-05 -2.37968e-28 2.34114e-06 3.38163e-29 8.30322e-52)
(0.000115399 -1.70289e-05 0 2.52565e-06 0 0)
(9.13953e-05 -1.47392e-05 0 2.43202e-06 0 0)
(7.71639e-05 -1.35307e-05 1.616e-29 2.498e-06 -2.8251e-30 4.74636e-54)
(0.000103279 -1.71305e-05 1.87568e-28 2.91976e-06 -2.98142e-29 5.14771e-52)
(0.00011418 -1.78733e-05 -1.98292e-29 2.8244e-06 3.05019e-30 4.62097e-54)
(8.92353e-05 -1.48492e-05 0 2.56113e-06 0 0)
(7.53059e-05 -1.3873e-05 0 2.73205e-06 0 0)
(9.9934e-05 -1.68006e-05 1.40598e-28 2.92597e-06 -2.24652e-29 2.76603e-52)
(0.000109966 -1.72065e-05 -5.51774e-29 2.74674e-06 8.07398e-30 4.14769e-53)
(8.9616e-05 -1.55485e-05 3.68242e-30 2.79698e-06 -7.33429e-31 3.35899e-55)
(7.55998e-05 -1.45576e-05 8.18591e-30 3.03501e-06 -1.55984e-30 2.75368e-54)
(9.69403e-05 -1.67921e-05 6.71272e-29 3.02667e-06 -1.11054e-29 6.29373e-53)
(0.000110227 -1.71885e-05 1.16606e-28 2.74812e-06 -1.69167e-29 1.79367e-52)
(9.49851e-05 -1.63443e-05 8.50379e-29 2.90915e-06 -1.34525e-29 1.12113e-52)
(7.89592e-05 -1.52436e-05 6.74034e-30 3.19246e-06 -9.65113e-31 1.44636e-54)
(9.44647e-05 -1.61321e-05 1.57096e-28 2.88192e-06 -2.4714e-29 3.79455e-52)
(0.000101373 -1.60295e-05 -1.94024e-29 2.63933e-06 2.4442e-30 8.8035e-54)
(9.35665e-05 -1.46997e-05 1.98268e-28 2.40107e-06 -2.83115e-29 6.00805e-52)
(8.40918e-05 -1.53733e-05 -1.88423e-28 3.01885e-06 3.08801e-29 6.01611e-52)
(8.91057e-05 -1.49484e-05 -2.7251e-28 2.63073e-06 4.1558e-29 1.21195e-51)
(9.2689e-05 -1.42529e-05 7.47376e-28 2.3233e-06 -9.94888e-29 8.76422e-51)
(9.35714e-05 -1.3193e-05 -3.93991e-28 1.94529e-06 4.86498e-29 2.45237e-51)
(9.21105e-05 -1.39045e-05 -7.1966e-28 2.17764e-06 9.60927e-29 8.26112e-51)
(8.4318e-05 -1.27568e-05 -7.1227e-28 2.00946e-06 9.68172e-29 8.71584e-51)
(8.29577e-05 -1.26776e-05 0 2.02887e-06 0 0)
(9.20164e-05 -1.24367e-05 8.86097e-28 1.75316e-06 -1.03216e-28 1.24429e-50)
(0.000102559 -1.31777e-05 0 1.7399e-06 0 0)
(9.47295e-05 -1.22925e-05 0 1.62627e-06 0 0)
(7.81908e-05 -1.05155e-05 -1.19929e-30 1.45807e-06 1.37295e-31 3.17694e-56)
(8.62376e-05 -9.86288e-06 9.41984e-28 1.18402e-06 -9.34055e-29 1.49658e-50)
(0.000105829 -1.23112e-05 9.6204e-28 1.47756e-06 -1.00614e-28 1.30407e-50)
(9.82958e-05 -1.18107e-05 -1.65378e-27 1.44601e-06 1.8525e-28 4.08893e-50)
(7.89541e-05 -1.04011e-05 0 1.39171e-06 0 0)
(8.56517e-05 -9.59387e-06 1.56632e-27 1.12918e-06 -1.57951e-28 4.15966e-50)
(0.000102914 -1.26706e-05 0 1.58809e-06 0 0)
(8.7807e-05 -1.18296e-05 -4.70919e-28 1.60478e-06 6.068e-29 3.67857e-51)
(7.85258e-05 -1.25781e-05 7.98265e-28 2.06158e-06 -1.16938e-28 1.15886e-50)
(9.06622e-05 -1.44207e-05 -2.06045e-29 2.3273e-06 2.96292e-30 8.30902e-54)
(9.80196e-05 -1.43417e-05 -6.38019e-28 2.11514e-06 8.78362e-29 5.99849e-51)
(7.92906e-05 -1.32517e-05 0 2.25474e-06 0 0)
(7.04492e-05 -1.28377e-05 2.61937e-29 2.45519e-06 -4.23403e-30 1.57771e-53)
(9.28476e-05 -1.67339e-05 6.67813e-29 3.06774e-06 -1.13781e-29 6.25254e-53)
(0.000117334 -1.40111e-05 -2.16272e-28 1.68726e-06 2.4043e-29 6.25787e-52)
(0.000134265 -9.66078e-06 -3.49163e-29 7.46998e-07 2.36825e-30 1.28412e-53)
(0.000129904 -1.27249e-05 2.1611e-28 1.28772e-06 -2.07504e-29 5.62092e-52)
(0.000108462 -1.7632e-05 1.41149e-28 2.91671e-06 -2.14715e-29 2.73128e-52)
(0.000112294 -1.60044e-05 -1.13137e-28 2.30763e-06 1.49698e-29 1.7204e-52)
(0.000137702 -1.18601e-05 2.79325e-28 1.06704e-06 -2.37767e-29 8.93657e-52)
(0.000133782 -1.38684e-05 -8.59149e-35 1.46785e-06 8.78331e-36 9.48917e-65)
(0.000104872 -1.7374e-05 1.19959e-29 2.94164e-06 -1.96141e-30 1.81345e-54)
(0.000107737 -1.66438e-05 5.83411e-29 2.6232e-06 -8.36898e-30 4.3443e-53)
(0.000134983 -1.22994e-05 1.71962e-28 1.15376e-06 -1.51558e-29 3.24664e-52)
(0.000131575 -1.30458e-05 1.08742e-29 1.31737e-06 -1.01478e-30 1.15749e-54)
(0.000103382 -1.70572e-05 -3.68159e-30 2.88145e-06 6.81572e-31 3.06311e-55)
(0.00010444 -1.78126e-05 -6.89632e-36 3.13807e-06 8.25369e-37 2.19681e-66)
(0.000131736 -1.3589e-05 1.53256e-28 1.42112e-06 -1.50999e-29 2.60821e-52)
(0.000134246 -1.29186e-05 1.91924e-28 1.27151e-06 -1.74574e-29 4.24749e-52)
(0.000105738 -1.67988e-05 -9.85667e-29 2.7239e-06 1.46197e-29 1.28486e-52)
(0.000103666 -1.9039e-05 -8.05622e-29 3.6685e-06 1.36365e-29 8.29432e-53)
(0.000128336 -1.49538e-05 -2.26633e-31 1.76412e-06 2.30357e-32 1.28416e-57)
(0.000126015 -1.20195e-05 -3.36161e-28 1.19199e-06 2.86625e-29 1.37635e-51)
(0.000101859 -1.4377e-05 -1.50236e-29 2.08166e-06 1.79371e-30 4.47331e-54)
(0.00010398 -2.00048e-05 -2.39581e-28 4.09011e-06 4.07499e-29 8.35604e-52)
(0.000120975 -1.59268e-05 2.7963e-34 2.13494e-06 -3.31188e-35 1.01502e-63)
(0.000117307 -9.49951e-06 4.89051e-28 8.54101e-07 -3.26737e-29 3.0776e-51)
(0.000103516 -1.29766e-05 0 1.68281e-06 0 0)
(0.000109331 -1.79817e-05 -3.77553e-28 3.0719e-06 5.52496e-29 1.95736e-51)
(0.00011016 -1.6641e-05 -8.16035e-28 2.58852e-06 1.10673e-28 9.05223e-51)
(0.000105341 -1.24226e-05 0 1.52078e-06 0 0)
(0.000104663 -1.25805e-05 -1.00452e-27 1.57557e-06 1.03874e-28 1.43278e-50)
(0.000114571 -1.69361e-05 -1.88897e-29 2.57435e-06 2.35601e-30 6.0859e-54)
(0.000117906 -1.83469e-05 1.78412e-29 2.9189e-06 -2.39473e-30 5.41245e-54)
(9.93185e-05 -1.25147e-05 -9.70383e-28 1.61828e-06 1.08816e-28 1.39603e-50)
(9.92477e-05 -1.02604e-05 0 1.12743e-06 0 0)
(0.00011135 -1.47869e-05 9.53177e-28 2.0026e-06 -1.14221e-28 1.22002e-50)
(0.000116425 -1.7635e-05 -1.72894e-27 2.70067e-06 2.43389e-28 3.88451e-50)
(9.92081e-05 -1.30788e-05 -1.69734e-29 1.74564e-06 2.00854e-30 5.5521e-54)
(9.7756e-05 -8.79583e-06 8.91378e-28 8.86999e-07 -7.30535e-29 1.19763e-50)
(0.000105926 -1.27727e-05 -7.47149e-28 1.569e-06 8.37193e-29 7.84451e-51)
(0.000100038 -1.51664e-05 -1.06255e-27 2.313e-06 1.52588e-28 1.67984e-50)
(9.82204e-05 -1.39317e-05 4.82726e-28 2.00278e-06 -6.31046e-29 3.46712e-51)
(0.000107584 -1.26917e-05 7.33752e-34 1.52891e-06 -8.14416e-35 7.80485e-63)
(0.000108137 -1.31312e-05 -4.03638e-28 1.6285e-06 4.68393e-29 2.22759e-51)
(8.63261e-05 -1.37875e-05 -2.70871e-29 2.22522e-06 3.96871e-30 1.43683e-53)
(8.75763e-05 -1.36361e-05 0 2.14744e-06 0 0)
(0.000111414 -1.43274e-05 0 1.86645e-06 0 0)
(0.000157782 -1.14604e-05 3.09098e-28 8.94883e-07 -2.20226e-29 9.73095e-52)
(0.000166178 -1.43975e-05 -2.97856e-28 1.26949e-06 2.48424e-29 8.59037e-52)
(0.000147389 -1.26622e-05 2.39769e-28 1.14786e-06 -2.03934e-29 6.18824e-52)
(0.000137533 -1.27017e-05 1.74154e-28 1.24134e-06 -1.54913e-29 3.45682e-52)
(0.000150108 -1.25247e-05 -3.55498e-31 1.12343e-06 2.7808e-32 1.14266e-57)
(0.000171125 -1.47248e-05 2.62487e-29 1.30688e-06 -2.19052e-30 5.51161e-54)
(0.00014893 -1.38045e-05 2.04114e-29 1.32287e-06 -1.81402e-30 3.7307e-54)
(0.000130717 -1.27465e-05 0 1.29321e-06 0 0)
(0.000142719 -1.23282e-05 2.84115e-28 1.1331e-06 -2.35866e-29 8.6991e-52)
(0.000170252 -1.39557e-05 -3.13904e-29 1.19091e-06 2.43233e-30 7.41164e-54)
(0.000147848 -1.38709e-05 -1.09154e-29 1.32951e-06 9.637e-31 1.02834e-54)
(0.000126228 -1.32429e-05 0 1.42447e-06 0 0)
(0.000135737 -1.31751e-05 9.76039e-29 1.32653e-06 -8.9616e-30 1.07057e-52)
(0.000168189 -1.44905e-05 1.92025e-28 1.29053e-06 -1.61195e-29 3.51537e-52)
(0.000151889 -1.48309e-05 -3.925e-30 1.47155e-06 3.6072e-31 2.73947e-55)
(0.000126194 -1.41889e-05 3.34917e-30 1.62102e-06 -3.30131e-31 6.51293e-55)
(0.000131602 -1.4694e-05 -1.75951e-28 1.67722e-06 1.78932e-29 3.6117e-52)
(0.000165799 -1.57993e-05 -1.09276e-29 1.54206e-06 9.62955e-31 3.62674e-54)
(0.000145193 -1.53088e-05 -3.38496e-28 1.64921e-06 3.22905e-29 1.21797e-51)
(0.000118233 -1.31976e-05 1.61154e-29 1.50614e-06 -1.56261e-30 4.60634e-54)
(0.000129981 -1.54465e-05 1.85473e-29 1.87847e-06 -1.87164e-30 5.50535e-54)
(0.000160789 -1.65697e-05 1.8944e-29 1.74197e-06 -1.74389e-30 4.9878e-54)
(0.000138484 -1.57288e-05 -4.85211e-28 1.86292e-06 4.68665e-29 2.60033e-51)
(0.000117586 -1.41971e-05 2.36953e-29 1.76388e-06 -2.40694e-30 9.00259e-54)
(0.000133451 -1.67708e-05 2.53353e-29 2.15232e-06 -2.74426e-30 9.29468e-54)
(0.000144146 -1.97214e-05 -9.51619e-28 2.74576e-06 1.17542e-28 9.80631e-51)
(0.000131362 -1.84484e-05 -4.97776e-29 2.65476e-06 5.93937e-30 3.63887e-53)
(0.000117701 -1.56907e-05 -1.05579e-27 2.15916e-06 1.22654e-28 1.43549e-50)
(0.000135426 -1.78692e-05 -1.03339e-27 2.40703e-06 1.21892e-28 1.21385e-50)
(0.000151472 -2.23572e-05 1.06277e-27 3.34805e-06 -1.43086e-28 1.17602e-50)
(0.000128896 -1.98671e-05 1.98419e-29 3.13094e-06 -2.61558e-30 6.18505e-54)
(0.000114435 -1.53283e-05 1.06175e-27 2.10641e-06 -1.25983e-28 1.48321e-50)
(0.000129059 -1.65972e-05 1.01918e-27 2.17339e-06 -1.18903e-28 1.22373e-50)
(0.000145032 -2.03561e-05 -9.92676e-28 2.87852e-06 1.30269e-28 1.06848e-50)
(0.000130136 -1.96143e-05 0 2.99408e-06 0 0)
(0.000115729 -1.34499e-05 2.02251e-29 1.60396e-06 -2.13443e-30 6.8472e-54)
(0.000120128 -1.4076e-05 -1.62312e-27 1.68138e-06 1.77624e-28 3.31721e-50)
(0.000121111 -1.33938e-05 -2.05944e-29 1.51863e-06 2.18358e-30 6.77207e-54)
(0.000123609 -1.3818e-05 8.04469e-34 1.58068e-06 -8.49942e-35 8.38793e-63)
(0.000127616 -1.61357e-05 -5.72968e-28 2.06373e-06 6.87287e-29 3.89698e-51)
(0.000118116 -1.33324e-05 0 1.54935e-06 0 0)
(0.000104148 -1.21833e-05 2.89042e-28 1.46042e-06 -3.22725e-29 1.17237e-51)
(0.000106382 -1.12104e-05 0 1.2248e-06 0 0)
(0.000133906 -1.4429e-05 2.98218e-28 1.60731e-06 -3.1699e-29 1.00732e-51)
(7.79626e-05 -9.66615e-06 2.68134e-28 1.22422e-06 -3.12359e-29 1.36353e-51)
(9.811e-05 -1.30631e-05 -2.11241e-28 1.78349e-06 2.62724e-29 6.8612e-52)
(0.00010003 -1.22343e-05 -4.90287e-29 1.5068e-06 5.68372e-30 3.34446e-53)
(8.31504e-05 -1.09424e-05 -1.75265e-28 1.45865e-06 2.1453e-29 5.39078e-52)
(7.56891e-05 -1.07586e-05 9.77266e-29 1.56973e-06 -1.28692e-29 1.89262e-52)
(9.84065e-05 -1.37832e-05 1.13039e-28 1.96138e-06 -1.50042e-29 1.94164e-52)
(0.000103025 -1.36139e-05 -1.64365e-29 1.81183e-06 2.09296e-30 3.53895e-54)
(8.18433e-05 -1.15104e-05 1.06546e-28 1.64975e-06 -1.38994e-29 2.05048e-52)
(7.41966e-05 -1.0897e-05 9.99713e-29 1.66251e-06 -1.36986e-29 1.91577e-52)
(9.56769e-05 -1.31652e-05 0 1.84264e-06 0 0)
(0.000101888 -1.39322e-05 -8.55915e-29 1.93046e-06 1.09615e-29 1.07398e-52)
(8.16264e-05 -1.20625e-05 6.04392e-29 1.83752e-06 -8.4434e-30 5.92243e-53)
(7.36039e-05 -1.13356e-05 6.97059e-29 1.84135e-06 -9.98985e-30 9.01302e-53)
(9.34416e-05 -1.31329e-05 1.15833e-28 1.88691e-06 -1.5159e-29 2.06069e-52)
(0.000104257 -1.45757e-05 0 2.0774e-06 0 0)
(8.44757e-05 -1.27215e-05 2.42046e-28 1.98627e-06 -3.34862e-29 1.00397e-51)
(7.59123e-05 -1.20903e-05 4.92339e-30 2.0515e-06 -5.51173e-31 9.66815e-55)
(9.32888e-05 -1.30251e-05 4.05941e-28 1.87215e-06 -5.13583e-29 2.58451e-51)
(9.80094e-05 -1.41245e-05 8.61072e-30 2.10939e-06 -9.8638e-31 1.87219e-54)
(8.11778e-05 -1.14453e-05 0 1.69132e-06 0 0)
(8.03745e-05 -1.23286e-05 0 2.01274e-06 0 0)
(9.07373e-05 -1.25248e-05 0 1.78724e-06 0 0)
(9.08909e-05 -1.14179e-05 -7.29058e-28 1.52728e-06 7.7168e-29 8.45143e-51)
(8.38298e-05 -1.16323e-05 0 1.69611e-06 0 0)
(8.74161e-05 -1.17995e-05 2.14895e-29 1.65416e-06 -2.42788e-30 9.244e-54)