/*--------------------------------*- C++ -*----------------------------------*\
| =========                 |                                                 |
| \\      /  F ield         | OpenFOAM: The Open Source CFD Toolbox           |
|  \\    /   O peration     | Version:  v2012                                 |
|   \\  /    A nd           | Website:  www.openfoam.com                      |
|    \\/     M anipulation  |                                                 |
\*---------------------------------------------------------------------------*/
FoamFile
{
    version     2.0;
    format      ascii;
    class       volScalarField;
    location    "1e-06";
    object      yPlus;
}
// * * * * * * * * * * * * * * * * * * * * * * * * * * * * * * * * * * * * * //

dimensions      [0 0 0 0 0 0 0];


internalField   uniform 0;

boundaryField
{
    inlet
    {
        type            calculated;
        value           nonuniform List<scalar> 0();
    }
    outlet
    {
        type            calculated;
        value           nonuniform List<scalar> 0();
    }
    front
    {
        type            empty;
    }
    back
    {
        type            empty;
    }
    hub
    {
        type            calculated;
        value           nonuniform List<scalar> 0();
    }
    tip
    {
        type            calculated;
        value           nonuniform List<scalar> 
140
(
74.4909
74.0381
74.4857
74.4803
74.0501
74.3903
74.4219
74.2702
74.1271
74.3322
74.343
73.7793
74.2742
74.243
74.0112
74.0371
74.1152
74.1313
73.5674
74.0518
74.0048
73.7618
73.7904
73.8372
73.8734
73.2608
73.756
73.6899
73.5284
73.4017
73.5218
73.5475
73.0089
73.3861
73.2656
73.2844
72.7854
73.171
73.1048
72.8821
72.8428
72.8657
72.9056
72.3623
72.7098
72.5553
72.6207
71.9693
72.4501
72.3539
72.2561
71.9552
72.162
72.1263
71.8971
71.8541
71.8487
71.8745
71.4813
71.6474
71.5306
71.6084
71.0278
71.4069
71.2245
71.3316
70.6168
71.159
70.9491
71.0564
70.343
70.8721
70.778
70.7869
70.1758
70.6905
70.6108
70.6188
70.0443
70.5431
70.4742
70.4909
69.9248
70.4339
70.3703
70.4062
69.8138
70.3617
70.2986
70.3549
69.7235
70.3573
70.2015
70.3602
69.7008
70.3194
70.1768
70.315
69.8144
70.2671
70.1774
70.2956
69.9725
70.2016
70.1558
70.2432
70.0294
70.0709
70.0753
70.1361
69.9875
69.8353
69.9408
69.9631
69.8894
69.4006
69.8021
69.7933
69.7757
69.1565
69.7685
69.6849
69.83
69.5611
69.8298
69.8739
70.0073
69.9716
69.9864
70.2012
70.296
70.3126
69.8547
70.2353
70.3072
70.9185
70.7499
71.4218
71.6507
71.5527
)
;
    }
    procBoundary5to1
    {
        type            processor;
        value           uniform 0;
    }
    procBoundary5to6
    {
        type            processor;
        value           uniform 0;
    }
    procBoundary5to7
    {
        type            processor;
        value           uniform 0;
    }
}


// ************************************************************************* //
