/*--------------------------------*- C++ -*----------------------------------*\
| =========                 |                                                 |
| \\      /  F ield         | OpenFOAM: The Open Source CFD Toolbox           |
|  \\    /   O peration     | Version:  v2012                                 |
|   \\  /    A nd           | Website:  www.openfoam.com                      |
|    \\/     M anipulation  |                                                 |
\*---------------------------------------------------------------------------*/
FoamFile
{
    version     2.0;
    format      ascii;
    class       volScalarField;
    location    "1e-06";
    object      alpha.waterPrime2Mean;
}
// * * * * * * * * * * * * * * * * * * * * * * * * * * * * * * * * * * * * * //

dimensions      [0 0 0 0 0 0 0];


internalField   nonuniform List<scalar> 
10295
(
-4.44089e-16
0
0
0
2.22045e-16
0
2.22045e-16
2.22045e-16
-1.11022e-16
-2.22045e-16
-2.22045e-16
2.22045e-16
-1.11022e-16
0
0
-2.22045e-16
0
2.22045e-16
0
-4.44089e-16
0
0
0
0
2.82299e-08
4.52938e-07
7.58415e-07
4.28777e-07
1.76243e-05
2.33369e-05
2.44205e-05
0.000107392
0.000107412
0.000229552
0.000554893
0.000795615
0.000864555
0.000814633
0.000873001
0.000906958
0.000905984
0.000928377
0.000911169
0.000979934
0.001002
0.000989587
0.00100207
0.000948354
0.00103387
0.00107259
0.00104507
0.00108688
0.00123269
0.00137965
0.00168682
0.00139249
0.00135571
0.00123741
0
-2.22045e-16
-1.11022e-16
0
0
-2.22045e-16
2.22045e-16
4.44089e-16
2.22045e-16
2.22045e-16
-2.22045e-16
3.33067e-16
2.22045e-16
1.11022e-16
0
0
4.44089e-16
0
-2.22045e-16
-2.22045e-16
1.11022e-16
0
0
1.11022e-16
5.32907e-15
4.09894e-13
3.8124e-08
1.89391e-08
3.32651e-08
2.40226e-06
2.85483e-06
1.39748e-05
1.52878e-05
1.78533e-05
4.99475e-05
7.19885e-05
0.00010383
0.000129887
0.000194591
0.000208349
0.000218156
0.000230141
0.000226935
0.000257944
0.00025625
0.000255635
0.000263482
0.000262914
0.000282019
0.000282994
0.000277863
0.000292016
0.000327845
0.000388011
0.000496495
0.000422693
0.00041452
0.000375926
1.11022e-16
0
0
-4.44089e-16
1.11022e-16
2.22045e-16
1.11022e-16
4.44089e-16
0
-2.22045e-16
-2.22045e-16
-2.22045e-16
-4.44089e-16
2.22045e-16
0
-2.22045e-16
0
2.22045e-16
2.22045e-16
0
2.22045e-16
-2.22045e-16
-4.44089e-16
-2.22045e-16
0
1.16106e-08
1.7981e-09
4.81127e-09
2.67284e-09
3.58404e-07
4.15613e-07
5.89242e-07
2.38595e-06
2.55911e-06
2.60343e-06
8.02499e-06
8.74145e-06
9.33237e-06
2.1117e-05
2.31366e-05
2.53534e-05
2.82684e-05
3.6777e-05
4.18661e-05
4.32325e-05
4.57327e-05
4.71344e-05
5.67251e-05
5.86155e-05
5.79732e-05
5.88075e-05
6.06913e-05
7.09858e-05
8.17071e-05
8.87063e-05
8.02696e-05
6.17263e-05
5.80831e-05
0
1.11022e-16
-4.44089e-16
2.22045e-16
4.44089e-16
-4.44089e-16
2.22045e-16
-2.22045e-16
-1.11022e-16
0
1.11022e-16
3.33067e-16
0
-2.22045e-16
-4.44089e-16
2.22045e-16
0
-2.22045e-16
0
0
1.11022e-16
4.44089e-16
0
0
0
7.26086e-14
2.46955e-10
2.53533e-09
1.4474e-09
7.07397e-08
1.58283e-07
1.68396e-07
7.52654e-07
8.64705e-07
8.54145e-07
1.5731e-06
2.44788e-06
2.47617e-06
2.60662e-06
4.47345e-06
5.65128e-06
6.47894e-06
7.92364e-06
7.40265e-06
7.29719e-06
7.38878e-06
7.39031e-06
9.28479e-06
8.36928e-06
8.18048e-06
7.71742e-06
7.66358e-06
7.90093e-06
1.10137e-05
6.86565e-06
4.92373e-06
2.52992e-06
2.73336e-06
0
2.22045e-16
0
0
-2.22045e-16
-2.22045e-16
1.11022e-16
1.11022e-16
-2.22045e-16
-1.11022e-16
0
-4.44089e-16
1.11022e-16
2.22045e-16
0
2.22045e-16
0
-2.22045e-16
0
2.22045e-16
-3.33067e-16
-1.11022e-16
-1.11022e-16
-2.22045e-16
-2.22045e-16
3.33067e-16
7.71605e-14
7.30673e-09
2.96049e-09
8.40145e-09
2.12499e-07
1.96886e-07
4.1754e-07
9.76672e-07
8.51068e-07
9.86218e-07
2.18239e-06
2.13599e-06
2.29933e-06
2.02203e-06
2.23922e-06
3.67255e-06
4.4317e-06
5.08624e-06
3.91608e-06
4.18909e-06
4.26025e-06
4.23966e-06
2.64595e-06
2.35237e-06
2.75725e-06
2.80312e-06
2.66786e-06
3.24123e-06
2.26256e-06
1.8587e-06
7.16475e-07
8.31209e-07
-2.22045e-16
0
-3.33067e-16
0
0
-1.11022e-16
1.11022e-16
-1.11022e-16
0
0
2.22045e-16
-1.11022e-16
-1.11022e-16
-1.11022e-16
0
0
0
2.22045e-16
0
-2.22045e-16
-4.44089e-16
2.22045e-16
-6.66134e-16
0
-2.22045e-16
-1.11022e-16
1.11022e-16
2.1773e-09
7.74751e-10
9.11591e-10
8.6638e-08
8.92886e-08
1.01158e-07
4.34394e-07
4.21266e-07
4.91316e-07
6.36046e-07
1.14396e-06
1.18218e-06
1.05493e-06
1.15275e-06
1.14537e-06
1.16884e-06
1.34942e-06
1.17989e-06
1.29511e-06
1.23547e-06
1.1019e-06
1.32228e-06
1.19945e-06
1.41156e-06
1.39933e-06
1.40332e-06
1.62994e-06
8.45856e-07
4.30385e-07
2.99339e-07
3.69671e-07
2.22045e-16
2.22045e-16
0
1.11022e-16
0
0
0
4.44089e-16
2.22045e-16
0
0
0
4.44089e-16
2.22045e-16
-1.11022e-16
0
0
2.22045e-16
0
2.22045e-16
0
0
-2.22045e-16
2.22045e-16
1.11022e-16
0
0
1.28237e-09
5.41654e-10
6.11514e-10
3.37963e-08
4.95315e-08
4.80012e-08
1.76051e-07
2.6658e-07
2.36479e-07
2.23315e-07
5.76771e-07
5.69985e-07
5.65346e-07
5.45625e-07
5.46308e-07
6.54125e-07
5.92655e-07
5.88799e-07
5.84634e-07
5.60728e-07
6.50289e-07
6.32604e-07
6.20332e-07
6.49809e-07
6.85572e-07
7.53738e-07
6.33763e-07
2.9133e-07
1.84653e-07
1.37249e-07
1.56692e-07
-2.22045e-16
0
4.44089e-16
4.44089e-16
2.22045e-16
0
-1.11022e-16
2.22045e-16
2.22045e-16
2.22045e-16
0
-1.11022e-16
-2.22045e-16
2.22045e-16
0
0
0
0
0
-3.33067e-16
1.11022e-16
0
0
0
1.11022e-16
2.22045e-16
-2.22045e-16
1.21164e-09
4.98782e-10
5.61834e-10
1.0344e-08
4.11211e-08
4.27939e-08
5.05068e-08
2.20849e-07
1.9591e-07
1.83481e-07
2.25703e-07
4.60419e-07
4.50729e-07
4.50819e-07
4.49424e-07
4.97439e-07
4.80395e-07
4.68532e-07
4.78234e-07
4.59582e-07
5.18016e-07
5.09152e-07
4.89412e-07
5.13907e-07
5.40584e-07
3.63209e-07
2.61401e-07
2.02281e-07
1.44008e-07
1.00903e-07
1.16417e-07
0
0
0
0
0
-2.22045e-16
-1.11022e-16
0
4.44089e-16
0
2.22045e-16
-2.22045e-16
3.33067e-16
-2.22045e-16
-2.22045e-16
0
0
0
0
-1.11022e-16
0
3.33067e-16
-2.22045e-16
-1.11022e-16
1.11022e-16
0
2.22045e-16
9.19249e-10
4.02122e-10
3.97278e-10
3.99497e-10
3.26821e-08
3.36481e-08
3.7255e-08
1.46066e-07
1.56999e-07
1.58092e-07
1.52931e-07
3.70315e-07
3.65492e-07
3.70648e-07
3.89613e-07
4.06596e-07
4.02781e-07
3.87797e-07
3.92878e-07
3.93191e-07
4.12871e-07
4.11132e-07
3.81951e-07
2.77443e-07
2.77092e-07
1.6305e-07
1.86553e-07
1.29122e-07
1.04623e-07
3.70453e-08
3.00901e-08
1.11022e-16
4.44089e-16
-2.22045e-16
0
4.44089e-16
2.22045e-16
0
0
-4.44089e-16
-2.22045e-16
0
-1.11022e-16
0
0
0
4.44089e-16
0
2.22045e-16
-4.44089e-16
0
-2.22045e-16
-4.44089e-16
0
-2.22045e-16
1.11022e-16
0
0
2.47193e-09
8.92156e-10
7.26218e-10
1.46986e-09
5.09117e-08
6.10975e-08
6.73494e-08
1.4798e-07
2.77704e-07
2.57182e-07
2.11596e-07
3.16381e-07
4.79478e-07
5.82929e-07
6.13663e-07
4.95047e-07
6.40023e-07
5.28891e-07
5.75527e-07
6.0375e-07
4.94674e-07
4.64815e-07
3.29332e-07
2.59869e-07
2.68042e-07
1.78572e-07
2.29316e-07
1.30877e-07
1.33064e-07
2.33711e-08
2.70338e-08
0
-2.22045e-16
0
0
2.22045e-16
4.44089e-16
3.33067e-16
0
0
-5.55112e-16
0
0
4.44089e-16
-3.33067e-16
0
-3.33067e-16
0
-1.11022e-16
-1.11022e-16
0
-2.22045e-16
-4.44089e-16
2.22045e-16
0
1.11022e-16
-1.11022e-16
0
6.78957e-10
1.87261e-10
2.89282e-10
2.79817e-10
2.14331e-08
2.9407e-08
2.88114e-08
2.62847e-08
1.4344e-07
1.25232e-07
1.19691e-07
1.38371e-07
2.02509e-07
3.24082e-07
3.09502e-07
2.76961e-07
3.55251e-07
2.83914e-07
2.02436e-07
1.80337e-07
1.49241e-07
1.52252e-07
1.24113e-07
1.42806e-07
1.39625e-07
1.03799e-07
1.31837e-07
6.91038e-08
2.08048e-08
1.11985e-08
1.3471e-08
0
0
0
4.44089e-16
0
0
0
0
0
0
-2.22045e-16
-2.22045e-16
0
0
2.22045e-16
4.44089e-16
0
0
-1.11022e-16
-1.11022e-16
0
-2.22045e-16
1.11022e-16
1.11022e-16
-2.22045e-16
0
-2.22045e-16
4.67113e-10
1.81881e-10
1.96501e-10
2.16122e-10
2.91618e-09
1.61665e-08
1.66579e-08
1.66868e-08
6.68776e-08
7.16514e-08
7.21566e-08
7.2195e-08
6.71803e-08
7.17739e-08
7.12823e-08
7.39121e-08
7.60506e-08
7.12328e-08
7.26558e-08
6.95086e-08
7.48519e-08
7.3411e-08
6.92123e-08
7.38888e-08
7.73578e-08
6.33533e-08
7.48731e-08
1.95231e-08
8.79672e-09
5.81725e-09
6.55247e-09
2.22045e-16
-2.22045e-16
-2.22045e-16
0
0
1.11022e-16
-1.11022e-16
-4.44089e-16
2.22045e-16
0
-2.22045e-16
0
0
-1.11022e-16
-2.22045e-16
0
0
2.22045e-16
0
2.22045e-16
4.44089e-16
0
0
-1.11022e-16
2.22045e-16
2.22045e-16
4.44089e-16
4.92224e-10
1.48163e-10
2.11593e-10
2.14235e-10
1.45799e-10
1.4858e-08
1.49084e-08
1.43069e-08
1.63727e-08
5.93802e-08
6.36176e-08
6.51824e-08
5.62095e-08
6.3687e-08
5.8902e-08
6.02048e-08
6.62172e-08
5.85463e-08
6.45468e-08
5.91253e-08
6.25417e-08
6.62296e-08
5.86889e-08
6.58744e-08
6.48323e-08
5.1258e-08
5.78191e-08
9.39925e-09
7.56479e-09
4.87838e-09
5.69037e-09
0
0
0
4.44089e-16
-2.22045e-16
0
0
-1.11022e-16
2.22045e-16
-4.44089e-16
-2.22045e-16
-1.11022e-16
-1.11022e-16
2.22045e-16
0
1.11022e-16
0
-2.22045e-16
0
-4.44089e-16
-1.11022e-16
4.44089e-16
-2.22045e-16
-3.33067e-16
0
-2.22045e-16
4.44089e-16
3.00735e-10
1.2414e-10
1.27929e-10
1.49484e-10
1.33468e-10
1.07961e-08
1.15328e-08
1.10534e-08
1.1979e-08
4.54283e-08
4.85503e-08
4.95527e-08
4.42782e-08
4.84908e-08
4.72723e-08
4.68252e-08
4.97316e-08
4.63085e-08
4.92144e-08
4.66584e-08
4.84169e-08
4.93719e-08
4.57183e-08
4.91644e-08
4.94686e-08
1.57478e-08
1.15803e-08
7.41155e-09
5.75978e-09
3.72589e-09
4.20299e-09
1.11022e-16
-1.11022e-16
2.22045e-16
1.11022e-16
-1.11022e-16
1.11022e-16
0
0
2.22045e-16
2.22045e-16
-3.33067e-16
2.22045e-16
0
-1.11022e-16
-4.44089e-16
1.11022e-16
1.11022e-16
0
2.22045e-16
2.22045e-16
-3.33067e-16
0
0
-1.11022e-16
0
4.44089e-16
0
2.5677e-10
1.10481e-10
1.42518e-10
1.50436e-10
1.03898e-10
8.9788e-09
1.01897e-08
9.98683e-09
1.11696e-08
1.42876e-08
4.22031e-08
4.47235e-08
3.77451e-08
4.36532e-08
3.99402e-08
4.11971e-08
4.54759e-08
3.90445e-08
4.36799e-08
4.00396e-08
4.29193e-08
4.43183e-08
3.79086e-08
2.22325e-08
1.3792e-08
7.99613e-09
9.10798e-09
6.15049e-09
4.98427e-09
3.12445e-09
3.42937e-09
-2.22045e-16
-1.11022e-16
-2.22045e-16
0
1.11022e-16
2.22045e-16
2.22045e-16
0
1.11022e-16
0
0
-1.11022e-16
-1.11022e-16
0
0
1.11022e-16
4.44089e-16
2.22045e-16
0
-2.22045e-16
0
-2.22045e-16
0
0
0
1.11022e-16
0
4.70002e-12
2.00956e-10
8.51468e-11
9.37782e-11
7.9561e-11
1.55583e-10
7.28969e-09
7.1399e-09
7.89776e-09
7.09005e-09
3.00695e-08
3.19832e-08
2.83889e-08
3.21417e-08
3.11162e-08
3.01876e-08
3.25174e-08
2.99313e-08
3.23964e-08
3.09117e-08
3.14993e-08
2.71966e-08
1.16648e-08
7.08635e-09
7.06338e-09
5.90697e-09
6.66188e-09
4.94636e-09
3.67583e-09
2.32785e-09
1.73002e-10
0
0
0
1.11022e-16
0
2.22045e-16
4.44089e-16
2.22045e-16
0
0
0
1.11022e-16
0
0
2.22045e-16
4.44089e-16
0
1.11022e-16
1.11022e-16
0
1.11022e-16
-1.11022e-16
2.22045e-16
0
0
-4.44089e-16
0
3.33067e-16
1.72136e-10
9.14172e-11
9.68293e-11
6.44089e-11
1.0913e-10
5.69975e-09
6.31778e-09
6.92251e-09
5.42883e-09
1.72256e-08
2.64758e-08
2.28491e-08
2.68818e-08
2.34224e-08
2.44097e-08
2.77617e-08
2.34626e-08
2.67711e-08
2.32935e-08
2.44801e-08
6.38164e-09
5.32952e-09
5.90872e-09
5.44317e-09
4.93768e-09
5.49841e-09
4.43414e-09
3.07104e-09
1.52476e-09
8.58269e-12
0
0
0
-2.22045e-16
4.44089e-16
2.22045e-16
2.22045e-16
0
2.22045e-16
2.22045e-16
4.44089e-16
4.44089e-16
0
0
0
3.33067e-16
2.22045e-16
0
-4.44089e-16
2.22045e-16
-2.22045e-16
0
-2.22045e-16
1.11022e-16
-4.44089e-16
0
0
2.22045e-16
2.00601e-11
1.15982e-11
1.58762e-13
1.1962e-11
5.65592e-12
8.24293e-10
1.72584e-09
1.11272e-09
1.19876e-09
1.75989e-09
4.46841e-09
6.60125e-09
6.42902e-09
5.75827e-09
8.10435e-09
5.10901e-09
6.65209e-09
4.14546e-09
1.54102e-09
2.12683e-09
1.11428e-09
1.52799e-09
1.55694e-09
1.62929e-09
1.97833e-09
1.98473e-09
2.11629e-09
1.04794e-09
6.10889e-12
1.77525e-12
2.22045e-16
2.22045e-16
-2.22045e-16
0
2.22045e-16
2.22045e-16
-2.22045e-16
-2.22045e-16
2.22045e-16
3.33067e-16
0
2.22045e-16
-4.44089e-16
2.22045e-16
-1.11022e-16
0
1.11022e-16
-1.11022e-16
0
2.22045e-16
-2.22045e-16
-1.11022e-16
0
4.44089e-16
-4.44089e-16
2.22045e-16
4.44089e-16
1.11022e-16
1.25486e-10
4.9071e-11
7.16252e-11
6.09176e-11
5.61028e-11
1.17931e-09
3.12061e-09
3.32342e-09
3.30358e-09
2.85664e-09
1.14333e-08
1.36178e-08
1.30657e-08
1.32166e-08
1.27213e-08
9.88189e-09
3.36389e-09
3.0503e-09
3.10072e-09
2.90507e-09
3.05693e-09
3.17346e-09
2.85443e-09
3.11429e-09
2.61398e-09
3.00763e-09
2.29759e-09
9.46354e-13
1.83575e-11
2.11682e-11
-3.33067e-16
-2.22045e-16
2.22045e-16
1.11022e-16
2.22045e-16
-4.44089e-16
1.11022e-16
4.44089e-16
-1.11022e-16
-2.22045e-16
-2.22045e-16
0
0
2.22045e-16
-1.11022e-16
0
0
-2.22045e-16
0
2.22045e-16
2.22045e-16
0
0
2.22045e-16
0
4.44089e-16
4.44089e-16
-1.11022e-16
1.00261e-10
4.60508e-11
5.59679e-11
3.353e-11
5.56268e-11
3.44644e-11
2.99023e-09
3.60735e-09
3.31782e-09
3.08226e-09
3.44114e-09
1.19448e-08
1.22368e-08
4.48005e-09
3.18779e-09
3.64521e-09
3.06308e-09
3.34569e-09
3.37932e-09
3.26085e-09
3.31617e-09
2.9762e-09
3.03096e-09
3.11263e-09
2.56492e-09
2.76208e-09
1.56805e-09
4.61731e-12
9.39926e-12
1.34511e-11
0
0
0
2.22045e-16
-2.22045e-16
1.11022e-16
2.22045e-16
-2.22045e-16
-1.11022e-16
-1.11022e-16
0
-2.22045e-16
-1.11022e-16
-4.44089e-16
0
2.22045e-16
0
2.22045e-16
2.22045e-16
-2.22045e-16
0
2.22045e-16
0
0
2.22045e-16
2.22045e-16
2.22045e-16
0
5.95093e-11
2.49083e-11
2.98419e-11
2.61695e-11
2.55453e-11
2.89222e-11
1.95394e-09
2.4639e-09
2.27543e-09
1.95436e-09
2.11349e-09
2.13204e-09
2.24473e-09
2.12578e-09
2.0283e-09
2.38324e-09
2.20442e-09
2.23882e-09
2.22387e-09
2.17205e-09
2.2123e-09
2.08813e-09
1.93133e-09
1.9789e-09
1.41507e-09
1.02836e-09
9.15934e-13
4.87244e-12
3.54461e-12
3.5808e-12
0
2.22045e-16
0
0
-2.22045e-16
0
-1.11022e-16
1.11022e-16
0
0
-2.22045e-16
0
2.22045e-16
1.11022e-16
0
-2.22045e-16
0
-2.22045e-16
0
2.22045e-16
0
0
0
0
2.22045e-16
1.11022e-16
-4.44089e-16
-2.22045e-16
2.8765e-11
3.47586e-11
3.02632e-11
1.9071e-11
3.14703e-11
2.71893e-11
1.6182e-09
2.14171e-09
1.84499e-09
1.84095e-09
1.90013e-09
1.70441e-09
1.88414e-09
1.79739e-09
1.96567e-09
2.09339e-09
1.7677e-09
1.96698e-09
1.88807e-09
2.09453e-09
1.88676e-09
1.65522e-09
1.5496e-09
1.17257e-09
6.4615e-14
4.90286e-12
1.16893e-11
4.64973e-12
3.71458e-12
4.81259e-12
0
-1.11022e-16
2.22045e-16
1.11022e-16
-2.22045e-16
1.11022e-16
-2.22045e-16
0
-2.22045e-16
-4.44089e-16
0
-4.44089e-16
-2.22045e-16
2.22045e-16
0
0
-2.22045e-16
0
2.22045e-16
1.11022e-16
2.22045e-16
-1.11022e-16
2.22045e-16
2.22045e-16
0
0
0
-2.22045e-16
2.31259e-13
3.68051e-11
1.52353e-11
1.3876e-11
1.52075e-11
1.37582e-11
4.83147e-12
1.27952e-09
1.21212e-09
1.07646e-09
1.07708e-09
1.07709e-09
1.14136e-09
1.08113e-09
1.11003e-09
1.18333e-09
1.06213e-09
1.13528e-09
1.0725e-09
1.14302e-09
1.01567e-09
9.19036e-10
2.76327e-10
7.29417e-14
5.50893e-12
6.30584e-12
5.66358e-12
8.81295e-13
7.16427e-13
1.0163e-12
-1.11022e-16
0
-1.11022e-16
4.44089e-16
0
0
0
-2.22045e-16
0
-4.44089e-16
0
4.44089e-16
2.22045e-16
0
0
2.22045e-16
0
2.22045e-16
0
2.22045e-16
-1.11022e-16
-2.22045e-16
0
3.33067e-16
-3.33067e-16
0
1.11022e-16
-2.22045e-16
-2.22045e-16
3.33067e-16
0
2.22045e-16
-1.11022e-16
-4.44089e-16
2.22045e-16
4.08922e-11
1.73687e-11
1.04997e-11
1.81458e-11
1.38785e-11
1.90991e-11
1.11246e-09
9.25467e-10
9.76053e-10
9.68157e-10
9.27871e-10
9.75692e-10
8.42824e-10
1.05112e-09
1.03037e-09
8.26314e-10
9.34288e-10
8.36063e-10
1.04844e-09
6.26645e-10
1.23146e-12
4.14802e-12
6.00942e-12
4.91052e-12
5.6507e-12
7.18214e-12
8.95062e-13
9.10161e-13
1.25933e-12
0
-2.22045e-16
0
4.44089e-16
-3.33067e-16
4.44089e-16
2.22045e-16
2.22045e-16
4.44089e-16
-2.22045e-16
-4.44089e-16
4.44089e-16
2.22045e-16
0
-3.33067e-16
0
2.22045e-16
2.22045e-16
0
0
1.11022e-16
2.22045e-16
2.22045e-16
-2.22045e-16
-4.44089e-16
0
-2.22045e-16
3.33067e-16
-3.33067e-16
1.11022e-16
2.22045e-16
-4.44089e-16
-1.11022e-16
-2.22045e-16
0
0
6.47371e-12
5.9952e-13
2.58549e-12
1.90747e-12
1.50857e-12
2.61502e-12
1.999e-10
2.65442e-10
2.95626e-10
2.12953e-10
2.99947e-10
2.61936e-10
2.52819e-10
3.54165e-10
2.25071e-10
2.52044e-10
2.717e-10
2.55641e-10
2.73806e-10
2.67086e-12
2.19602e-12
1.83076e-12
2.2774e-12
2.00162e-12
2.76779e-12
4.03577e-12
1.9984e-13
6.29163e-13
5.19584e-13
2.22045e-16
0
-4.44089e-16
2.22045e-16
0
0
-2.22045e-16
0
0
2.22045e-16
4.44089e-16
0
0
-4.44089e-16
-2.22045e-16
4.44089e-16
-2.22045e-16
2.22045e-16
0
-2.22045e-16
-1.11022e-16
2.22045e-16
2.22045e-16
0
2.22045e-16
0
4.44089e-16
-2.22045e-16
1.11022e-16
-4.44089e-16
-1.11022e-16
3.33067e-16
2.22045e-16
-2.22045e-16
-4.44089e-16
2.22045e-16
1.11022e-16
1.84217e-11
1.13107e-11
1.03351e-11
8.34899e-12
9.94227e-12
8.93008e-12
4.47363e-10
5.12614e-10
4.01981e-10
4.25611e-10
5.00143e-10
4.02929e-10
3.92943e-10
4.20276e-10
3.90935e-10
3.6289e-10
1.90784e-10
4.67686e-11
2.81442e-12
3.59324e-12
3.51519e-12
2.19136e-12
2.6521e-12
8.9817e-13
1.49725e-12
8.84515e-13
8.72635e-14
0
2.37588e-14
-4.44089e-16
0
0
-4.44089e-16
0
0
-2.22045e-16
-2.22045e-16
2.22045e-16
0
-1.11022e-16
4.44089e-16
3.33067e-16
0
1.11022e-16
0
-2.22045e-16
2.22045e-16
-4.44089e-16
0
-2.22045e-16
0
-2.22045e-16
2.22045e-16
0
-1.11022e-16
-1.11022e-16
2.22045e-16
0
-1.11022e-16
0
0
-2.22045e-16
0
4.44089e-16
2.22045e-16
0
1.11022e-16
7.97917e-12
1.0165e-11
5.86031e-12
8.2393e-12
7.79776e-12
8.77476e-12
1.9524e-10
4.64476e-10
4.37281e-10
4.30756e-10
4.596e-10
3.88305e-10
3.72371e-10
4.61376e-10
3.58016e-10
8.07722e-11
8.41771e-13
2.61025e-12
6.23568e-12
1.83742e-12
2.53642e-12
1.53333e-12
1.79001e-12
9.166e-13
8.74523e-13
2.43994e-12
6.21725e-15
2.39808e-14
9.21485e-15
-2.22045e-16
0
-2.22045e-16
1.11022e-16
-4.44089e-16
2.22045e-16
2.22045e-16
2.22045e-16
0
1.11022e-16
-1.11022e-16
-1.11022e-16
-4.44089e-16
0
-2.22045e-16
-4.44089e-16
0
2.22045e-16
-2.22045e-16
0
4.44089e-16
-4.44089e-16
-2.22045e-16
0
-2.22045e-16
0
0
-1.11022e-16
4.44089e-16
0
1.11022e-16
1.11022e-16
-2.22045e-16
4.44089e-16
-2.22045e-16
2.22045e-16
1.11022e-16
1.11022e-16
6.27276e-14
9.89531e-12
4.19209e-12
4.01845e-12
3.51974e-12
4.6495e-12
2.27629e-12
1.63825e-10
2.43351e-10
2.28678e-10
2.8697e-10
2.224e-10
1.93382e-10
2.49175e-10
3.43836e-13
1.04239e-12
1.47782e-12
1.18905e-12
2.08555e-12
2.24709e-13
4.32543e-13
2.33924e-13
2.41696e-13
1.15574e-13
7.32747e-14
6.27276e-13
2.03615e-13
4.44089e-16
0
0
2.22045e-16
0
-3.33067e-16
2.22045e-16
2.22045e-16
2.22045e-16
2.22045e-16
-4.44089e-16
0
2.22045e-16
-2.22045e-16
0
0
-3.33067e-16
-2.22045e-16
-2.22045e-16
4.44089e-16
-1.11022e-16
0
0
-4.44089e-16
0
-1.11022e-16
2.22045e-16
-2.22045e-16
2.22045e-16
4.44089e-16
-1.11022e-16
0
0
-2.22045e-16
0
-2.22045e-16
0
-3.33067e-16
0
0
2.22045e-16
9.71057e-12
3.5375e-12
4.92661e-12
3.75611e-12
5.66269e-12
3.43436e-12
1.69365e-12
1.23593e-10
2.06278e-10
2.41799e-10
6.21365e-11
6.63025e-13
2.45504e-12
1.33771e-12
1.39999e-12
1.50213e-12
1.21803e-12
2.79565e-12
3.44391e-13
5.3102e-13
3.2474e-13
3.13083e-13
3.21965e-15
1.18905e-13
5.26246e-13
1.00253e-13
-1.11022e-16
0
-2.22045e-16
-1.11022e-16
2.22045e-16
-4.44089e-16
-3.33067e-16
2.22045e-16
-1.11022e-16
2.22045e-16
2.22045e-16
2.22045e-16
0
-2.22045e-16
0
-2.22045e-16
0
1.11022e-16
-2.22045e-16
0
-1.11022e-16
0
-2.22045e-16
0
0
1.11022e-16
-1.11022e-16
1.11022e-16
0
-1.11022e-16
0
1.11022e-16
-1.11022e-16
0
2.22045e-16
-4.44089e-16
-1.11022e-16
0
0
0
1.11022e-16
5.4956e-14
3.07909e-12
1.09224e-12
1.06681e-12
2.2371e-12
5.20806e-13
1.38567e-12
6.01963e-13
1.88405e-13
1.6307e-12
3.22853e-13
1.16518e-12
2.44482e-12
4.77174e-13
1.13509e-12
8.76077e-13
1.22113e-12
2.75535e-12
5.3757e-13
1.23834e-12
8.88289e-13
1.47515e-12
1.16718e-12
1.50802e-12
3.45957e-12
2.28484e-13
2.22045e-16
-1.11022e-16
4.44089e-16
-1.11022e-16
1.11022e-16
-2.22045e-16
1.11022e-16
4.44089e-16
2.22045e-16
2.22045e-16
-4.44089e-16
-2.22045e-16
2.22045e-16
-1.11022e-16
2.22045e-16
2.22045e-16
2.22045e-16
-2.22045e-16
0
-1.11022e-16
0
-1.11022e-16
-4.44089e-16
0
0
0
-2.22045e-16
0
-4.44089e-16
0
2.22045e-16
2.22045e-16
0
0
0
2.22045e-16
0
-1.11022e-16
-2.22045e-16
2.22045e-16
0
-1.11022e-16
5.32963e-12
2.45215e-12
2.2462e-12
3.19356e-12
1.65756e-12
1.70142e-12
1.06815e-12
1.26521e-12
2.33069e-12
6.37712e-13
8.86513e-13
1.7859e-12
4.21219e-13
5.35127e-13
3.08309e-13
2.72671e-13
8.9706e-13
8.99281e-15
7.77156e-15
2.36478e-14
2.90878e-14
1.62204e-13
1.22014e-13
5.55112e-16
3.68594e-14
1.11022e-16
1.11022e-16
4.44089e-16
1.11022e-16
2.22045e-16
0
2.22045e-16
-2.22045e-16
1.11022e-16
0
-3.33067e-16
0
1.11022e-16
-2.22045e-16
2.22045e-16
4.44089e-16
-2.22045e-16
-2.22045e-16
3.33067e-16
0
-4.44089e-16
-2.22045e-16
-5.55112e-16
-1.11022e-16
0
2.22045e-16
2.22045e-16
0
0
0
2.22045e-16
2.22045e-16
2.22045e-16
1.11022e-16
-1.11022e-16
1.11022e-16
-1.11022e-16
0
0
2.22045e-16
-1.11022e-16
0
3.70981e-12
2.24509e-12
1.97797e-12
3.37097e-12
1.13842e-12
1.38745e-12
1.25522e-12
1.1714e-12
2.12519e-12
5.44231e-13
8.5898e-13
2.10088e-12
2.73226e-13
5.23914e-13
3.18856e-13
3.39728e-13
1.3719e-12
4.44089e-15
8.34888e-14
6.55032e-15
1.11022e-15
7.77156e-16
0
7.88258e-14
8.21565e-15
-2.22045e-16
-2.22045e-16
0
-2.22045e-16
0
4.44089e-16
-2.22045e-16
-2.22045e-16
-1.11022e-16
2.22045e-16
4.44089e-16
2.22045e-16
2.22045e-16
0
-1.11022e-16
-2.22045e-16
2.22045e-16
2.22045e-16
2.22045e-16
0
2.22045e-16
0
-1.11022e-16
2.22045e-16
-4.44089e-16
0
2.22045e-16
0
0
0
0
-2.22045e-16
-2.22045e-16
-2.22045e-16
-2.22045e-16
-2.22045e-16
2.22045e-16
-1.11022e-16
-2.22045e-16
2.22045e-16
0
2.22045e-16
5.4734e-14
2.07201e-12
7.85483e-13
1.99218e-12
5.21916e-13
8.47433e-13
8.14238e-13
6.50702e-13
2.02838e-12
5.2891e-13
7.99028e-13
2.15694e-12
4.70735e-13
8.84737e-13
8.30891e-13
8.9484e-13
2.51055e-12
4.45755e-13
9.26703e-13
4.06342e-14
6.66134e-16
0
1.11022e-16
3.34288e-12
2.23599e-13
-2.22045e-16
2.22045e-16
0
0
0
1.11022e-16
1.11022e-16
-2.22045e-16
0
-2.22045e-16
0
-2.22045e-16
0
0
-2.22045e-16
1.11022e-16
-2.22045e-16
0
2.22045e-16
0
0
0
0
-2.22045e-16
0
4.44089e-16
0
0
4.44089e-16
-1.11022e-16
-2.22045e-16
0
0
0
0
2.22045e-16
0
-3.33067e-16
-6.66134e-16
-2.22045e-16
-3.33067e-16
2.22045e-16
1.11022e-16
3.60045e-13
1.78157e-12
1.68421e-12
4.66516e-13
7.31526e-13
2.34479e-13
4.59632e-13
1.29896e-12
5.32907e-14
2.13274e-13
6.91336e-13
3.77476e-15
4.38538e-14
1.11022e-16
1.44329e-15
1.64091e-13
2.06613e-13
5.79536e-14
3.21965e-15
-1.11022e-16
2.22045e-16
1.11022e-16
9.40359e-14
7.77156e-16
-2.22045e-16
0
0
0
0
0
0
0
0
0
1.11022e-16
2.22045e-16
2.22045e-16
0
0
0
2.22045e-16
4.44089e-16
2.22045e-16
-2.22045e-16
0
-1.11022e-16
2.22045e-16
0
-2.22045e-16
2.22045e-16
-3.33067e-16
1.11022e-16
0
0
0
4.44089e-16
1.11022e-16
0
1.11022e-16
0
0
-2.22045e-16
-1.11022e-16
-1.11022e-16
-2.22045e-16
-2.22045e-16
1.11022e-16
9.99201e-16
2.24554e-12
1.85763e-12
3.16525e-13
6.84119e-13
4.01568e-13
4.1056e-13
1.30851e-12
6.05072e-14
2.67453e-13
1.03717e-12
7.77156e-16
1.38445e-13
5.9952e-15
3.38618e-14
4.07674e-13
5.73985e-14
0
0
4.44089e-16
0
0
-1.11022e-16
2.22045e-16
4.44089e-16
0
0
-2.22045e-16
4.44089e-16
2.22045e-16
0
3.33067e-16
-6.66134e-16
-2.22045e-16
0
2.22045e-16
0
-1.11022e-16
0
-1.11022e-16
2.22045e-16
1.11022e-16
0
0
1.11022e-16
0
-2.22045e-16
2.22045e-16
2.22045e-16
-4.44089e-16
-2.22045e-16
-2.22045e-16
2.22045e-16
0
0
0
-1.11022e-16
-1.11022e-16
-2.22045e-16
0
0
-2.22045e-16
4.44089e-16
1.11022e-16
4.44089e-16
4.44089e-16
-1.11022e-16
-1.11022e-16
2.59792e-14
1.83797e-12
9.67004e-14
1.55875e-13
1.25566e-13
4.71845e-14
6.62803e-13
0
1.16573e-14
5.12035e-13
6.12843e-14
5.10703e-15
2.10942e-15
1.33227e-15
7.36078e-14
1.46549e-14
2.22045e-16
1.11022e-16
-1.11022e-16
-3.33067e-16
0
-1.11022e-16
2.22045e-16
-1.11022e-16
-2.22045e-16
4.44089e-16
2.22045e-16
-4.44089e-16
-1.11022e-16
-1.11022e-16
4.44089e-16
0
0
-2.22045e-16
0
0
-1.11022e-16
-4.44089e-16
0
-4.44089e-16
0
1.11022e-16
2.22045e-16
0
-1.11022e-16
4.44089e-16
2.22045e-16
2.22045e-16
-2.22045e-16
2.22045e-16
2.22045e-16
2.22045e-16
-2.22045e-16
4.44089e-16
-2.22045e-16
-1.11022e-16
-4.44089e-16
2.22045e-16
1.11022e-16
2.22045e-16
-4.44089e-16
-3.33067e-16
1.11022e-16
0
2.22045e-16
0
-2.22045e-16
0
1.90958e-14
6.00298e-13
1.33338e-13
1.02918e-13
8.33777e-14
5.50782e-13
1.44329e-15
7.43849e-15
4.37983e-13
6.35048e-14
0
2.22045e-16
2.22045e-16
1.12133e-14
1.66533e-15
-2.22045e-16
1.11022e-16
-1.11022e-16
0
-2.22045e-16
0
-1.11022e-16
0
0
-2.22045e-16
1.11022e-16
-4.44089e-16
1.11022e-16
-1.11022e-16
4.44089e-16
2.22045e-16
0
2.22045e-16
0
0
-1.11022e-16
0
0
4.44089e-16
0
-4.44089e-16
2.22045e-16
2.22045e-16
4.44089e-16
-4.44089e-16
-1.11022e-16
-2.22045e-16
0
0
2.22045e-16
-1.11022e-16
-1.11022e-16
2.22045e-16
0
0
0
-2.22045e-16
0
1.11022e-16
0
-2.22045e-16
0
1.11022e-16
2.22045e-16
2.22045e-16
-1.11022e-16
1.11022e-16
-1.11022e-16
8.77076e-15
1.56875e-12
6.05294e-13
6.76015e-13
1.8856e-12
2.61458e-13
7.363e-13
1.84597e-12
1.57652e-14
2.89768e-14
2.66454e-15
1.62093e-14
2.79765e-12
2.22933e-13
2.22045e-16
0
-2.22045e-16
0
-4.44089e-16
0
0
-2.22045e-16
2.22045e-16
4.44089e-16
0
2.22045e-16
0
-1.11022e-16
0
1.11022e-16
0
0
0
-2.22045e-16
3.33067e-16
0
0
3.33067e-16
0
-1.11022e-16
2.22045e-16
-1.11022e-16
2.22045e-16
-2.22045e-16
0
-2.22045e-16
-2.22045e-16
2.22045e-16
0
0
2.22045e-16
1.11022e-16
4.44089e-16
-4.44089e-16
0
0
2.22045e-16
4.44089e-16
2.22045e-16
0
-2.22045e-16
0
0
1.11022e-16
3.33067e-16
0
2.22045e-16
-1.11022e-16
1.93179e-14
4.44089e-15
1.66533e-14
2.05058e-13
1.0858e-13
1.87628e-14
1.94289e-14
2.9865e-14
1.22125e-15
2.22045e-16
2.22045e-16
4.27436e-14
4.44089e-16
0
3.33067e-16
-1.11022e-16
0
0
-2.22045e-16
4.44089e-16
2.22045e-16
0
2.22045e-16
0
0
0
-2.22045e-16
4.44089e-16
0
0
0
0
1.11022e-16
0
-2.22045e-16
-2.22045e-16
0
0
-2.22045e-16
2.22045e-16
0
4.44089e-16
0
0
-1.11022e-16
2.22045e-16
0
-2.22045e-16
2.22045e-16
2.22045e-16
-2.22045e-16
0
-4.44089e-16
0
0
-1.11022e-16
-1.11022e-16
2.22045e-16
-2.22045e-16
4.44089e-16
-2.22045e-16
-1.11022e-16
-1.11022e-16
2.22045e-16
0
3.33067e-16
1.11022e-16
-1.11022e-16
0
0
1.72862e-13
2.23155e-14
1.11022e-16
1.55431e-15
0
2.22045e-16
0
-2.22045e-16
2.22045e-16
-1.11022e-16
1.11022e-16
0
-2.22045e-16
-2.22045e-16
2.22045e-16
-4.44089e-16
1.11022e-16
4.44089e-16
0
-2.22045e-16
0
-4.44089e-16
-4.44089e-16
0
0
-2.22045e-16
0
0
2.22045e-16
-4.44089e-16
-2.22045e-16
0
1.11022e-16
0
0
0
2.22045e-16
-1.11022e-16
0
0
0
0
0
0
0
0
2.22045e-16
0
0
0
-1.11022e-16
-4.44089e-16
4.44089e-16
0
1.11022e-16
-4.44089e-16
0
-4.44089e-16
0
1.11022e-16
0
-1.11022e-16
0
1.11022e-16
1.11022e-16
1.11022e-16
-1.11022e-16
9.99201e-16
-1.11022e-16
0
2.22045e-16
1.11022e-16
-1.11022e-16
-3.33067e-16
0
0
0
3.33067e-16
0
0
4.44089e-16
0
0
2.22045e-16
2.22045e-16
2.22045e-16
4.44089e-16
2.22045e-16
-1.11022e-16
1.11022e-16
-2.22045e-16
4.44089e-16
1.11022e-16
0
-2.22045e-16
0
1.11022e-16
0
-2.22045e-16
0
0
0
4.44089e-16
-1.11022e-16
1.11022e-16
0
2.22045e-16
-1.11022e-16
0
1.11022e-16
2.22045e-16
-4.44089e-16
-2.22045e-16
1.11022e-16
-2.22045e-16
0
2.22045e-16
0
0
0
-2.22045e-16
0
-2.22045e-16
0
2.22045e-16
0
-4.44089e-16
-2.22045e-16
0
-2.22045e-16
-2.22045e-16
-2.22045e-16
2.22045e-16
-1.11022e-16
-2.22045e-16
-1.11022e-16
-1.11022e-16
2.22045e-16
-1.11022e-16
1.11022e-16
2.22045e-16
2.22045e-16
0
3.33067e-16
-4.44089e-16
0
-2.22045e-16
-1.11022e-16
2.22045e-16
-2.22045e-16
-3.33067e-16
-1.11022e-16
4.44089e-16
0
0
2.22045e-16
2.22045e-16
0
-2.22045e-16
2.22045e-16
-2.22045e-16
0
-6.66134e-16
0
0
-2.22045e-16
0
1.11022e-16
0
0
2.22045e-16
0
-4.44089e-16
4.44089e-16
0
0
0
0
6.66134e-16
1.11022e-16
-2.22045e-16
0
1.11022e-16
0
0
-4.44089e-16
-1.11022e-16
0
2.22045e-16
0
0
1.11022e-16
4.44089e-16
0
0
2.22045e-16
0
0
0
0
0
1.11022e-16
1.11022e-16
0
0
0
0
3.33067e-16
2.22045e-16
3.33067e-16
-4.44089e-16
2.22045e-16
-2.22045e-16
2.22045e-16
-1.11022e-16
-1.11022e-16
0
2.22045e-16
1.11022e-16
0
0
-3.33067e-16
1.11022e-16
-2.22045e-16
3.33067e-16
4.44089e-16
0
0
0
1.11022e-16
0
-2.22045e-16
2.22045e-16
2.22045e-16
-2.22045e-16
-6.66134e-16
4.44089e-16
0
-2.22045e-16
2.22045e-16
2.22045e-16
0
0
0
4.44089e-16
0
4.44089e-16
-1.11022e-16
0
-1.11022e-16
0
1.11022e-16
2.22045e-16
0
0
0
0
1.11022e-16
0
2.22045e-16
0
1.11022e-16
0
-3.33067e-16
0
-3.33067e-16
0
0
0
0
0
0
-1.11022e-16
1.11022e-16
0
-1.11022e-16
1.11022e-16
-4.44089e-16
-1.11022e-16
0
-4.44089e-16
2.22045e-16
0
0
0
1.11022e-16
1.11022e-16
-1.11022e-16
0
0
0
4.44089e-16
4.44089e-16
0
4.44089e-16
-2.22045e-16
1.11022e-16
2.22045e-16
4.44089e-16
-2.22045e-16
2.22045e-16
2.22045e-16
0
-4.44089e-16
0
2.22045e-16
4.44089e-16
-2.22045e-16
-3.33067e-16
0
-1.11022e-16
2.22045e-16
2.22045e-16
-1.11022e-16
0
2.22045e-16
0
-1.11022e-16
-4.44089e-16
-2.22045e-16
0
2.22045e-16
0
-2.22045e-16
0
0
0
-1.11022e-16
0
-2.22045e-16
-1.11022e-16
0
0
0
-2.22045e-16
-2.22045e-16
0
0
2.22045e-16
2.22045e-16
3.33067e-16
0
0
-2.22045e-16
6.66134e-16
0
0
0
0
0
0
1.11022e-16
1.11022e-16
-4.44089e-16
1.11022e-16
0
0
-1.11022e-16
2.22045e-16
-2.22045e-16
-2.22045e-16
-2.22045e-16
0
0
-2.22045e-16
0
0
2.22045e-16
0
-2.22045e-16
-1.11022e-16
0
0
4.44089e-16
1.11022e-16
0
2.22045e-16
1.11022e-16
2.22045e-16
0
-2.22045e-16
0
2.22045e-16
0
0
4.44089e-16
-4.44089e-16
0
0
0
0
-2.22045e-16
0
0
-4.44089e-16
0
2.22045e-16
-2.22045e-16
-4.44089e-16
0
0
0
0
-2.22045e-16
2.22045e-16
-1.11022e-16
-2.22045e-16
0
-4.44089e-16
2.22045e-16
0
0
2.22045e-16
-2.22045e-16
2.22045e-16
-1.11022e-16
-2.22045e-16
-1.11022e-16
-1.11022e-16
-1.11022e-16
0
0
2.22045e-16
0
-2.22045e-16
0
-1.11022e-16
0
2.22045e-16
-4.44089e-16
2.22045e-16
0
2.22045e-16
4.44089e-16
0
1.11022e-16
-2.22045e-16
-2.22045e-16
0
-3.33067e-16
0
1.11022e-16
-1.11022e-16
2.22045e-16
4.44089e-16
-2.22045e-16
0
-2.22045e-16
2.22045e-16
2.22045e-16
-4.44089e-16
2.22045e-16
-2.22045e-16
-1.11022e-16
0
1.11022e-16
0
1.11022e-16
0
1.11022e-16
0
-2.22045e-16
-1.11022e-16
0
0
1.11022e-16
0
3.33067e-16
-2.22045e-16
4.44089e-16
0
-1.11022e-16
0
4.44089e-16
0
2.22045e-16
2.22045e-16
1.11022e-16
-2.22045e-16
-2.22045e-16
-2.22045e-16
-1.11022e-16
-4.44089e-16
-1.11022e-16
0
0
2.22045e-16
-2.22045e-16
2.22045e-16
2.22045e-16
2.22045e-16
-4.44089e-16
0
0
-2.22045e-16
-2.22045e-16
0
4.44089e-16
-1.11022e-16
-2.22045e-16
2.22045e-16
0
0
2.22045e-16
0
-1.11022e-16
0
-4.44089e-16
0
-2.22045e-16
-1.11022e-16
0
0
-4.44089e-16
-1.11022e-16
4.44089e-16
4.44089e-16
-2.22045e-16
0
0
2.22045e-16
2.22045e-16
-1.11022e-16
2.22045e-16
0
-4.44089e-16
-4.44089e-16
0
2.22045e-16
-4.44089e-16
0