/*--------------------------------*- C++ -*----------------------------------*\
| =========                 |                                                 |
| \\      /  F ield         | OpenFOAM: The Open Source CFD Toolbox           |
|  \\    /   O peration     | Version:  v2012                                 |
|   \\  /    A nd           | Website:  www.openfoam.com                      |
|    \\/     M anipulation  |                                                 |
\*---------------------------------------------------------------------------*/
FoamFile
{
    version     2.0;
    format      ascii;
    class       volScalarField;
    location    "1e-06";
    object      k;
}
// * * * * * * * * * * * * * * * * * * * * * * * * * * * * * * * * * * * * * //

dimensions      [0 2 -2 0 0 0 0];


internalField   nonuniform List<scalar> 
10295
(
1.76046
1.79989
1.76108
1.79327
1.84398
1.8031
1.831
1.90114
1.84784
1.87467
1.94065
1.88642
1.90667
1.97162
1.91189
1.93348
1.99623
2.06849
1.98985
1.98347
1.95713
2.01714
2.08782
2.23186
2.03684
2.15092
2.51644
2.14027
2.11321
2.10011
2.10997
2.08849
2.10659
2.11135
2.24192
2.04139
2.00595
2.03399
2.07102
2.02642
2.06747
2.06558
2.1128
2.12562
2.06723
2.11551
2.1213
2.32201
2.19442
2.132
2.19572
2.19254
2.20482
2.20051
2.35204
2.1782
2.13266
2.25293
1.60499
1.58424
1.59493
1.64077
1.61503
1.62692
1.67842
1.67132
1.66168
1.71806
1.70602
1.69518
1.74727
1.73315
1.72162
1.7712
1.73844
1.74746
1.78575
1.75553
1.77213
1.81346
1.78723
1.76482
1.8238
1.81442
1.80097
1.8572
1.83574
1.94144
1.87947
1.86279
1.92286
1.87961
1.88547
1.92715
1.89216
1.96359
1.90595
1.91533
1.95843
1.92473
2.00778
1.97383
1.95047
2.00974
1.97122
2.07706
2.03248
2.01038
2.08392
2.04606
2.14479
2.04651
2.00668
2.03585
2.00089
2.12563
1.39669
1.38183
1.39499
1.42521
1.40632
1.41896
1.45554
1.44803
1.44444
1.48492
1.47736
1.4732
1.51268
1.50089
1.4993
1.53271
1.5153
1.53243
1.55791
1.53508
1.55579
1.57514
1.55644
1.58342
1.59144
1.58503
1.64322
1.62211
1.60668
1.65887
1.63793
1.63728
1.67779
1.64675
1.64532
1.69045
1.67539
1.73565
1.68652
1.71761
1.73785
1.71075
1.79096
1.74413
1.74128
1.77482
1.74409
1.83181
1.79059
1.79363
1.843
1.81968
1.90982
1.83029
1.80733
1.79516
1.77149
1.83487
1.37803
1.36801
1.37179
1.40295
1.39181
1.39747
1.42894
1.43285
1.42291
1.45555
1.46022
1.45103
1.4822
1.48547
1.473
1.50617
1.49166
1.49576
1.5261
1.51302
1.50969
1.54669
1.53254
1.52459
1.56532
1.55579
1.56343
1.60659
1.5755
1.60857
1.61317
1.59
1.63258
1.61557
1.61007
1.64993
1.64014
1.66839
1.64683
1.64849
1.68938
1.66939
1.68779
1.70673
1.68531
1.72909
1.70524
1.72605
1.7512
1.72945
1.79489
1.77176
1.81976
1.77685
1.72791
1.74348
1.708
1.76164
1.27477
1.26664
1.27059
1.29561
1.28607
1.29097
1.31767
1.31876
1.31105
1.33931
1.3428
1.3353
1.36468
1.36682
1.35893
1.38748
1.37632
1.37963
1.40193
1.39077
1.39582
1.41999
1.40758
1.40712
1.43275
1.43075
1.44055
1.47569
1.45092
1.48035
1.50384
1.47072
1.50004
1.5024
1.4962
1.52132
1.50932
1.54421
1.52208
1.52728
1.55778
1.54107
1.5641
1.57333
1.55829
1.59166
1.57218
1.58276
1.61279
1.59889
1.65281
1.63356
1.67809
1.64119
1.60118
1.59368
1.56586
1.59319
1.18322
1.17405
1.18152
1.2021
1.1908
1.19709
1.22229
1.21855
1.21343
1.24063
1.2396
1.23442
1.26365
1.25999
1.25787
1.28318
1.27148
1.28177
1.30016
1.28572
1.29922
1.31401
1.30232
1.31897
1.33023
1.32367
1.35523
1.35349
1.34276
1.37251
1.37142
1.36562
1.3847
1.37428
1.39859
1.40083
1.39042
1.43146
1.40046
1.41653
1.43235
1.41698
1.45499
1.44315
1.44021
1.46137
1.44269
1.47858
1.47651
1.47609
1.51151
1.49378
1.54769
1.50081
1.47974
1.4534
1.43411
1.44301
1.16998
1.16463
1.16595
1.18621
1.18076
1.18255
1.20331
1.20818
1.1988
1.21994
1.2277
1.21862
1.24191
1.24949
1.23986
1.26483
1.25765
1.25892
1.2798
1.27164
1.27028
1.29494
1.28615
1.28675
1.31355
1.30655
1.32257
1.3376
1.32276
1.34282
1.35163
1.33726
1.36078
1.35181
1.37881
1.37721
1.36278
1.38663
1.38439
1.37675
1.40204
1.38826
1.40684
1.41462
1.40008
1.42636
1.41141
1.43122
1.44606
1.43158
1.4763
1.46032
1.48613
1.46043
1.42576
1.41456
1.39342
1.40259
1.10194
1.09437
1.09733
1.11764
1.10884
1.11069
1.13347
1.13323
1.12467
1.1484
1.15061
1.1423
1.16786
1.16986
1.16241
1.18723
1.1775
1.18269
1.20272
1.19073
1.19731
1.2153
1.20474
1.21117
1.23152
1.22479
1.23601
1.25206
1.24113
1.26338
1.26426
1.26824
1.2791
1.2652
1.28013
1.29349
1.28074
1.30577
1.29307
1.30122
1.31901
1.30366
1.32446
1.32724
1.31937
1.34058
1.32392
1.34526
1.35781
1.35124
1.37914
1.36202
1.38726
1.35875
1.33224
1.32169
1.30145
1.3063
1.08906
1.08505
1.08286
1.10223
1.09882
1.09741
1.11561
1.12271
1.11138
1.12918
1.13914
1.12786
1.14778
1.15855
1.14558
1.16833
1.16639
1.16099
1.18196
1.17734
1.17027
1.19673
1.18955
1.18285
1.21481
1.20864
1.21395
1.23789
1.22408
1.23693
1.24895
1.23764
1.25695
1.24875
1.24694
1.27423
1.25803
1.27353
1.27111
1.27431
1.30228
1.28831
1.2894
1.30488
1.29125
1.31727
1.3052
1.31367
1.32999
1.30954
1.34572
1.33113
1.34201
1.32756
1.28835
1.29482
1.26519
1.2704
1.02202
1.01375
1.0156
1.03506
1.02616
1.02746
1.04752
1.04821
1.03946
1.05992
1.06286
1.05403
1.07586
1.07905
1.07044
1.09229
1.08286
1.08485
1.10424
1.09479
1.09971
1.11801
1.10629
1.11364
1.13274
1.12719
1.13869
1.15297
1.14822
1.16121
1.16422
1.15711
1.17787
1.16489
1.17483
1.20066
1.17864
1.19735
1.18673
1.19188
1.21331
1.19942
1.21622
1.22761
1.20939
1.22974
1.2149
1.2263
1.24153
1.2301
1.257
1.24053
1.25233
1.23255
1.21375
1.20265
1.18178
1.18527
0.950421
0.937693
0.947535
0.963977
0.949583
0.95703
0.976467
0.970457
0.96742
0.988496
0.98327
0.980869
1.00221
0.997029
0.995823
1.01553
0.99882
1.01068
1.02732
1.0117
1.02695
1.03837
1.02492
1.04487
1.05217
1.04381
1.07108
1.06562
1.06068
1.0838
1.07443
1.07682
1.09691
1.07528
1.09928
1.10081
1.09413
1.11858
1.09374
1.11009
1.12115
1.10609
1.13569
1.12622
1.12399
1.13864
1.12073
1.14947
1.14312
1.14339
1.16032
1.14388
1.16581
1.13471
1.12409
1.10741
1.09437
1.09601
0.936765
0.9284
0.930501
0.948472
0.939692
0.940769
0.95914
0.960339
0.951045
0.969917
0.972505
0.963532
0.983212
0.985894
0.976961
0.996849
0.986912
0.989329
1.00706
0.997025
1.00267
1.01976
1.0081
1.01791
1.03587
1.02588
1.0403
1.0502
1.04092
1.05705
1.05986
1.05183
1.07626
1.05771
1.07064
1.08023
1.07426
1.08704
1.07301
1.08021
1.09593
1.08133
1.09703
1.10271
1.09316
1.1101
1.09456
1.11107
1.11889
1.1106
1.13098
1.11456
1.12896
1.10238
1.08747
1.07949
1.06251
1.06554
0.872979
0.859894
0.869372
0.885186
0.87035
0.877794
0.896063
0.889927
0.886972
0.90639
0.900722
0.898057
0.917758
0.912133
0.910334
0.928834
0.911761
0.922589
0.938569
0.922321
0.935794
0.947536
0.933263
0.951138
0.9594
0.950465
0.973807
0.970645
0.964554
0.98737
0.978907
0.978711
0.995838
0.978097
0.998613
1.00106
0.993258
1.0177
0.993649
1.00785
1.01996
1.00431
1.02831
1.02246
1.01956
1.03431
1.0168
1.04104
1.03802
1.03578
1.05557
1.03964
1.05106
1.0194
1.01383
1.00335
0.991176
0.997077
0.858778
0.849588
0.851744
0.868994
0.859797
0.860602
0.878002
0.87928
0.869774
0.887188
0.889572
0.880046
0.89787
0.900555
0.891179
0.909117
0.899139
0.901285
0.917405
0.906926
0.91226
0.928122
0.916127
0.925698
0.942859
0.932046
0.944461
0.955031
0.944746
0.961484
0.964272
0.955166
0.974021
0.962326
0.97218
0.981518
0.96791
0.992151
0.973904
0.979659
0.994861
0.979748
0.993795
1.00033
0.990572
1.00638
0.991756
1.00625
1.0195
1.0108
1.02361
1.00676
1.01317
0.993901
0.982721
0.978094
0.965897
0.965845
0.796
0.782268
0.792129
0.806878
0.790988
0.799307
0.816314
0.809226
0.807004
0.825125
0.818333
0.816187
0.834397
0.827544
0.826156
0.843135
0.825164
0.835791
0.850558
0.833886
0.846783
0.857681
0.843208
0.859865
0.867286
0.858119
0.878908
0.87586
0.868755
0.892664
0.882518
0.882226
0.896358
0.884595
0.900017
0.901887
0.892134
0.915627
0.895489
0.907209
0.918784
0.903269
0.925206
0.920355
0.917454
0.93197
0.917963
0.941131
0.933957
0.931718
0.944722
0.928618
0.941831
0.912806
0.910562
0.903923
0.893128
0.896211
0.782073
0.772004
0.775212
0.790819
0.780694
0.782604
0.798343
0.798935
0.790149
0.805814
0.807501
0.79875
0.814467
0.816292
0.807824
0.823365
0.812721
0.815819
0.82958
0.818575
0.824585
0.83836
0.826494
0.83564
0.851087
0.840133
0.850534
0.86065
0.849464
0.868455
0.868498
0.859758
0.874936
0.863505
0.873244
0.882615
0.869356
0.884463
0.877469
0.881318
0.894753
0.880193
0.891414
0.903014
0.894675
0.908691
0.890707
0.902214
0.910172
0.902917
0.917001
0.901757
0.906272
0.888495
0.881351
0.88223
0.86519
0.868422
0.721739
0.707253
0.71796
0.731349
0.714472
0.723725
0.739505
0.731058
0.730191
0.746998
0.738625
0.737758
0.754431
0.745888
0.745803
0.761035
0.742434
0.753376
0.766531
0.749856
0.762927
0.772042
0.75763
0.773985
0.778612
0.769712
0.790256
0.784452
0.777967
0.799896
0.788872
0.789866
0.801935
0.785154
0.807785
0.805395
0.796429
0.817538
0.795036
0.814292
0.824598
0.809917
0.831769
0.821172
0.818746
0.831414
0.814745
0.836141
0.830931
0.830336
0.84105
0.825749
0.838478
0.810164
0.813645
0.806217
0.796083
0.801214
0.71042
0.700018
0.703851
0.717636
0.707182
0.709955
0.723712
0.724172
0.716452
0.729922
0.731335
0.72364
0.736932
0.738397
0.731023
0.744054
0.733618
0.737901
0.750819
0.74042
0.745665
0.758498
0.747634
0.752295
0.766211
0.755268
0.76094
0.771892
0.761997
0.775058
0.777817
0.770233
0.782659
0.769849
0.778217
0.788753
0.777163
0.789486
0.778592
0.788138
0.800095
0.786449
0.795988
0.802838
0.794634
0.806901
0.79418
0.801744
0.812306
0.805051
0.816258
0.802855
0.805443
0.789874
0.784144
0.784679
0.772968
0.776334
0.699175
0.694876
0.689733
0.705081
0.701926
0.696574
0.710158
0.717988
0.703145
0.715767
0.724632
0.709757
0.722384
0.731306
0.715953
0.729204
0.726398
0.72066
0.734118
0.730006
0.725901
0.741963
0.735336
0.733934
0.753354
0.743785
0.747691
0.761913
0.747735
0.759129
0.770081
0.752016
0.767541
0.760012
0.762398
0.777288
0.762079
0.771962
0.769086
0.765732
0.782376
0.771337
0.778113
0.790961
0.774754
0.790015
0.780004
0.785737
0.799748
0.784062
0.798745
0.786257
0.789123
0.780678
0.763858
0.769588
0.753859
0.759286
0.644317
0.633675
0.63832
0.650305
0.639571
0.643364
0.655252
0.654889
0.6488
0.660341
0.660767
0.654633
0.665916
0.666307
0.660383
0.671427
0.660858
0.664982
0.676322
0.665908
0.67062
0.681424
0.670431
0.67512
0.687407
0.679331
0.685113
0.69267
0.683764
0.694126
0.696935
0.689848
0.700736
0.68962
0.695154
0.708169
0.696667
0.706032
0.697458
0.702117
0.714074
0.703043
0.710359
0.718128
0.709752
0.720925
0.710075
0.71729
0.725541
0.71717
0.728719
0.718321
0.716448
0.703789
0.697067
0.701436
0.690754
0.694491
0.631272
0.625253
0.62383
0.63594
0.630947
0.628909
0.640132
0.645617
0.63421
0.644782
0.650966
0.639638
0.650008
0.656138
0.644859
0.655197
0.650324
0.648824
0.65874
0.653266
0.653859
0.665042
0.657353
0.660227
0.673363
0.664246
0.670038
0.678705
0.667652
0.677048
0.685042
0.672624
0.683013
0.674946
0.679216
0.691938
0.678369
0.686596
0.681694
0.682646
0.693605
0.683766
0.691214
0.699999
0.688745
0.699467
0.689798
0.697225
0.706062
0.697507
0.706083
0.693678
0.694401
0.684231
0.67778
0.680819
0.669556
0.673482
0.581715
0.570683
0.576535
0.586889
0.575302
0.580499
0.59114
0.588466
0.584885
0.595311
0.593203
0.589513
0.599661
0.597473
0.594005
0.603752
0.592437
0.597427
0.607221
0.596564
0.601767
0.610308
0.600063
0.605929
0.614552
0.607506
0.614497
0.617736
0.610839
0.619782
0.62243
0.615851
0.624534
0.614008
0.620401
0.628138
0.619982
0.628375
0.618287
0.623826
0.633068
0.623223
0.630817
0.633881
0.628087
0.637318
0.627264
0.635975
0.6405
0.633028
0.640523
0.630223
0.632364
0.619908
0.616809
0.619529
0.611111
0.615502
0.569938
0.562864
0.564798
0.573761
0.567326
0.568598
0.57716
0.580324
0.572816
0.580871
0.58459
0.577169
0.58496
0.588582
0.581362
0.589014
0.582921
0.584714
0.591673
0.585598
0.588744
0.596394
0.588718
0.593163
0.602327
0.594617
0.599637
0.60585
0.597806
0.603788
0.609779
0.602483
0.608766
0.601221
0.605767
0.612964
0.606812
0.610599
0.604828
0.608224
0.615396
0.607217
0.61228
0.618249
0.611312
0.619677
0.612614
0.616724
0.621417
0.614954
0.62056
0.612479
0.611782
0.603395
0.600124
0.601919
0.595358
0.597397
0.51472
0.507746
0.517301
0.521583
0.512385
0.520254
0.527157
0.516115
0.523005
0.53178
0.519592
0.525849
0.535578
0.530256
0.529265
0.539068
0.53403
0.532898
0.542419
0.537295
0.536524
0.545309
0.533146
0.539384
0.547501
0.53644
0.543268
0.549192
0.539538
0.547343
0.551801
0.545652
0.554621
0.553562
0.548613
0.557935
0.553908
0.553371
0.559814
0.549637
0.558039
0.559784
0.555225
0.563621
0.551644
0.558426
0.564396
0.555713
0.564434
0.563723
0.56239
0.567216
0.557576
0.566104
0.564687
0.562305
0.567459
0.558528
0.562959
0.550146
0.550916
0.551111
0.545548
0.548671
0.499992
0.50851
0.501855
0.506089
0.51385
0.506714
0.510437
0.517677
0.510498
0.513688
0.52072
0.513925
0.516719
0.523423
0.525025
0.520154
0.526343
0.528475
0.523626
0.529572
0.531666
0.527004
0.532798
0.526686
0.529556
0.535733
0.529702
0.532542
0.539037
0.532538
0.533494
0.541927
0.535851
0.538294
0.544105
0.538374
0.542565
0.545839
0.541601
0.546134
0.539721
0.540544
0.548083
0.543018
0.547094
0.541511
0.544157
0.549896
0.544306
0.547064
0.552222
0.546125
0.550747
0.54477
0.546898
0.55196
0.546894
0.551262
0.545224
0.54399
0.537829
0.532956
0.538312
0.53177
0.532881
0.491542
0.49477
0.502732
0.496917
0.498126
0.506755
0.50208
0.501536
0.509644
0.505993
0.50462
0.512187
0.509407
0.507658
0.51469
0.51978
0.510986
0.517475
0.522823
0.51422
0.520507
0.525725
0.517279
0.523506
0.520883
0.519412
0.525421
0.522495
0.522331
0.529082
0.52408
0.525666
0.533761
0.527677
0.530751
0.536811
0.528981
0.53398
0.539692
0.532363
0.537261
0.532195
0.533931
0.539916
0.5326
0.540572
0.537286
0.535045
0.542778
0.536735
0.53957
0.543445
0.536155
0.541085
0.535558
0.538763
0.543857
0.537042
0.541698
0.535584
0.535579
0.530061
0.526529
0.528543
0.521892
0.523805
0.461554
0.456968
0.461691
0.466084
0.460269
0.464345
0.470417
0.463707
0.46731
0.47356
0.466369
0.46974
0.476019
0.468854
0.472029
0.47816
0.477824
0.474648
0.480382
0.480488
0.477217
0.482752
0.482795
0.479569
0.484965
0.47829
0.481085
0.486804
0.480438
0.483126
0.48864
0.48257
0.485314
0.491294
0.486858
0.489955
0.493211
0.488354
0.492605
0.493583
0.493133
0.495548
0.489504
0.492045
0.496558
0.491795
0.495401
0.490752
0.495614
0.497984
0.492416
0.495533
0.498036
0.493752
0.498234
0.493203
0.495828
0.498426
0.494494
0.498036
0.492933
0.493919
0.48857
0.486697
0.487001
0.482255
0.483947
0.456076
0.4507
0.454532
0.45955
0.454264
0.457488
0.462789
0.457819
0.460044
0.46504
0.46052
0.46214
0.466955
0.462956
0.464238
0.468836
0.471665
0.466709
0.470931
0.473955
0.469169
0.473233
0.476196
0.47157
0.47546
0.471827
0.47321
0.476886
0.473415
0.47547
0.479448
0.47498
0.477784
0.482807
0.478339
0.480983
0.484769
0.479923
0.482959
0.486172
0.482656
0.485746
0.480951
0.483337
0.486831
0.482694
0.485355
0.482102
0.483829
0.487399
0.483224
0.485434
0.488436
0.484574
0.487178
0.483522
0.48562
0.488466
0.484881
0.486841
0.483936
0.482054
0.477573
0.475868
0.476554
0.472926
0.473289
0.424773
0.421586
0.428265
0.42869
0.423701
0.42958
0.432484
0.425999
0.430921
0.435324
0.427737
0.432145
0.437571
0.429436
0.433527
0.439408
0.436182
0.435345
0.441129
0.438203
0.437226
0.442826
0.439817
0.439072
0.444273
0.436456
0.440439
0.445286
0.438233
0.442464
0.446237
0.440011
0.444756
0.447717
0.443562
0.448668
0.448506
0.445267
0.450288
0.448036
0.447533
0.451733
0.445244
0.449868
0.451132
0.447168
0.45195
0.445378
0.449398
0.452461
0.447351
0.451971
0.451407
0.449699
0.453045
0.447689
0.452004
0.451558
0.450012
0.453166
0.447746
0.44968
0.442923
0.443548
0.443605
0.440088
0.441901
0.420926
0.416937
0.419036
0.423723
0.419289
0.421516
0.426318
0.421696
0.423884
0.428038
0.423495
0.425586
0.429409
0.425186
0.427164
0.4307
0.432128
0.429018
0.432167
0.433895
0.430787
0.433786
0.435489
0.432452
0.435432
0.431875
0.433592
0.436971
0.433524
0.434911
0.438595
0.434997
0.43583
0.440249
0.436849
0.437862
0.44139
0.438067
0.439868
0.441998
0.43889
0.444317
0.438794
0.43907
0.442806
0.439628
0.4413
0.438822
0.439935
0.442899
0.439996
0.440886
0.443618
0.440671
0.442915
0.440065
0.440803
0.444137
0.441596
0.443083
0.439549
0.438486
0.435442
0.433338
0.434643
0.4318
0.432244
0.417197
0.412521
0.415168
0.419271
0.415243
0.416974
0.421243
0.417862
0.418621
0.42261
0.419797
0.420038
0.423856
0.421518
0.421474
0.425149
0.428064
0.423225
0.426609
0.429625
0.424906
0.428161
0.431086
0.42653
0.429656
0.42741
0.427556
0.430587
0.428363
0.42915
0.432254
0.429224
0.430936
0.43485
0.431347
0.433405
0.436331
0.432415
0.434839
0.437577
0.433865
0.436484
0.434081
0.435023
0.43759
0.434004
0.436306
0.434283
0.434706
0.437193
0.434235
0.436404
0.438804
0.435426
0.43738
0.434519
0.43697
0.438285
0.435106
0.43679
0.433881
0.433568
0.430248
0.428929
0.429526
0.426599
0.427111
0.391
0.387916
0.391149
0.393444
0.389441
0.392286
0.395639
0.391019
0.393433
0.397074
0.392157
0.394417
0.398158
0.393256
0.395394
0.399058
0.398599
0.396615
0.400008
0.399793
0.397774
0.401044
0.400798
0.398856
0.402026
0.397645
0.399541
0.402857
0.398778
0.400658
0.403688
0.399899
0.401909
0.405107
0.402277
0.404473
0.406045
0.403095
0.40571
0.405956
0.404036
0.406775
0.404862
0.405457
0.407391
0.404383
0.406696
0.403424
0.405216
0.407852
0.404593
0.4065
0.407616
0.405442
0.408368
0.405334
0.406842
0.407588
0.405548
0.407195
0.404237
0.404564
0.401108
0.400487
0.401144
0.398646
0.399773
0.387396
0.384014
0.385538
0.389039
0.385688
0.387542
0.390553
0.387356
0.388904
0.391494
0.388579
0.389938
0.392301
0.389715
0.390922
0.393092
0.394924
0.39213
0.394004
0.395986
0.393284
0.395056
0.396996
0.394408
0.396133
0.393998
0.395162
0.397172
0.39502
0.396137
0.398269
0.395929
0.396952
0.399475
0.397164
0.397649
0.400389
0.398025
0.399126
0.400958
0.398834
0.400288
0.39825
0.400817
0.401614
0.399136
0.399994
0.398552
0.399506
0.401119
0.399138
0.399696
0.401937
0.400671
0.401053
0.400066
0.399479
0.401455
0.399598
0.400402
0.398619
0.397583
0.395649
0.394498
0.394941
0.393254
0.393385
0.384026
0.379959
0.381407
0.385188
0.382018
0.382505
0.386316
0.383916
0.38355
0.38706
0.3853
0.384509
0.387772
0.386495
0.385473
0.388517
0.39133
0.386621
0.389381
0.392246
0.387709
0.390378
0.393172
0.388751
0.391355
0.390049
0.389299
0.392031
0.390497
0.390289
0.393153
0.390943
0.391633
0.395099
0.392216
0.39347
0.396256
0.39273
0.394734
0.397278
0.393569
0.395957
0.393585
0.394235
0.398218
0.394363
0.395777
0.394524
0.394434
0.39663
0.394231
0.395491
0.398243
0.394688
0.396521
0.394224
0.395404
0.397475
0.394545
0.39603
0.393556
0.393339
0.391132
0.389905
0.390844
0.388282
0.389227
0.361537
0.358859
0.360382
0.362893
0.359857
0.361181
0.364032
0.360862
0.36203
0.364675
0.361533
0.362716
0.365147
0.362175
0.363334
0.365556
0.366229
0.364125
0.366072
0.366911
0.364823
0.366689
0.367487
0.365451
0.36733
0.364871
0.36577
0.367905
0.365574
0.366348
0.368537
0.366295
0.367047
0.369687
0.367917
0.368785
0.370546
0.368348
0.369608
0.370708
0.368792
0.370455
0.368485
0.369291
0.371087
0.370226
0.370739
0.36873
0.369279
0.371976
0.370297
0.371457
0.371585
0.36965
0.371015
0.369316
0.369971
0.371178
0.369442
0.370562
0.368803
0.368499
0.366646
0.365658
0.366377
0.364669
0.365333
0.357893
0.355084
0.356877
0.358805
0.35615
0.357741
0.359645
0.357214
0.358406
0.360152
0.357964
0.35894
0.360619
0.358659
0.359474
0.361099
0.362499
0.36022
0.361682
0.363121
0.360954
0.362336
0.363718
0.361685
0.362964
0.361272
0.362015
0.363318
0.36175
0.362682
0.364064
0.362378
0.363591
0.365342
0.363657
0.364703
0.366024
0.36428
0.365294
0.366529
0.364972
0.365862
0.364382
0.36532
0.36634
0.364853
0.366859
0.366016
0.367019
0.36659
0.365042
0.366065
0.366918
0.365551
0.366301
0.365007
0.365783
0.366582
0.36534
0.36578
0.364436
0.363952
0.36221
0.361657
0.361672
0.360529
0.360836
0.338023
0.335891
0.33893
0.339413
0.336315
0.339074
0.340574
0.336796
0.339182
0.341271
0.337103
0.33929
0.341732
0.337453
0.339497
0.342062
0.340755
0.339991
0.342417
0.341312
0.340496
0.342818
0.34174
0.341034
0.343191
0.339478
0.341389
0.343461
0.340099
0.342043
0.343763
0.340796
0.342867
0.344389
0.342286
0.34438
0.34472
0.34296
0.344935
0.344472
0.343762
0.345309
0.342545
0.344501
0.34541
0.343541
0.345307
0.342415
0.344248
0.345591
0.343319
0.345104
0.345209
0.344219
0.345518
0.343278
0.34496
0.345134
0.344173
0.345093
0.343068
0.343777
0.341035
0.341391
0.341713
0.340198
0.341128
0.334913
0.332772
0.333504
0.335587
0.333339
0.33404
0.336125
0.333908
0.334627
0.336368
0.334271
0.33505
0.336547
0.33465
0.335431
0.336755
0.337665
0.335966
0.337086
0.338106
0.33646
0.337536
0.338528
0.336929
0.338018
0.336594
0.337131
0.338484
0.337113
0.337465
0.338972
0.337606
0.337826
0.339575
0.338245
0.338576
0.340033
0.338606
0.339255
0.340252
0.338805
0.339899
0.338707
0.33888
0.340341
0.339056
0.339618
0.338824
0.339007
0.340208
0.339134
0.339438
0.340467
0.339185
0.34004
0.339056
0.339267
0.3402
0.338966
0.339627
0.338581
0.338056
0.336978
0.336042
0.336624
0.335486
0.335865
0.332221
0.329829
0.331225
0.332658
0.330506
0.331642
0.333086
0.331181
0.331965
0.333329
0.331639
0.332232
0.33358
0.33208
0.332542
0.333875
0.334997
0.333045
0.334258
0.335386
0.33355
0.334699
0.335781
0.334059
0.335116
0.333803
0.334245
0.335297
0.334081
0.33473
0.335854
0.334561
0.335474
0.336806
0.335468
0.336327
0.337309
0.335931
0.336808
0.337717
0.336425
0.337239
0.33608
0.336793
0.337666
0.33641
0.337163
0.336257
0.336751
0.337679
0.336672
0.337306
0.337977
0.336908
0.337525
0.33652
0.337114
0.337707
0.336737
0.337089
0.336028
0.335696
0.334359
0.334006
0.334106
0.333248
0.333516
0.314332
0.312372
0.314173
0.315094
0.312638
0.314252
0.31567
0.312935
0.31432
0.315938
0.313096
0.314382
0.3161
0.313303
0.314522
0.316239
0.315947
0.31489
0.316455
0.316308
0.315252
0.316747
0.316611
0.315641
0.31706
0.314757
0.315865
0.317305
0.315196
0.316324
0.317621
0.315701
0.316874
0.318201
0.31679
0.31799
0.318607
0.317235
0.318423
0.318584
0.317753
0.318796
0.317067
0.318163
0.318947
0.31762
0.318674
0.317
0.317992
0.318954
0.317565
0.318604
0.319034
0.318138
0.31899
0.317613
0.31852
0.318909
0.318088
0.318689
0.317401
0.317689
0.316059
0.31602
0.316241
0.315182
0.315764
0.311425
0.309709
0.310023
0.311731
0.310079
0.310485
0.311984
0.310452
0.310922
0.312058
0.310683
0.3112
0.312133
0.31094
0.311464
0.312268
0.313204
0.311863
0.312519
0.313512
0.312243
0.312874
0.313831
0.312605
0.313246
0.312395
0.31277
0.313612
0.312785
0.313027
0.314024
0.313173
0.313217
0.314506
0.313665
0.313726
0.314911
0.313969
0.314289
0.315174
0.314146
0.314799
0.314106
0.313824
0.31517
0.314362
0.314592
0.314195
0.314348
0.315086
0.31451
0.314523
0.3154
0.314558
0.315048
0.314508
0.314433
0.315173
0.314394
0.314768
0.314138
0.313617
0.31297
0.312156
0.312547
0.311869
0.312005
0.309046
0.306952
0.307947
0.309243
0.307467
0.308175
0.309464
0.307973
0.30837
0.309576
0.308316
0.308549
0.30972
0.308648
0.308779
0.309926
0.310955
0.309175
0.310213
0.311241
0.309573
0.310562
0.311553
0.30998
0.310892
0.309924
0.310113
0.31103
0.310137
0.310548
0.311548
0.31052
0.311149
0.312306
0.311193
0.311847
0.312745
0.311552
0.312285
0.313118
0.311954
0.312688
0.311755
0.312253
0.313063
0.31205
0.312623
0.31201
0.312294
0.312982
0.312098
0.3127
0.313446
0.312518
0.313095
0.312255
0.312718
0.313147
0.312385
0.312758
0.311855
0.311689
0.310773
0.310392
0.310602
0.30983
0.31013
0.293269
0.291672
0.292632
0.293708
0.291959
0.292782
0.294027
0.292243
0.292932
0.294156
0.292411
0.293066
0.294253
0.292609
0.293244
0.294368
0.294645
0.293584
0.294576
0.294929
0.293907
0.294855
0.295194
0.294239
0.295159
0.293866
0.294431
0.295426
0.294226
0.294799
0.295754
0.294611
0.295212
0.296284
0.295407
0.296055
0.296711
0.295722
0.296429
0.296828
0.296074
0.296797
0.295803
0.296361
0.297041
0.296124
0.296787
0.295866
0.296361
0.297138
0.296249
0.296757
0.29721
0.296505
0.297077
0.296256
0.296714
0.297188
0.296483
0.296854
0.29606
0.29607
0.2951
0.294911
0.295061
0.29435
0.294694
0.290793
0.289397
0.290076
0.291021
0.289759
0.290415
0.29124
0.290124
0.290663
0.291351
0.290375
0.290858
0.291489
0.290643
0.29108
0.29168
0.292444
0.291436
0.291954
0.292726
0.291793
0.292279
0.29302
0.292146
0.292601
0.291955
0.29236
0.292898
0.29228
0.292703
0.293268
0.292634
0.293051
0.293691
0.293073
0.29344
0.294056
0.29341
0.29375
0.294342
0.293726
0.294089
0.293572
0.29391
0.294408
0.293865
0.294153
0.293752
0.294084
0.294456
0.293981
0.294238
0.294682
0.294216
0.294479
0.294073
0.294271
0.294613
0.294153
0.294263
0.29378
0.29348
0.292867
0.292551
0.292563
0.292148
0.292201
0.288566
0.286497
0.286965
0.28864
0.287119
0.287161
0.288747
0.28768
0.28738
0.288788
0.288063
0.287611
0.288875
0.2884
0.287878
0.289044
0.290378
0.288271
0.289301
0.29063
0.288644
0.289631
0.290914
0.289004
0.289951
0.289439
0.289149
0.290166
0.28957
0.289565
0.290704
0.289832
0.290093
0.291413
0.290298
0.290751
0.291903
0.290552
0.291238
0.292339
0.290893
0.291731
0.290904
0.29119
0.29222
0.291062
0.291666
0.291215
0.291272
0.292176
0.291227
0.291661
0.292559
0.291437
0.292123
0.291323
0.291746
0.292579
0.291496
0.292
0.291123
0.291093
0.290339
0.290018
0.290457
0.289549
0.289964
0.275173
0.274017
0.274331
0.275491
0.274394
0.274677
0.275756
0.274754
0.275035
0.275903
0.275009
0.275323
0.27605
0.275271
0.275596
0.276223
0.276844
0.275959
0.276476
0.277125
0.276293
0.27679
0.277408
0.276604
0.277119
0.276567
0.276802
0.277438
0.276907
0.277089
0.2778
0.277257
0.277396
0.278324
0.277902
0.278076
0.27879
0.27816
0.278467
0.27903
0.278378
0.27887
0.278428
0.278535
0.27919
0.27866
0.278898
0.278624
0.278738
0.279269
0.278889
0.279008
0.279538
0.278974
0.279326
0.27895
0.279016
0.279451
0.278933
0.279206
0.278787
0.27855
0.278126
0.277691
0.277914
0.277451
0.277637
0.27311
0.271757
0.272515
0.273387
0.272242
0.272815
0.273676
0.272711
0.273078
0.273886
0.273065
0.273321
0.274109
0.273407
0.273589
0.274362
0.275043
0.273963
0.274661
0.275337
0.274333
0.274992
0.275629
0.274683
0.275291
0.27469
0.274887
0.275496
0.27495
0.275294
0.275944
0.275322
0.275778
0.276507
0.275846
0.276305
0.27688
0.276178
0.276668
0.277202
0.276528
0.277006
0.276453
0.2768
0.277316
0.276711
0.277124
0.276709
0.276938
0.277431
0.276902
0.277235
0.277624
0.277076
0.277424
0.276944
0.277232
0.277583
0.277109
0.277332
0.276818
0.276739
0.276159
0.275958
0.276073
0.275608
0.275817
0.261579
0.260531
0.261226
0.262067
0.260948
0.261549
0.262464
0.261345
0.261855
0.262728
0.261649
0.262135
0.262965
0.261959
0.262428
0.263208
0.263507
0.262823
0.263505
0.263846
0.26319
0.263842
0.264161
0.263552
0.264184
0.263414
0.263823
0.264505
0.263792
0.264199
0.264857
0.264176
0.264596
0.265332
0.264811
0.265259
0.26574
0.265145
0.265625
0.265954
0.265492
0.265983
0.265403
0.265787
0.266261
0.265726
0.266142
0.265646
0.265988
0.266453
0.265962
0.266332
0.266675
0.266266
0.266628
0.266161
0.266457
0.266707
0.266324
0.266553
0.266109
0.266107
0.265564
0.265465
0.26558
0.265183
0.265404
0.259625
0.258709
0.259377
0.260016
0.259188
0.2598
0.260392
0.259653
0.260153
0.260684
0.260028
0.260463
0.260978
0.260395
0.260779
0.261289
0.261803
0.261176
0.261634
0.262136
0.261558
0.261984
0.262457
0.261926
0.262317
0.26186
0.262177
0.262567
0.262188
0.262579
0.263002
0.262605
0.263029
0.263517
0.263126
0.263492
0.263879
0.26348
0.26381
0.264186
0.263826
0.26412
0.263777
0.264081
0.264417
0.264079
0.264364
0.264073
0.264314
0.264617
0.264313
0.264553
0.264843
0.264553
0.264727
0.264442
0.264673
0.264848
0.264591
0.264693
0.264385
0.264282
0.263861
0.263746
0.263762
0.263514
0.263611
0.249845
0.248939
0.249987
0.250518
0.249372
0.250332
0.251072
0.249803
0.250646
0.251473
0.250162
0.250945
0.251814
0.250533
0.251269
0.252137
0.252122
0.251706
0.252491
0.252531
0.252117
0.25286
0.252908
0.252536
0.253227
0.252215
0.252865
0.253565
0.252656
0.253301
0.253927
0.253111
0.253759
0.254377
0.25378
0.254413
0.254759
0.25422
0.254807
0.254985
0.254669
0.255167
0.254464
0.255037
0.255441
0.254913
0.255431
0.254747
0.255286
0.255754
0.255194
0.255698
0.255939
0.255601
0.255991
0.255452
0.25588
0.256107
0.255785
0.256053
0.255565
0.255729
0.255076
0.255177
0.255331
0.254939
0.255226
0.248009
0.247309
0.24753
0.248472
0.247838
0.248175
0.24891
0.248343
0.248688
0.249258
0.248764
0.249113
0.249596
0.249181
0.249518
0.249945
0.250478
0.249972
0.250328
0.250866
0.250395
0.250733
0.251245
0.250802
0.251136
0.250857
0.25112
0.251523
0.251256
0.251483
0.251939
0.251665
0.251751
0.252368
0.2521
0.252228
0.252768
0.25246
0.25267
0.253106
0.252772
0.253081
0.252867
0.252912
0.253438
0.253191
0.253359
0.253246
0.253397
0.25374
0.253544
0.253622
0.254016
0.253746
0.253966
0.253792
0.253822
0.254157
0.2539
0.254054
0.253853
0.253688
0.253477
0.253174
0.253415
0.253211
0.253311
0.246592
0.245548
0.246093
0.24701
0.246192
0.246549
0.247424
0.246797
0.24698
0.247776
0.247295
0.247388
0.248128
0.247761
0.247801
0.248499
0.249208
0.24828
0.248896
0.249587
0.24872
0.249306
0.249972
0.249155
0.249707
0.249371
0.249473
0.250046
0.249707
0.249927
0.250543
0.250112
0.250427
0.251105
0.250598
0.250957
0.251546
0.250972
0.251393
0.251952
0.251365
0.251815
0.251423
0.251689
0.252222
0.251736
0.252097
0.251856
0.25201
0.252478
0.252094
0.252363
0.252816
0.252367
0.252708
0.252364
0.252607
0.252993
0.252572
0.252819
0.252453
0.252476
0.252104
0.252045
0.25227
0.251906
0.25216
0.238013
0.237409
0.237767
0.238562
0.237987
0.2383
0.239058
0.238534
0.238821
0.239473
0.239007
0.239302
0.239875
0.239472
0.239767
0.240279
0.240729
0.240273
0.240711
0.241166
0.24074
0.241161
0.241592
0.241188
0.241606
0.241326
0.241557
0.242037
0.24177
0.241981
0.242482
0.24221
0.242414
0.243005
0.242797
0.243029
0.24349
0.243181
0.243475
0.24385
0.243551
0.243921
0.243704
0.243893
0.244315
0.244058
0.244311
0.244167
0.244349
0.244711
0.244507
0.244708
0.245023
0.244778
0.245051
0.244868
0.245019
0.245287
0.245062
0.245263
0.245059
0.245043
0.244831
0.24472
0.24488
0.244671
0.244847
0.236712
0.236023
0.236605
0.23724
0.236657
0.237138
0.237756
0.237266
0.23763
0.238212
0.237798
0.238095
0.238658
0.238309
0.238559
0.239107
0.2396
0.239067