/*--------------------------------*- C++ -*----------------------------------*\
| =========                 |                                                 |
| \\      /  F ield         | OpenFOAM: The Open Source CFD Toolbox           |
|  \\    /   O peration     | Version:  v2012                                 |
|   \\  /    A nd           | Website:  www.openfoam.com                      |
|    \\/     M anipulation  |                                                 |
\*---------------------------------------------------------------------------*/
FoamFile
{
    version     2.0;
    format      ascii;
    class       volScalarField;
    location    "1e-06";
    object      kMean;
}
// * * * * * * * * * * * * * * * * * * * * * * * * * * * * * * * * * * * * * //

dimensions      [0 2 -2 0 0 0 0];


internalField   nonuniform List<scalar> 
10295
(
1.76678
1.80033
1.76427
1.80057
1.84403
1.8059
1.83904
1.9027
1.85019
1.88316
1.94243
1.88827
1.91499
1.9732
1.91419
1.94331
1.99216
2.01511
1.99034
1.99442
1.96633
2.02306
2.06451
2.22213
2.04849
2.1003
2.41999
2.13243
2.10047
2.10155
2.11464
2.07884
2.10272
2.09881
2.26703
2.09479
2.0621
2.09731
2.129
2.08793
2.13356
2.12766
2.18324
2.19271
2.13318
2.18712
2.18732
2.392
2.26373
2.20261
2.27257
2.2631
2.29196
2.28206
2.43027
2.25924
2.21148
2.33971
1.61079
1.58628
1.59936
1.64735
1.61681
1.63137
1.68574
1.67428
1.66589
1.72596
1.70903
1.69939
1.75522
1.736
1.72585
1.77934
1.74014
1.75169
1.79686
1.76159
1.77984
1.82226
1.79163
1.76416
1.83668
1.8182
1.79477
1.86537
1.84164
1.95092
1.88574
1.87082
1.93103
1.88453
1.87459
1.93811
1.90639
1.98736
1.92154
1.93862
1.98563
1.94757
2.03934
1.9994
1.97785
2.04173
1.99646
2.10208
2.06014
2.04029
2.11848
2.07466
2.18695
2.07581
2.01661
2.07044
2.03126
2.16429
1.39773
1.38244
1.39588
1.42614
1.40664
1.41989
1.45619
1.44841
1.44507
1.4858
1.47742
1.47381
1.51345
1.50157
1.49969
1.53407
1.51302
1.52992
1.55714
1.53364
1.55574
1.57512
1.55564
1.58817
1.59236
1.58133
1.64753
1.62065
1.60571
1.65966
1.637
1.63697
1.67495
1.64272
1.63818
1.68501
1.66953
1.7306
1.67995
1.71027
1.73144
1.70529
1.78782
1.74074
1.73859
1.77304
1.74159
1.83057
1.7886
1.79129
1.84217
1.8166
1.90752
1.8225
1.80456
1.78932
1.76551
1.8269
1.38473
1.37387
1.3771
1.40981
1.39768
1.40306
1.43591
1.43927
1.42836
1.46269
1.46708
1.45632
1.48955
1.4923
1.47862
1.51341
1.49797
1.50001
1.53431
1.51971
1.51503
1.55552
1.5402
1.53223
1.57521
1.56242
1.56718
1.61491
1.58102
1.61552
1.6198
1.59544
1.63944
1.62018
1.6162
1.65685
1.64251
1.67276
1.65331
1.65132
1.69659
1.675
1.68688
1.71381
1.68843
1.7359
1.71126
1.72505
1.75994
1.73299
1.80431
1.77927
1.82385
1.7843
1.72967
1.75053
1.71247
1.76872
1.27379
1.26515
1.26932
1.2947
1.28451
1.28967
1.31682
1.31737
1.30948
1.33851
1.34141
1.33369
1.36395
1.36532
1.35702
1.38626
1.37361
1.37758
1.4024
1.38994
1.39541
1.42062
1.40762
1.41046
1.43562
1.42869
1.43871
1.47543
1.44897
1.48006
1.50076
1.4686
1.4987
1.49575
1.49134
1.51642
1.50278
1.53756
1.51556
1.52141
1.55157
1.5337
1.55793
1.56569
1.55054
1.58412
1.5636
1.57365
1.60477
1.59052
1.64478
1.62417
1.66903
1.63012
1.59066
1.5831
1.5555
1.58206
1.18307
1.17362
1.18131
1.20172
1.19
1.19689
1.2215
1.21775
1.21299
1.23988
1.23847
1.23391
1.26282
1.25933
1.25667
1.28203
1.26859
1.27969
1.29911
1.28428
1.29895
1.31378
1.30133
1.32099
1.32986
1.32115
1.35577
1.35155
1.34108
1.37226
1.36883
1.36371
1.38298
1.36962
1.39445
1.39596
1.38526
1.42489
1.39433
1.41116
1.42695
1.41073
1.44983
1.43639
1.43346
1.4547
1.43517
1.47373
1.46879
1.46836
1.50365
1.485
1.53811
1.48764
1.46936
1.44253
1.42439
1.43309
1.17355
1.16777
1.16826
1.18973
1.18381
1.18506
1.20675
1.21136
1.20124
1.22336
1.23116
1.22114
1.2455
1.2528
1.24187
1.26729
1.25957
1.26013
1.28387
1.2753
1.27338
1.30019
1.29072
1.29158
1.31842
1.30944
1.32488
1.3413
1.32536
1.34585
1.35473
1.33857
1.3638
1.35319
1.37662
1.37925
1.36446
1.38763
1.38381
1.37743
1.40506
1.3906
1.40728
1.41782
1.40071
1.42887
1.41355
1.43172
1.44902
1.43159
1.478
1.46084
1.485
1.46085
1.42398
1.41604
1.39302
1.40311
1.10154
1.0932
1.09674
1.1171
1.10735
1.11008
1.13276
1.13181
1.12381
1.14773
1.14908
1.14134
1.16716
1.16817
1.16085
1.18591
1.1746
1.1807
1.20171
1.189
1.19706
1.21541
1.20385
1.21209
1.231
1.22206
1.23381
1.25069
1.23914
1.26287
1.26243
1.26549
1.27703
1.26192
1.27548
1.28946
1.27633
1.30245
1.28733
1.29646
1.31456
1.29864
1.32028
1.32262
1.31422
1.3358
1.31824
1.34028
1.35125
1.34419
1.37321
1.35475
1.38039
1.34971
1.32417
1.31461
1.29456
1.29978
1.09168
1.08736
1.08427
1.10471
1.10112
1.09898
1.11796
1.12519
1.11284
1.13146
1.14182
1.12936
1.15018
1.16092
1.14674
1.17004
1.16732
1.16189
1.18541
1.18034
1.17259
1.20142
1.19381
1.18645
1.21907
1.21076
1.21574
1.24074
1.2254
1.2388
1.25148
1.23785
1.25861
1.24956
1.24631
1.27505
1.25847
1.27403
1.27241
1.27079
1.3004
1.28669
1.28913
1.30684
1.28901
1.31633
1.30419
1.31159
1.33171
1.30848
1.34711
1.33162
1.34111
1.32813
1.28632
1.29506
1.26497
1.27095
1.02178
1.01308
1.01513
1.03488
1.02546
1.02696
1.04741
1.04771
1.03875
1.05985
1.06229
1.05329
1.07585
1.07842
1.06948
1.09216
1.08165
1.08466
1.10546
1.09473
1.10047
1.1196
1.10734
1.1167
1.13397
1.1252
1.1376
1.15205
1.14714
1.16067
1.16316
1.15528
1.17635
1.16205
1.17257
1.1956
1.17438
1.19451
1.18299
1.18849
1.2093
1.19433
1.20958
1.22114
1.20467
1.22548
1.20956
1.22146
1.23697
1.2254
1.25243
1.23477
1.24677
1.22555
1.2076
1.19709
1.1766
1.18051
0.949317
0.936309
0.946741
0.963019
0.947888
0.956195
0.975628
0.968806
0.966301
0.987741
0.981514
0.979561
1.00145
0.995205
0.994463
1.0147
0.996666
1.0099
1.02663
1.00978
1.02672
1.03776
1.02324
1.04549
1.05014
1.04009
1.07031
1.06292
1.05839
1.08292
1.07179
1.07473
1.09439
1.0717
1.09712
1.0965
1.0891
1.11552
1.08867
1.10629
1.11703
1.10104
1.13202
1.1201
1.11894
1.13364
1.1149
1.14577
1.13698
1.13786
1.15457
1.13725
1.16057
1.12587
1.11746
1.10035
1.08814
1.09018
0.938989
0.930187
0.931928
0.950624
0.941447
0.942308
0.961209
0.962334
0.952435
0.971939
0.974582
0.964825
0.985263
0.988014
0.978204
0.999045
0.988626
0.991213
1.01069
0.999817
1.00539
1.02371
1.01139
1.02147
1.03839
1.02669
1.04113
1.05219
1.042
1.05858
1.06171
1.0523
1.07704
1.05782
1.07081
1.08114
1.0727
1.087
1.07396
1.08049
1.09741
1.08201
1.09677
1.10394
1.09293
1.111
1.09502
1.11063
1.12027
1.11033
1.13163
1.11437
1.12722
1.10208
1.08663
1.08001
1.0623
1.06578
0.871786
0.85807
0.868307
0.884153
0.868311
0.876657
0.895159
0.888032
0.885512
0.905562
0.898791
0.896565
0.916935
0.91013
0.908837
0.927927
0.909362
0.921638
0.937815
0.920229
0.935447
0.946944
0.931528
0.951213
0.957396
0.946731
0.972513
0.967806
0.962137
0.986361
0.976151
0.976601
0.993638
0.974676
0.996354
0.997516
0.988936
1.01464
0.988691
1.00444
1.01611
0.999611
1.02531
1.01742
1.01519
1.03013
1.01155
1.03757
1.03245
1.03111
1.05023
1.03326
1.04652
1.01281
1.00862
0.997907
0.986121
0.992714
0.860676
0.85115
0.852968
0.870811
0.861269
0.861938
0.879741
0.881057
0.870824
0.888886
0.89143
0.881154
0.899668
0.902467
0.892241
0.911054
0.900632
0.902995
0.920705
0.909477
0.914853
0.931775
0.919063
0.928768
0.944951
0.932496
0.945365
0.956572
0.945335
0.962582
0.965625
0.955379
0.974776
0.961972
0.972203
0.982174
0.967771
0.990881
0.97396
0.979825
0.995759
0.980095
0.993754
1.00147
0.990345
1.00705
0.991826
1.00604
1.01963
1.00963
1.02399
1.00657
1.01237
0.993632
0.982054
0.978405
0.965549
0.965951
0.794892
0.780375
0.791135
0.805929
0.789023
0.798211
0.815495
0.807408
0.805656
0.824386
0.816472
0.814819
0.833673
0.825617
0.824805
0.842334
0.822918
0.835003
0.849899
0.831804
0.846398
0.857028
0.841343
0.859824
0.865279
0.854501
0.877628
0.873066
0.866309
0.891653
0.87972
0.880236
0.89457
0.88113
0.897876
0.898646
0.888647
0.913089
0.890362
0.903925
0.915162
0.89881
0.92244
0.915529
0.913289
0.927998
0.912586
0.937075
0.928839
0.927067
0.940333
0.923384
0.93799
0.90692
0.905906
0.898894
0.888269
0.892082
0.783703
0.773287
0.776272
0.792378
0.781946
0.783722
0.799844
0.800542
0.791115
0.80734
0.809193
0.799756
0.816082
0.818037
0.80882
0.825111
0.81405
0.817449
0.832584
0.820824
0.826999
0.841589
0.828821
0.838169
0.852712
0.840213
0.850796
0.861887
0.849839
0.86953
0.869423
0.859984
0.875718
0.863148
0.873019
0.883114
0.869099
0.884651
0.876861
0.880998
0.894965
0.879874
0.890917
0.903123
0.893493
0.908265
0.890487
0.90171
0.911359
0.902607
0.917249
0.90142
0.90548
0.888153
0.880673
0.882523
0.864983
0.868581
0.720689
0.705482
0.717116
0.730469
0.712635
0.722799
0.73877
0.729298
0.72899
0.746352
0.73682
0.736535
0.753809
0.744037
0.744607
0.760342
0.740327
0.752737
0.765823
0.747678
0.762445
0.771042
0.755542
0.773916
0.776624
0.766364
0.789128
0.781747
0.775697
0.799022
0.786287
0.787937
0.800243
0.782307
0.806065
0.802454
0.79338
0.815722
0.791012
0.810788
0.820424
0.804972
0.828515
0.816518
0.815051
0.827888
0.810321
0.83357
0.826306
0.826458
0.837228
0.821104
0.835359
0.804979
0.809783
0.801552
0.791805
0.797555
0.710961
0.70002
0.704168
0.718187
0.707181
0.710254
0.72426
0.724453
0.716506
0.730473
0.731643
0.723683
0.737511
0.738695
0.731039
0.744656
0.733453
0.738211
0.751607
0.740075
0.746098
0.759101
0.747071
0.752455
0.766301
0.754199
0.760192
0.771975
0.761356
0.774968
0.777729
0.769669
0.782649
0.769171
0.777408
0.788701
0.776386
0.788994
0.778053
0.787234
0.799434
0.785301
0.794937
0.802605
0.793832
0.806526
0.793278
0.800539
0.812131
0.804093
0.81579
0.801819
0.803974
0.788652
0.782603
0.784097
0.771983
0.775612
0.700636
0.69606
0.690454
0.706417
0.703207
0.697383
0.711496
0.719593
0.703789
0.717148
0.726335
0.710415
0.723857
0.733091
0.716551
0.730829
0.727882
0.721677
0.736824
0.732209
0.727473
0.744767
0.737307
0.735687
0.754779
0.743884
0.748178
0.763055
0.747671
0.759839
0.771175
0.751615
0.768205
0.760104
0.762247
0.777905
0.761817
0.772422
0.770033
0.765913
0.78337
0.771653
0.7784
0.792082
0.774339
0.790646
0.78014
0.786318
0.800967
0.783739
0.799607
0.786225
0.789277
0.780908
0.763544
0.770343
0.75368
0.759925
0.643601
0.632281
0.637578
0.649643
0.638114
0.642555
0.654616
0.65364
0.647724
0.659714
0.65952
0.653536
0.665294
0.665037
0.659298
0.670807
0.659273
0.664412
0.675907
0.6643
0.669988
0.680962
0.669117
0.674603
0.686241
0.676552
0.683316
0.69085
0.68175
0.692889
0.695114
0.68805
0.699317
0.687303
0.693261
0.705938
0.694097
0.704005
0.694344
0.699855
0.711703
0.700005
0.707823
0.71503
0.70678
0.718186
0.706657
0.714251
0.722125
0.713829
0.725638
0.714535
0.713049
0.699706
0.693526
0.698099
0.687331
0.691302
0.632331
0.62612
0.624513
0.637012
0.631896
0.629641
0.641226
0.646894
0.634763
0.645919
0.652322
0.640219
0.651219
0.657562
0.645437
0.656533
0.651422
0.649911
0.660912
0.654819
0.655278
0.667008
0.658691
0.661768
0.674209
0.664014
0.670375
0.679519
0.667441
0.677569
0.685687
0.672322
0.683408
0.67482
0.679428
0.692074
0.677955
0.686867
0.681896
0.682876
0.694235
0.683824
0.691581
0.700504
0.688521
0.69968
0.689808
0.697596
0.706659
0.69738
0.706446
0.693533
0.694459
0.684241
0.677649
0.681042
0.66927
0.673569
0.581132
0.5695
0.575919
0.586367
0.574049
0.579845
0.590649
0.587354
0.583997
0.594834
0.592088
0.588605
0.599194
0.596346
0.593102
0.603286
0.591065
0.596956
0.60688
0.595152
0.601269
0.610043
0.599023
0.605608
0.61353
0.605188
0.613036
0.616063
0.609119
0.618735
0.621047
0.6142
0.623324
0.61207
0.618942
0.626343
0.617833
0.626812
0.615877
0.621861
0.631088
0.620699
0.628827
0.631431
0.625616
0.635156
0.62444
0.633699
0.637688
0.629945
0.637812
0.627055
0.629673
0.616606
0.613993
0.616839
0.608206
0.613089
0.570802
0.563535
0.565479
0.574621
0.56805
0.569313
0.578029
0.581363
0.573357
0.581764
0.58569
0.57774
0.585899
0.589728
0.581975
0.590011
0.583663
0.585696
0.593291
0.586565
0.589902
0.597789
0.589663
0.594336
0.602834
0.594318
0.599713
0.606221
0.597619
0.604027
0.610111
0.602337
0.60897
0.60107
0.605878
0.613158
0.606349
0.610591
0.604876
0.608383
0.615612
0.607225
0.612555
0.61881
0.611408
0.620011
0.612632
0.616842
0.621921
0.614903
0.620682
0.612299
0.611622
0.60331
0.600033
0.601971
0.595337
0.59771
0.513997
0.506915
0.516963
0.520984
0.511453
0.519834
0.526662
0.515091
0.52253
0.531377
0.518494
0.525338
0.535237
0.529236
0.528555
0.538764
0.532999
0.532178
0.542137
0.536255
0.535815
0.545023
0.531985
0.539103
0.547261
0.535314
0.543078
0.548984
0.53863
0.547364
0.550886
0.543752
0.553667
0.552054
0.547181
0.557175
0.552419
0.552186
0.558863
0.548014
0.557076
0.558405
0.553493
0.562517
0.549654
0.557061
0.562942
0.553679
0.563107
0.56163
0.560314
0.565424
0.555118
0.564487
0.562335
0.560175
0.565595
0.556198
0.56129
0.547614
0.54905
0.549086
0.543421
0.546724
0.499915
0.508758
0.501795
0.506179
0.514092
0.506638
0.510571
0.517903
0.51041
0.513832
0.520931
0.513831
0.516861
0.523613
0.525155
0.5201
0.526516
0.528615
0.52355
0.529737
0.531778
0.526877
0.532956
0.526453
0.529669
0.536002
0.529399
0.532601
0.53923
0.5322
0.533356
0.541939
0.535221
0.537831
0.543999
0.537879
0.542301
0.545725
0.541143
0.545951
0.539278
0.540087
0.54805
0.542507
0.546636
0.541069
0.543838
0.549661
0.543819
0.546547
0.552007
0.545536
0.550445
0.544348
0.546364
0.551808
0.54636
0.550907
0.544724
0.543316
0.537366
0.532169
0.538148
0.531255
0.532442
0.491918
0.495334
0.503427
0.497365
0.498608
0.507471
0.502604
0.501983
0.510369
0.506583
0.505073
0.512927
0.510054
0.50813
0.515446
0.520672
0.511309
0.518259
0.523771
0.514555
0.52133
0.526708
0.517597
0.52436
0.521486
0.520062
0.52675
0.523235
0.523079
0.530196
0.524819
0.526455
0.534175
0.527445
0.530906
0.537108
0.528811
0.534211
0.540054
0.532172
0.537439
0.5321
0.53409
0.540231
0.532759
0.540768
0.537158
0.535007
0.542937
0.536505
0.539806
0.543824
0.536027
0.541443
0.53569
0.539096
0.544299
0.537091
0.541935
0.535484
0.535631
0.530066
0.526623
0.52892
0.521934
0.524156
0.461043
0.456407
0.461314
0.465646
0.459635
0.463946
0.470032
0.463007
0.466906
0.473199
0.465616
0.469326
0.475672
0.468067
0.471605
0.477816
0.477164
0.474057
0.48004
0.479834
0.476618
0.482422
0.48215
0.478992
0.484686
0.477583
0.480837
0.48668
0.479803
0.482913
0.488594
0.482005
0.485091
0.490721
0.485452
0.488946
0.492218
0.48723
0.491824
0.492582
0.492306
0.494647
0.48831
0.491118
0.495556
0.490423
0.494387
0.489441
0.494398
0.496802
0.491019
0.494224
0.496646
0.49235
0.496944
0.491585
0.494454
0.496924
0.492832
0.496655
0.491328
0.492609
0.486999
0.485328
0.485491
0.480646
0.482515
0.456593
0.450997
0.454946
0.460073
0.45459
0.45793
0.463317
0.458189
0.46049
0.465559
0.460922
0.462593
0.467476
0.46339
0.464707
0.469361
0.472315
0.467044
0.471468
0.474656
0.469516
0.473776
0.476882
0.471906
0.476019
0.472206
0.473826
0.477776
0.473865
0.476116
0.480207
0.475472
0.47837
0.483004
0.478098
0.481004
0.484867
0.479757
0.482999
0.486297
0.482397
0.48572
0.480848
0.483406
0.486923
0.482508
0.485318
0.482163
0.484018
0.48738
0.483088
0.485468
0.488571
0.484517
0.487229
0.483438
0.485646
0.488544
0.484797
0.486903
0.484053
0.482136
0.477746
0.476053
0.476701
0.472965
0.473395
0.424298
0.421133
0.428111
0.42828
0.423187
0.429374
0.432146
0.425417
0.430666
0.435052
0.427104
0.431865
0.437353
0.428764
0.433233
0.439227
0.435589
0.434916
0.440971
0.437602
0.436796
0.442684
0.439244
0.438677
0.444154
0.43583
0.440331
0.445257
0.43767
0.442434
0.446198
0.439497
0.444757
0.447205
0.442412
0.448029
0.44762
0.444326
0.449778
0.447126
0.446723
0.451179
0.4442
0.449252
0.450351
0.446236
0.451397
0.44422
0.448578
0.451779
0.44631
0.451284
0.450395
0.448692
0.452204
0.446527
0.45121
0.450486
0.448945
0.452283
0.446456
0.448709
0.441482
0.442457
0.442532
0.438923
0.440945
0.421022
0.416901
0.419016
0.423855
0.419237
0.421532
0.426448
0.421632
0.423932
0.428145
0.423423
0.425644
0.429498
0.425108
0.427224
0.430768
0.432194
0.428938
0.43221
0.433954
0.43069
0.433832
0.435537
0.432334
0.435482
0.431719
0.433621
0.437083
0.433312
0.434882
0.438684
0.43479
0.43575
0.440209
0.436468
0.437559
0.441285
0.437733
0.439698
0.441912
0.438609
0.44439
0.438382
0.438818
0.442733
0.43936
0.441097
0.438621
0.43979
0.442865
0.439747
0.440635
0.443503
0.44035
0.442727
0.43982
0.440539
0.44415
0.441396
0.442941
0.439281
0.438152
0.435185
0.43297
0.434468
0.431523
0.432023
0.417599
0.412735
0.415525
0.419678
0.415491
0.417314
0.421662
0.418156
0.418941
0.423031
0.420122
0.420352
0.424294
0.421872
0.4218
0.42559
0.428576
0.423431
0.427045
0.430132
0.425114
0.428609
0.431602
0.426734
0.430117
0.427709
0.427998
0.431288
0.428698
0.429623
0.432895
0.429572
0.431362
0.435013
0.431176
0.433478
0.436435
0.43224
0.434932
0.437679
0.433715
0.436577
0.434054
0.43503
0.437676
0.433908
0.436417
0.434281
0.434959
0.437533
0.434342
0.436518
0.438866
0.435371
0.437592
0.434578
0.437343
0.438577
0.435232
0.436979
0.43392
0.433709
0.43029
0.42903
0.429699
0.426658
0.427342
0.390691
0.387568
0.390944
0.393183
0.389054
0.392056
0.395412
0.39059
0.393192
0.396868
0.391702
0.394173
0.397964
0.392782
0.395145
0.398874
0.398222
0.396261
0.399834
0.399443
0.397426
0.40089
0.40047
0.398533
0.401907
0.397249
0.399412
0.402819
0.398423
0.400555
0.403657
0.399555
0.401798
0.404751
0.401424
0.403867
0.405417
0.40237
0.405194
0.405335
0.403374
0.406253
0.404246
0.404878
0.406807
0.403661
0.406183
0.40269
0.404548
0.407187
0.403786
0.405929
0.406958
0.404694
0.407791
0.404507
0.406048
0.40675
0.404621
0.406424
0.403339
0.403795
0.400189
0.399684
0.400376
0.39778
0.39898
0.387474
0.383981
0.385564
0.389131
0.385646
0.387603
0.390634
0.387311
0.388968
0.391562
0.388529
0.389996
0.392358
0.389661
0.390972
0.393134
0.39498
0.392072
0.394039
0.396042
0.393215
0.395086
0.397043
0.394324
0.396159
0.393893
0.395199
0.397222
0.394873
0.396152
0.398302
0.395792
0.396937
0.399417
0.396897
0.397454
0.400308
0.397798
0.398995
0.400919
0.398628
0.40019
0.398088
0.400868
0.401504
0.398928
0.39987
0.398411
0.399425
0.401034
0.399017
0.399623
0.401955
0.400628
0.40093
0.399994
0.3993
0.401404
0.399438
0.40029
0.398478
0.397412
0.3955
0.394348
0.394833
0.393117
0.393254
0.38434
0.380103
0.381648
0.38551
0.382198
0.382718
0.386649
0.384139
0.383747
0.387398
0.385545
0.384698
0.388112
0.386754
0.385663
0.388851
0.39171
0.386727
0.389717
0.392634
0.387816
0.390719
0.393562
0.38885
0.391711
0.390284
0.389595
0.392552
0.390749
0.390625
0.393657
0.391174
0.3919
0.395239
0.392063
0.393499
0.396347
0.392575
0.394789
0.397372
0.393442
0.396012
0.393545
0.394395
0.398462
0.394202
0.395777
0.394476
0.39444
0.396842
0.394216
0.395648
0.398526
0.394696
0.396707
0.394236
0.395526
0.39764
0.394518
0.396164
0.393544
0.393436
0.391161
0.38995
0.391007
0.388318
0.389393
0.361331
0.358598
0.360192
0.362716
0.359572
0.360986
0.363866
0.360549
0.361836
0.364511
0.361213
0.362527
0.364985
0.361856
0.36315
0.365396
0.365999
0.36386
0.36592
0.366704
0.364569
0.366558
0.367304
0.365214
0.367232
0.364624
0.365667
0.367872
0.365353
0.366247
0.368507
0.366073
0.366923
0.369421
0.367294
0.368279
0.370082
0.36779
0.36918
0.370237
0.368239
0.370044
0.367933
0.368749
0.370625
0.369796
0.370311
0.368201
0.368825
0.371579
0.369782
0.370965
0.370963
0.368995
0.370473
0.368685
0.369426
0.370615
0.368801
0.369993
0.368161
0.367893
0.365994
0.365035
0.365792
0.36402
0.364758
0.358123
0.355219
0.357084
0.359036
0.356298
0.357956
0.359871
0.357372
0.358622
0.360376
0.358131
0.359156
0.360845
0.358835
0.359694
0.361321
0.362767
0.360364
0.361901
0.363387
0.361095
0.362553
0.363983
0.361819
0.363188
0.361431
0.36231
0.363664
0.361942
0.362995
0.364376
0.362553
0.363808
0.365391
0.363555
0.364708
0.366037
0.364199
0.365307
0.366567
0.364901
0.365909
0.364348
0.365382
0.36645
0.364893
0.367063
0.366095
0.367033
0.366589
0.365064
0.366094
0.36697
0.365562
0.366353
0.365012
0.365852
0.366659
0.365366
0.365841
0.364455
0.364001
0.362243
0.361704
0.361769
0.360595
0.360901
0.337826
0.335673
0.338858
0.339252
0.336066
0.33899
0.340449
0.336525
0.339082
0.341172
0.336814
0.339182
0.341651
0.337155
0.339386
0.341996
0.340533
0.339809
0.342363
0.341109
0.340324
0.342779
0.341553
0.340886
0.343167
0.339223
0.34137
0.343478
0.339864
0.34205
0.343758
0.34057
0.342856
0.344167
0.341754
0.344052
0.344324
0.342503
0.344646
0.344061
0.343364
0.344997
0.342061
0.344187
0.345006
0.343035
0.344978
0.341909
0.34396
0.345248
0.34283
0.344807
0.344834
0.343797
0.345174
0.342789
0.344608
0.344718
0.343713
0.344701
0.342557
0.343381
0.340477
0.340965
0.341271
0.339694
0.340734
0.334951
0.332739
0.333484
0.335632
0.3333
0.334023
0.336165
0.333864
0.33462
0.336394
0.334223
0.33505
0.336565
0.334599
0.335433
0.336762
0.337682
0.335901
0.337088
0.338121
0.336388
0.337534
0.338535
0.336845
0.338015
0.336515
0.337109
0.338492
0.337018
0.33743
0.338989
0.337513
0.337772
0.339535
0.338073
0.338437
0.33996
0.338442
0.339147
0.340182
0.338642
0.339811
0.338582
0.338777
0.340281
0.338929
0.339509
0.3387
0.338944
0.34016
0.339029
0.339346
0.340423
0.339061
0.339975
0.338957
0.33917
0.340147
0.338833
0.33955
0.338475
0.337936
0.336886
0.33591
0.336539
0.335361
0.335777
0.332398
0.329926
0.331393
0.332834
0.330611
0.331809
0.333264
0.331297
0.332127
0.333508
0.331762
0.33239
0.333762
0.332207
0.3327
0.334053
0.335193
0.333143
0.334433
0.335581
0.333646
0.334875
0.335977
0.334155
0.335301
0.333928
0.334478
0.335587
0.334245
0.334985
0.336106
0.33469
0.335641
0.336854
0.3354
0.336355
0.337335
0.335876
0.336842
0.337753
0.336391
0.337276
0.336046
0.336839
0.337712
0.33642
0.337263
0.336287
0.336847
0.337726
0.336621
0.337341
0.338032
0.336925
0.337598
0.336547
0.337191
0.337782
0.336771
0.337164
0.336053
0.33578
0.334431
0.33407
0.334186
0.333274
0.333595
0.314198
0.3122
0.314095
0.314985
0.31245
0.314165
0.315578
0.312734
0.314227
0.315857
0.312889
0.314289
0.31603
0.313096
0.314432
0.316179
0.315811
0.314744
0.316404
0.316187
0.315115
0.316707
0.316503
0.315517
0.317031
0.314584
0.315833
0.317306
0.315037
0.316297
0.317607
0.31554
0.316838
0.318028
0.316385
0.317704
0.318305
0.316871
0.318165
0.318277
0.317414
0.318532
0.316704
0.317901
0.318678
0.317264
0.318423
0.316651
0.317734
0.318727
0.317233
0.318342
0.318738
0.317798
0.318707
0.317244
0.318234
0.318598
0.317724
0.318369
0.317014
0.317346
0.315624
0.31568
0.315918
0.314825
0.315456
0.311454
0.309681
0.310006
0.311764
0.310049
0.310476
0.312009
0.31042
0.310921
0.312073
0.310649
0.311203
0.312142
0.310905
0.311467
0.312268
0.313218
0.311813
0.312513
0.313524
0.312187
0.312864
0.313837
0.312539
0.313234
0.312341
0.312756
0.313615
0.312724
0.313001
0.314029
0.31311
0.313174
0.314477
0.313546
0.313623
0.31486
0.313855
0.314209
0.315125
0.314033
0.314739
0.314023
0.313734
0.315142
0.31429
0.314548
0.314145
0.314302
0.315073
0.31444
0.314459
0.315373
0.314473
0.315003
0.314441
0.314367
0.315161
0.314312
0.314716
0.314071
0.313527
0.312903
0.312068
0.312499
0.311796
0.31195
0.309183
0.307016
0.308071
0.30938
0.307539
0.308293
0.309603
0.308054
0.308479
0.309715
0.3084
0.308652
0.309858
0.308734
0.30888
0.310058
0.311095
0.309228
0.310341
0.311381
0.309625
0.310692
0.311696
0.310034
0.311035
0.310019
0.310285
0.31127
0.310259
0.310724
0.311737
0.310605
0.311264
0.312347
0.311133
0.311867
0.31277
0.311501
0.312315
0.313152
0.31192
0.312724
0.311731
0.312297
0.313118
0.312035
0.312711
0.312018
0.312359
0.31309
0.31215
0.31277
0.313482
0.312498
0.313127
0.312253
0.312759
0.313247
0.312405
0.312804
0.311872
0.311742
0.31078
0.310444
0.310666
0.309846
0.310193
0.293182
0.291544
0.292558
0.293635
0.291825
0.292705
0.293962
0.292106
0.292856
0.294096
0.292275
0.292994
0.2942
0.292476
0.293177
0.294321
0.294568
0.293475
0.294533
0.294862
0.293803
0.294819
0.295133
0.29414
0.29513
0.293755
0.294393
0.295416
0.29412
0.294759
0.295736
0.294502
0.295167
0.296156
0.295116
0.295828
0.296489
0.29545
0.296223
0.296605
0.295811
0.29659
0.295537
0.296148
0.296833
0.29587
0.296572
0.295622
0.296157
0.296912
0.295979
0.296553
0.296998
0.29626
0.296867
0.296
0.296501
0.296925
0.296212
0.296624
0.295785
0.295827
0.294828
0.294656
0.294826
0.294092
0.294465
0.290812
0.289376
0.290091
0.291039
0.289735
0.290432
0.291255
0.290099
0.290678
0.291364
0.29035
0.29087
0.2915
0.290617
0.29109
0.291686
0.292455
0.291404
0.291955
0.292733
0.291757
0.292276
0.293023
0.292104
0.292597
0.291916
0.292369
0.29291
0.292243
0.292709
0.293271
0.292591
0.293044
0.293663
0.292991
0.293392
0.294015
0.293335
0.293707
0.294309
0.293658
0.294052
0.293513
0.29388
0.294382
0.293817
0.294131
0.293715
0.294063
0.294438
0.293953
0.294225
0.294673
0.294176
0.294448
0.294026
0.29424
0.294587
0.294111
0.294232
0.293741
0.29344
0.292824
0.292515
0.292536
0.292114
0.292175
0.288683
0.286527
0.287036
0.288757
0.287162
0.28722
0.288861
0.287734
0.287431
0.288898
0.288123
0.287656
0.28898
0.288462
0.287921
0.28914
0.290491
0.288273
0.289393
0.290744
0.288647
0.289727
0.291033
0.289011
0.290065
0.28951
0.289251
0.290358
0.289658
0.289664
0.290853
0.28988
0.290159
0.291458
0.290231
0.290749
0.291936
0.290485
0.291255
0.29238
0.290833
0.291764
0.290874
0.291205
0.29227
0.291034
0.291711
0.29123
0.291304
0.292236
0.291242
0.291725
0.292662
0.291447
0.292199
0.291337
0.291778
0.292623
0.291473
0.292035
0.291108
0.291115
0.290331
0.29003
0.290515
0.289548
0.290039
0.275114
0.273926
0.274264
0.275441
0.274303
0.274614
0.275709
0.274664
0.274978
0.275857
0.274921
0.275271
0.276005
0.275189
0.275549
0.27618
0.276801
0.275882
0.276436
0.277088
0.276219
0.276753
0.277375
0.276532
0.277087
0.276501
0.276767
0.277421
0.276843
0.277049
0.277781
0.277189
0.277346
0.278226
0.277695
0.277891
0.278623
0.277961
0.278297
0.278862
0.278174
0.278703
0.278237
0.278358
0.279029
0.278469
0.278738
0.278446
0.278571
0.279116
0.27869
0.278826
0.279353
0.278767
0.279157
0.278763
0.278846
0.279292
0.278742
0.279037
0.2786
0.278365
0.277941
0.2775
0.277739
0.277262
0.277453
0.273195
0.271795
0.27259
0.27347
0.272281
0.272885
0.273757
0.272753
0.273141
0.273966
0.273107
0.27338
0.274187
0.273449
0.273646
0.274435
0.275121
0.273987
0.274733
0.275416
0.274358
0.275067
0.275714
0.274716
0.27538
0.274743
0.274993
0.275643
0.27502
0.275394
0.276052
0.275365
0.275842
0.27653
0.275805
0.276314
0.276892
0.276145
0.276685
0.277221
0.276506
0.277028
0.276435
0.27683
0.277352
0.276712
0.277174
0.276732
0.276995
0.277487
0.276928
0.277304
0.277707
0.277133
0.277513
0.277005
0.277323
0.277674
0.277164
0.277405
0.276867
0.276802
0.276206
0.27603
0.276159
0.275673
0.275904
0.261528
0.26045
0.261181
0.262026
0.260865
0.261505
0.262429
0.261262
0.261812
0.262697
0.261568
0.262095
0.262938
0.261881
0.262391
0.263183
0.263467
0.262757
0.263482
0.263811
0.263126
0.263821
0.264129
0.26349
0.264166
0.263346
0.263799
0.2645
0.263727
0.264175
0.264846
0.264109
0.264567
0.265251
0.264628
0.265114
0.2656
0.26497
0.265491
0.265812
0.26532
0.265848
0.265231
0.265646
0.266126
0.265557
0.266013
0.26548
0.265845
0.266326
0.265794
0.266182
0.266516
0.266073
0.266465
0.265966
0.266289
0.266545
0.266139
0.266402
0.265923
0.265951
0.265377
0.265287
0.265416
0.264995
0.265243
0.259687
0.25874
0.259431
0.260074
0.259218
0.259854
0.260448
0.259684
0.260204
0.260737
0.260058
0.260512
0.26103
0.260425
0.260829
0.261338
0.261859
0.261199
0.261681
0.262194
0.261583
0.262037
0.262522
0.261958
0.26238
0.261903
0.262265
0.262675
0.262246
0.26266
0.263079
0.262641
0.263078
0.263527
0.263098
0.263493
0.26388
0.263459
0.263816
0.264195
0.263812
0.26413
0.263769
0.264107
0.264439
0.264086
0.264395
0.264091
0.264365
0.264662
0.264347
0.264614
0.26489
0.264591
0.26479
0.264496
0.264731
0.264918
0.264648
0.26476
0.264442
0.264343
0.263914
0.263805
0.263826
0.26357
0.263676
0.249801
0.248872
0.249969
0.250486
0.2493
0.250313
0.251049
0.249728
0.250626
0.251456
0.250086
0.250925
0.251802
0.250458
0.25125
0.252128
0.252083
0.251657
0.252482
0.252496
0.252069
0.252854
0.252875
0.252491
0.253223
0.252145
0.25286
0.253571
0.25259
0.253298
0.253924
0.253045
0.25375
0.254315
0.253625
0.25431
0.254647
0.254076
0.254709
0.254869
0.254533
0.255066
0.254314
0.254933
0.255336
0.254772
0.255339
0.254601
0.255176
0.255655
0.255046
0.255583
0.255827
0.255455
0.255873
0.255291
0.255762
0.255983
0.255635
0.255933
0.255406
0.255607
0.25491
0.255044
0.255211
0.254789
0.25511
0.248019
0.247293
0.247522
0.248485
0.24782
0.248173
0.248918
0.248325
0.248687
0.249262
0.248745
0.249112
0.249597
0.249161
0.249516
0.249941
0.25048
0.249946
0.250322
0.250867
0.250369
0.250727
0.251246
0.250775
0.251133
0.250835
0.251119
0.25153
0.251237
0.251479
0.251944
0.251641
0.251735
0.252359
0.252055
0.252191
0.252748
0.252416
0.25264
0.253086
0.252727
0.253058
0.252833
0.252881
0.253426
0.25316
0.253338
0.253224
0.253382
0.253728
0.253522
0.253601
0.254008
0.25372
0.253952
0.253773
0.253805
0.254152
0.253876
0.254043
0.253836
0.253664
0.253463
0.253144
0.253407
0.253192
0.253298
0.246647
0.245559
0.246133
0.247064
0.246207
0.246584
0.247477
0.246815
0.247009
0.247827
0.247315
0.247415
0.248178
0.247782
0.247827
0.248545
0.24926
0.248282
0.248942
0.249643
0.248728
0.249359
0.250035
0.249167
0.249769
0.249405
0.249536
0.250148
0.24975
0.249987
0.25062
0.250134
0.250465
0.251129
0.250568
0.250964
0.251564
0.250945
0.251408
0.251975
0.251346
0.25184
0.251416
0.251715
0.252258
0.251738
0.252139
0.251873
0.252059
0.252539
0.252118
0.252428
0.252888
0.252401
0.252777
0.2524
0.252671
0.253065
0.252612
0.252886
0.252491
0.252535
0.252145
0.252099
0.252337
0.251947
0.252226
0.23799
0.237362
0.237738
0.238543
0.237941
0.238272
0.239041
0.238489
0.238795
0.239456
0.238963
0.239278
0.239858
0.23943
0.239744
0.240262
0.24071
0.24023
0.240694
0.241149
0.240697
0.241143
0.241575
0.241146
0.241592
0.241288
0.241537
0.24203
0.241732
0.241959
0.242473
0.24217
0.242389
0.242954
0.242684
0.242931
0.243402
0.243069
0.243383
0.243759
0.243437
0.24383
0.243595
0.243793
0.244226
0.243946
0.244219
0.244063
0.244242
0.244616
0.244393
0.244598
0.244918
0.244653
0.244946
0.244747
0.244908
0.24518
0.244937
0.245155
0.244939
0.24493
0.244712
0.244602
0.244774
0.244553
0.244741
0.236752
0.236035
0.236639
0.237279
0.236669
0.23717
0.237794
0.23728
0.237659
0.23825
0.237812
0.238122
0.238695
0.238323
0.238586
0.239142
0.239638
0.239076
0.239596
0.240082