/*--------------------------------*- C++ -*----------------------------------*\
| =========                 |                                                 |
| \\      /  F ield         | OpenFOAM: The Open Source CFD Toolbox           |
|  \\    /   O peration     | Version:  v2012                                 |
|   \\  /    A nd           | Website:  www.openfoam.com                      |
|    \\/     M anipulation  |                                                 |
\*---------------------------------------------------------------------------*/
FoamFile
{
    version     2.0;
    format      ascii;
    class       volScalarField;
    location    "1e-06";
    object      kPrime2Mean;
}
// * * * * * * * * * * * * * * * * * * * * * * * * * * * * * * * * * * * * * //

dimensions      [0 4 -4 0 0 0 0];


internalField   nonuniform List<scalar> 
10295
(
2.1841e-05
3.71217e-07
6.50183e-06
2.89291e-05
1.5887e-07
5.3436e-06
3.50468e-05
1.94691e-06
4.13623e-06
3.92721e-05
2.46163e-06
3.00367e-06
3.8252e-05
2.17039e-06
4.28344e-06
5.2813e-05
6.49926e-06
0.00132624
3.96864e-07
6.69194e-05
4.72558e-05
1.50219e-05
0.00024568
4.40153e-05
7.28119e-05
0.00117282
0.00448777
1.94613e-05
0.000429083
6.85865e-05
4.89567e-05
0.000229861
4.48271e-05
0.000196261
0.000494454
0.00172984
0.00183484
0.00225782
0.00186893
0.00207857
0.00237199
0.00209054
0.00267163
0.00242523
0.00235438
0.00276256
0.002352
0.00261176
0.00258741
0.00269324
0.00317464
0.00268152
0.00410611
0.00358669
0.00332177
0.00363531
0.00344087
0.00412137
1.63473e-05
2.00389e-06
9.66827e-06
2.11378e-05
1.52663e-06
9.79382e-06
2.62027e-05
4.25015e-06
8.78133e-06
3.06049e-05
4.3836e-06
8.77054e-06
3.10443e-05
3.91836e-06
8.90738e-06
3.25293e-05
1.46415e-06
1.04557e-05
6.18873e-05
1.77837e-05
2.94239e-05
3.82734e-05
1.00579e-05
2.0607e-07
8.29436e-05
8.6001e-06
1.60653e-05
3.41547e-05
2.0917e-05
0.000122284
1.84475e-05
3.43941e-05
2.50035e-05
1.70857e-05
6.59676e-05
5.74832e-05
0.0001013
0.000284103
0.000110314
0.000256161
0.000344154
0.000232904
0.000456093
0.00028544
0.0003328
0.000460095
0.000273757
0.000259845
0.000328553
0.000390666
0.000529837
0.000350534
0.000797888
0.000359061
2.88648e-05
0.00052602
0.000395825
0.000669199
4.55271e-07
1.53893e-07
4.31621e-07
3.33471e-07
3.50159e-08
4.65091e-07
1.44499e-07
4.99835e-08
2.22356e-07
2.90021e-07
3.16032e-09
2.14692e-07
2.16334e-07
2.22453e-07
1.05726e-07
9.79758e-07
3.06056e-06
3.3096e-06
4.19365e-07
1.15799e-06
8.16561e-09
1.36514e-08
3.77642e-07
1.12041e-05
3.00248e-07
7.22897e-06
9.70808e-06
1.10097e-06
4.79364e-07
9.02453e-07
2.17396e-06
5.99014e-07
3.1717e-05
1.01408e-05
2.52132e-05
2.09612e-05
1.97364e-05
1.56105e-05
2.47242e-05
3.15015e-05
2.62442e-05
2.0076e-05
1.07765e-05
1.1189e-05
8.94161e-06
6.67705e-06
8.83048e-06
6.02578e-06
7.57177e-06
8.53608e-06
4.37302e-06
1.27114e-05
1.22189e-05
5.0108e-05
8.08924e-06
3.67981e-05
3.47409e-05
5.69663e-05
2.2363e-05
1.67192e-05
1.37651e-05
2.35681e-05
1.67827e-05
1.51929e-05
2.43965e-05
2.00835e-05
1.44254e-05
2.57832e-05
2.29734e-05
1.36116e-05
2.72843e-05
2.27032e-05
1.5974e-05
2.66995e-05
2.03524e-05
9.11661e-06
3.38281e-05
2.20027e-05
1.40656e-05
3.86468e-05
2.90276e-05
2.85881e-05
4.79473e-05
2.17924e-05
6.76793e-06
3.44368e-05
1.57226e-05
2.23208e-05
1.98975e-05
1.52393e-05
2.09734e-05
1.11797e-05
2.33125e-05
2.83216e-05
5.40789e-06
1.2577e-05
2.78724e-05
6.54013e-06
3.3636e-05
2.04902e-05
8.54195e-07
3.08938e-05
6.9678e-06
2.84961e-05
2.24314e-05
9.08513e-07
4.3822e-05
7.35854e-06
4.89483e-05
3.17674e-05
8.73409e-06
2.9635e-05
1.12952e-06
2.32378e-05
9.47507e-06
2.61872e-05
5.30531e-07
1.15764e-06
8.41178e-07
4.60014e-07
1.28369e-06
8.97187e-07
4.0304e-07
1.03828e-06
1.28398e-06
3.57413e-07
1.04127e-06
1.35952e-06
3.10421e-07
1.20606e-06
1.90033e-06
8.04674e-07
3.73176e-06
2.10578e-06
9.30683e-08
4.09585e-07
1.05143e-07
1.49559e-07
4.22722e-09
5.40019e-06
3.85306e-06
2.35058e-06
1.57873e-06
1.24791e-07
1.72871e-06
1.39038e-07
8.36948e-05
2.83232e-06
2.49359e-06
9.44897e-05
1.32774e-05
1.29445e-05
2.40065e-05
3.22441e-05
2.0646e-05
1.60209e-05
1.81888e-05
2.54434e-05
1.64872e-05
2.69654e-05
2.72445e-05
2.59608e-05
3.38611e-05
3.72594e-05
2.95666e-05
3.18453e-05
2.9638e-05
4.10366e-05
3.80707e-05
6.36329e-05
5.81056e-05
5.80843e-05
5.56925e-05
6.439e-05
1.58274e-08
9.55718e-08
1.13662e-08
8.85981e-08
3.19259e-07
1.00616e-08
3.26288e-07
3.26488e-07
6.5361e-08
3.02516e-07
6.38895e-07
9.00544e-08
3.43589e-07
2.15873e-07
5.62224e-07
4.92897e-07
4.05942e-06
2.09237e-06
5.55282e-07
1.04106e-06
3.59508e-08
3.50622e-08
5.22376e-07
1.93181e-06
9.57683e-08
3.14141e-06
2.48123e-07
1.70741e-06
1.28422e-06
1.02302e-07
1.03853e-05
2.82589e-06
2.43905e-06
1.7088e-05
1.01985e-05
1.13543e-05
1.27168e-05
3.48834e-05
1.8809e-05
1.31961e-05
1.33333e-05
1.77503e-05
1.1968e-05
2.04435e-05
2.02121e-05
1.95307e-05
2.5022e-05
9.75253e-06
2.60175e-05
2.60083e-05
2.70988e-05
3.43461e-05
4.86352e-05
8.40886e-05
5.05946e-05
5.60126e-05
4.47002e-05
4.7047e-05
6.52783e-06
4.85872e-06
2.61722e-06
6.38721e-06
4.6027e-06
3.1339e-06
6.16689e-06
5.00607e-06
2.94294e-06
6.13778e-06
5.92148e-06
3.13804e-06
6.77202e-06
5.44117e-06
1.99563e-06
3.3365e-06
2.23415e-06
7.54988e-07
8.39234e-06
6.67309e-06
4.7844e-06
1.37356e-05
1.04374e-05
1.15531e-05
1.17556e-05
4.25589e-06
2.71713e-06
6.76416e-06
3.32936e-06
4.27335e-06
4.08922e-06
7.21448e-07
4.63418e-06
1.06486e-06
3.45346e-05
3.57466e-06
2.45793e-06
6.87677e-07
9.67033e-06
5.44138e-07
6.68071e-06
4.44536e-06
4.0094e-07
7.74597e-06
7.02922e-07
5.1734e-06
4.17384e-06
4.85642e-07
6.90589e-06
2.42144e-07
1.85216e-06
9.59636e-07
4.81519e-07
9.44849e-07
1.02867e-06
2.24429e-06
1.44187e-06
1.32938e-06
1.02943e-07
7.1473e-07
1.49691e-07
1.87326e-07
1.14508e-06
1.57474e-07
2.86043e-07
1.0472e-06
3.3059e-07
2.60234e-07
1.24396e-06
4.20509e-07
2.8062e-07
1.50897e-06
1.1003e-06
8.73005e-07
4.18832e-06
1.9548e-06
5.71194e-07
1.60624e-06
3.90204e-08
4.81027e-09
4.80854e-07
3.7224e-07
1.72247e-07
3.88919e-06
2.24983e-06
8.55721e-07
1.88838e-06
2.08815e-07
2.74727e-06
2.5683e-05
3.07635e-06
6.17589e-06
1.79303e-05
9.30572e-06
9.73577e-06
5.91344e-06
2.02976e-05
1.41714e-05
1.02608e-05
1.30899e-05
8.95912e-06
1.08384e-05
1.34294e-05
1.14989e-05
1.62244e-05
1.23143e-05
3.11086e-05
3.67299e-05
1.85838e-05
2.7232e-05
2.36932e-05
4.14693e-05
3.26929e-05
2.65578e-05
2.47461e-05
2.20879e-05
3.555e-06
2.61063e-06
1.00446e-06
3.20388e-06
2.59722e-06
1.24306e-06
2.90024e-06
2.99816e-06
1.07674e-06
2.74531e-06
3.54799e-06
1.1274e-06
3.00613e-06
2.82346e-06
6.88525e-07
1.46957e-06
4.53008e-07
4.18823e-07
5.99985e-06
4.45081e-06
2.63989e-06
1.08671e-05
8.98281e-06
6.28275e-06
8.95527e-06
2.30393e-06
1.67218e-06
4.11449e-06
8.62695e-07
1.60203e-06
2.9178e-06
5.94227e-06
1.20526e-06
5.1496e-07
3.67864e-07
4.19578e-07
4.86897e-07
2.79177e-07
1.49455e-06
2.52728e-05
1.49524e-05
9.82698e-06
6.87754e-08
2.83675e-06
9.33835e-06
5.63807e-06
5.3506e-06
9.23947e-06
2.15852e-06
4.73196e-07
1.72475e-06
6.03241e-07
2.63834e-07
6.98494e-07
1.66141e-06
2.72335e-06
2.94789e-08
3.45444e-07
3.41203e-08
2.32332e-07
1.14237e-07
1.91316e-08
2.52135e-07
1.28858e-07
8.72213e-09
1.333e-07
2.58269e-07
3.28067e-09
1.72043e-07
2.73876e-07
3.53755e-10
2.03636e-07
4.64093e-07
1.00627e-08
7.28837e-07
1.68923e-08
7.18159e-07
4.96205e-09
2.79424e-07
1.20948e-06
5.26296e-07
4.65405e-06
6.99129e-07
2.04733e-06
5.58999e-07
3.97034e-07
5.12532e-07
1.74795e-07
6.48798e-07
2.73386e-06
2.08749e-06
4.59205e-06
2.96128e-06
4.20593e-05
9.66579e-06
4.15425e-06
7.26607e-06
5.79874e-06
9.78462e-06
1.58069e-05
4.38325e-05
3.94807e-05
1.1237e-05
9.32439e-06
1.44989e-05
1.18001e-05
1.0386e-05
1.06318e-05
1.04044e-05
1.63931e-05
1.53379e-05
2.53195e-05
3.03374e-05
1.57543e-05
1.3563e-05
1.14337e-05
6.14191e-07
9.42837e-07
2.71206e-07
4.60895e-07
1.41485e-06
3.01315e-07
3.54852e-07
1.34671e-06
5.63019e-07
2.86293e-07
1.53587e-06
8.24642e-07
2.82862e-07
1.65976e-06
9.03e-07
3.4098e-07
2.29873e-06
2.96e-07
2.70383e-07
1.87077e-06
2.87629e-08
2.19962e-07
1.50181e-06
1.65915e-07
2.1199e-06
6.75215e-06
2.33996e-07
3.39944e-06
2.2612e-06
3.29984e-07
3.57065e-06
2.979e-06
1.09439e-05
7.47259e-06
2.63456e-06
1.03588e-05
1.83212e-05
5.06375e-06
1.28782e-05
7.26292e-06
8.90386e-06
1.27656e-05
7.33782e-06
1.8665e-05
1.27191e-05
1.21813e-05
1.65879e-05
6.58256e-06
1.83236e-05
1.49488e-05
1.60312e-05
2.11284e-05
1.35904e-05
5.36391e-05
2.20846e-05
2.45094e-05
1.90834e-05
1.66855e-05
2.56075e-06
1.61296e-06
1.0231e-06
2.4116e-06
1.56699e-06
1.18974e-06
2.24054e-06
2.01419e-06
9.77334e-07
2.13451e-06
2.17618e-06
8.46175e-07
2.1014e-06
2.2667e-06
7.76452e-07
2.40785e-06
1.48733e-06
1.78894e-06
6.66586e-06
3.94415e-06
3.68731e-06
7.85278e-06
5.48973e-06
6.33478e-06
3.18511e-06
3.71995e-07
3.64915e-07
2.02003e-06
5.50413e-07
1.05344e-06
1.5811e-06
1.1578e-07
3.63394e-06
1.06361e-08
2.91548e-08
6.40797e-07
1.00881e-05
5.17484e-09
9.404e-07
1.20425e-07
1.46798e-06
4.32569e-07
1.71422e-08
1.34961e-06
3.05696e-08
6.94564e-07
3.3836e-07
6.34284e-08
1.60629e-06
3.3186e-08
4.0359e-07
4.14932e-08
8.71885e-06
3.23643e-08
2.29785e-07
3.00739e-07
1.69126e-08
4.99621e-08
7.34036e-07
1.67736e-06
5.30515e-07
5.53431e-07
2.09911e-06
6.04909e-07
4.25561e-07
1.82309e-06
1.05275e-06
3.56256e-07
1.90064e-06
1.11673e-06
3.53084e-07
2.04727e-06
1.12037e-06
4.28653e-07
2.90866e-06
4.63955e-07
3.39394e-07
2.31486e-06
7.32983e-08
2.27004e-07
1.6329e-06
1.35465e-09
2.06916e-06
6.89887e-06
7.63505e-07
3.85732e-06
2.57962e-06
4.41412e-07
3.87848e-06
2.32662e-06
3.86891e-06
7.42704e-06
3.03795e-06
6.9481e-06
1.22416e-05
6.56625e-06
1.33389e-05
6.42574e-06
8.03727e-06
1.15892e-05
4.79608e-06
1.32977e-05
1.01602e-05
9.2896e-06
1.41717e-05
6.27505e-06
1.61699e-05
1.13446e-05
2.59913e-05
3.44855e-05
1.0399e-05
2.21139e-05
1.38304e-05
1.52962e-05
1.32701e-05
1.50648e-05
1.86366e-06
1.25017e-06
7.55523e-07
1.72331e-06
1.10839e-06
9.06598e-07
1.57774e-06
1.59648e-06
5.60814e-07
1.44436e-06
1.74892e-06
6.21685e-07
1.61791e-06
1.85206e-06
5.70436e-07
1.87977e-06
1.13482e-06
1.47497e-06
5.5162e-06
3.30434e-06
3.34663e-06
6.70227e-06
4.37554e-06
4.71933e-06
2.20967e-06
1.25086e-07
4.39025e-07
1.2039e-06
1.6924e-07
5.82621e-07
8.35854e-07
2.03922e-08
3.26655e-07
8.32558e-07
3.01237e-09
4.01641e-07
1.77278e-08
9.73819e-06
1.05094e-07
5.64052e-08
6.30431e-07
1.89935e-07
2.6065e-09
1.02574e-06
2.02221e-08
3.55292e-07
3.37848e-08
2.38277e-08
2.78317e-06
6.12523e-06
9.36017e-08
2.38815e-08
2.5309e-07
2.51569e-08
1.49997e-07
1.51546e-07
1.58765e-06
2.06457e-08
6.28655e-07
1.80358e-06
4.91772e-07
4.62859e-07
1.93426e-06
5.99203e-07
3.45131e-07
1.67282e-06
9.07838e-07
2.81704e-07
1.75512e-06
9.36934e-07
2.71932e-07
1.88716e-06
9.10294e-07
3.32408e-07
2.54274e-06
3.16529e-07
2.59003e-07
2.27706e-06
8.68166e-08
2.62603e-07
1.8579e-06
2.58309e-09
2.04442e-06
6.45789e-06
7.4547e-07
3.74399e-06
2.69598e-06
4.28776e-07
3.89319e-06
2.07818e-06
1.73647e-06
1.40444e-05
2.81505e-06
6.0173e-06
6.56184e-06
3.8781e-06
1.94621e-05
6.14395e-06
7.33602e-06
1.06465e-05
4.13916e-06
1.25581e-05
9.44379e-06
9.14648e-06
2.46369e-05
1.76145e-05
1.50435e-05
1.0931e-05
9.83362e-06
1.38833e-05
7.43687e-06
1.77116e-05
1.10634e-05
1.33409e-05
1.25261e-05
8.63804e-06
1.33544e-06
8.44735e-07
5.59152e-07
1.22544e-06
7.91411e-07
6.2539e-07
1.12226e-06
1.29922e-06
4.67759e-07
1.15878e-06
1.44077e-06
5.07368e-07
1.29656e-06
1.53151e-06
4.94901e-07
1.51791e-06
8.91099e-07
1.32624e-06
4.54177e-06
2.57792e-06
2.90557e-06
5.2474e-06
2.73743e-06
3.19598e-06
1.33269e-06
7.41787e-09
4.29245e-08
7.73239e-07
6.76253e-08
5.61636e-07
3.80144e-07
2.2856e-08
2.88064e-07
3.73174e-07
1.12903e-07
2.30183e-07
2.69727e-08
2.94467e-08
3.62468e-06
6.68295e-08
7.13243e-08
3.63213e-08
1.221e-07
2.30022e-06
4.89776e-06
3.63599e-06
1.11445e-07
9.71637e-08
9.41318e-07
2.80802e-08
8.31378e-08
3.83244e-08
2.64816e-07
3.37466e-08
1.90104e-07
1.24904e-06
1.16308e-08
3.88416e-08
5.54158e-07
1.56019e-06
3.51287e-07
3.90386e-07
1.67254e-06
4.23148e-07
2.74232e-07
1.54849e-06
7.1152e-07
2.10751e-07
1.63125e-06
7.36868e-07
1.96372e-07
1.71787e-06
7.01885e-07
2.43311e-07
2.20795e-06
2.01065e-07
2.69429e-07
2.41578e-06
1.189e-07
5.30645e-07
2.17368e-06
1.64632e-09
1.97521e-06
5.47012e-06
5.74054e-07
3.51037e-06
2.34188e-06
3.15152e-07
3.20468e-06
1.87112e-06
1.53515e-06
4.5524e-06
3.86995e-06
5.13418e-06
5.23106e-06
1.7795e-06
8.62295e-06
1.45249e-05
1.78351e-05
2.21569e-05
1.37053e-05
1.23906e-05
7.11398e-06
6.38217e-06
9.90351e-06
3.30871e-06
1.1143e-05
7.77924e-06
7.65583e-06
1.12475e-05
4.93487e-06
1.38855e-05
9.69456e-06
1.08417e-05
9.15843e-06
6.74661e-06
1.43661e-07
5.59003e-12
5.0425e-08
1.4912e-07
1.93512e-13
4.5196e-08
1.46992e-07
3.84281e-08
1.64271e-09
1.49111e-07
4.60072e-08
1.09026e-09
1.64424e-07
4.25114e-08
1.92514e-10
1.76981e-07
1.44906e-08
4.75316e-08
2.92363e-07
6.62804e-08
8.93579e-08
1.63438e-07
1.71547e-07
1.16574e-08
4.75158e-09
5.35289e-07
2.56587e-07
6.32677e-09
1.86573e-07
3.34465e-09
2.52959e-09
1.57939e-07
2.13158e-10
2.3165e-07
1.03839e-06
4.36003e-09
2.73506e-07
1.08292e-07
1.14715e-07
1.44878e-06
6.57886e-07
7.93019e-07
5.11101e-07
2.08624e-08
2.81886e-07
5.43196e-08
3.61369e-07
6.96065e-07
8.66796e-09
4.12274e-07
8.85893e-08
4.70073e-07
1.04757e-06
7.13949e-07
1.80328e-06
1.30487e-07
4.24838e-07
2.24543e-07
1.05744e-06
6.86236e-07
2.51805e-07
8.72294e-07
8.06326e-07
3.18406e-07
8.75652e-07
1.26517e-06
2.00903e-07
9.36131e-07
1.42672e-06
2.1008e-07
1.06632e-06
1.56398e-06
1.72007e-07
1.29788e-06
1.08038e-06
5.03873e-07
3.66295e-06
2.4255e-06
1.2043e-06
3.90386e-06
1.91401e-06
1.52552e-06
1.00298e-06
5.69318e-09
1.20532e-07
6.30396e-07
3.93442e-09
2.39293e-07
5.49606e-07
9.61141e-08
2.15842e-07
4.76102e-09
3.9223e-07
1.79532e-07
2.42996e-08
1.72229e-07
6.18502e-07
1.75062e-08
4.8604e-07
6.6935e-08
5.86953e-08
6.68955e-07
6.90438e-08
2.4338e-07
2.68466e-08
2.26996e-07
8.43175e-07
4.78742e-08
3.64525e-07
1.81989e-09
9.35879e-07
1.11034e-06
5.01062e-08
2.99983e-07
1.43318e-08
2.2467e-07
2.59732e-07
9.62865e-07
2.70813e-07
2.20744e-07
1.05447e-06
3.21508e-07
2.05764e-07
7.87011e-07
5.69409e-07
1.99139e-07
7.86957e-07
5.92618e-07
1.96719e-07
8.13499e-07
5.78695e-07
1.95089e-07
1.25335e-06
1.61104e-07
1.03321e-07
1.34934e-06
2.04091e-07
1.18463e-07
8.75668e-07
1.36526e-07
6.79798e-07
3.80325e-06
1.53468e-06
1.58441e-06
1.88887e-06
6.75123e-07
1.53627e-06
1.59383e-06
1.08395e-06
2.82815e-06
2.06401e-06
4.06293e-06
3.69989e-06
2.34748e-06
5.20229e-06
2.6365e-06
3.01157e-06
4.80905e-06
3.48009e-06
5.0504e-06
4.59365e-06
4.00335e-06
6.17019e-06
4.83928e-06
6.15234e-06
5.75306e-06
6.3445e-06
1.01276e-05
5.95968e-06
8.23195e-06
6.14825e-06
5.6061e-06
5.81833e-06
5.13683e-06
5.57455e-07
3.77814e-07
2.32622e-07
5.70214e-07
4.53163e-07
2.66876e-07
5.94226e-07
8.1408e-07
1.53384e-07
6.43947e-07
9.18856e-07
1.68888e-07
7.29889e-07
1.00939e-06
1.6628e-07
8.8956e-07
6.08346e-07
5.89725e-07
2.37344e-06
1.20533e-06
9.92531e-07
1.90979e-06
8.87289e-07
1.1823e-06
3.53394e-07
2.15524e-08
6.30512e-08
3.40148e-07
2.16615e-08
1.41435e-07
1.98827e-07
4.71266e-08
8.20015e-08
5.75196e-09
2.66875e-08
5.3088e-07
8.25783e-08
6.26885e-08
6.98824e-08
3.88919e-08
2.14613e-07
9.36571e-09
7.5258e-08
1.55451e-07
1.66515e-08
4.20414e-08
2.10033e-09
6.74969e-08
1.81731e-07
8.08101e-07
2.58341e-07
6.41916e-09
1.01085e-08
8.63895e-09
4.52821e-09
4.06649e-08
2.80314e-08
7.94572e-09
1.7207e-07
6.94952e-07
1.87133e-07
1.38343e-07
7.82515e-07
2.11328e-07
1.22423e-07
6.22249e-07
3.89829e-07
1.15277e-07
6.27964e-07
4.08068e-07
1.10655e-07
6.40398e-07
4.02179e-07
1.10478e-07
9.42744e-07
1.09937e-07
6.74272e-08
1.00676e-06
1.21039e-07
3.71784e-08
5.44032e-07
5.20881e-08
5.16808e-07
2.63456e-06
1.01838e-06
1.3427e-06
1.41616e-06
5.09827e-07
8.75839e-07
1.35401e-06
7.70184e-07
1.97366e-06
1.1093e-06
2.15805e-06
2.72168e-06
1.39386e-06
3.21134e-06
2.03464e-06
2.06462e-06
3.33338e-06
2.0903e-06
3.21918e-06
3.2217e-06
2.59806e-06
4.19477e-06
3.72455e-06
6.31227e-06
4.87455e-06
3.57889e-06
4.95198e-06
3.55726e-06
5.41548e-06
3.91493e-06
3.62386e-06
4.23745e-06
2.87042e-06
3.68121e-07
2.25407e-07
2.29535e-07
3.64444e-07
2.62232e-07
2.5266e-07
3.7195e-07
5.37112e-07
1.45548e-07
3.93734e-07
6.0194e-07
1.61472e-07
4.35592e-07
6.5176e-07
1.85793e-07
4.91488e-07
2.76055e-07
4.74251e-07
1.30853e-06
4.64137e-07
6.59941e-07
9.55105e-07
4.40215e-07
6.78526e-07
1.26105e-07
3.8994e-08
3.9793e-09
7.90252e-08
1.61196e-08
3.07021e-08
5.7158e-08
1.08962e-08
2.30102e-08
8.07056e-09
1.3289e-08
2.41531e-08
7.14769e-07
8.63467e-10
1.65498e-08
2.30349e-08
3.25839e-08
4.26804e-09
3.98074e-08
1.51744e-07
4.31139e-09
4.50689e-07
6.71378e-07
1.48525e-07
1.50577e-07
8.07784e-10
1.51496e-08
1.01597e-08
8.42169e-09
2.8638e-09
2.35671e-09
4.68341e-09
1.10378e-09
5.8108e-08
2.58896e-07
3.38336e-07
5.61393e-08
1.78025e-07
4.25862e-07
8.63898e-08
1.21964e-07
5.15382e-07
1.10171e-07
8.12766e-08
5.93792e-07
1.27118e-07
5.79247e-08
5.16059e-07
2.45959e-07
4.58718e-08
5.28375e-07
2.52653e-07
3.91193e-08
5.37409e-07
2.43931e-07
3.99713e-08
6.65249e-07
3.72771e-08
3.04719e-08
6.22749e-07
1.56901e-08
2.1372e-08
4.0451e-07
5.15113e-10
4.13681e-07
1.76524e-06
4.31419e-07
1.12171e-06
9.93219e-07
2.78172e-07
1.05551e-06
6.60117e-07
4.60301e-07
1.37012e-06
4.86331e-07
9.93773e-07
2.18559e-06
7.63255e-07
2.18394e-06
1.02514e-06
1.179e-06
2.23249e-06
9.30623e-07
2.86198e-06
3.59391e-06
1.66173e-06
2.8936e-06
1.27172e-06
2.7604e-06
2.18881e-06
1.72041e-06
2.70001e-06
1.3658e-06
3.19892e-06
1.72935e-06
2.06169e-06
2.16145e-06
1.83946e-06
2.97723e-09
3.04206e-08
1.69967e-09
4.00146e-09
2.87005e-08
2.78539e-09
8.95211e-09
2.48659e-08
3.74766e-09
1.03374e-08
2.13379e-08
4.30986e-09
1.0149e-08
1.72991e-08
8.1622e-09
1.34173e-09
1.44919e-08
9.35757e-09
2.81414e-09
1.31112e-08
5.9094e-09
7.89772e-09
1.19701e-08
2.69417e-08
6.26441e-09
3.33517e-08
4.67934e-08
1.64035e-09
1.6804e-08
5.79822e-08
9.66988e-09
1.38783e-10
1.88312e-07
1.02519e-07
5.26336e-09
1.25072e-07
3.56645e-08
4.99768e-09
9.89208e-08
1.61912e-08
9.35783e-08
1.04486e-07
4.38531e-10
2.17718e-07
2.31587e-07
9.3511e-08
5.54855e-08
3.03211e-08
2.07849e-07
3.65529e-07
2.64844e-07
1.74887e-07
4.55988e-08
7.61348e-08
1.31185e-07
8.623e-09
1.3231e-07
5.64796e-08
1.10439e-07
2.11649e-07
9.22141e-08
2.92182e-07
9.84846e-09
1.17852e-07
8.68318e-08
6.87481e-08
1.55703e-07
2.34574e-07
9.79627e-08
1.13441e-07
2.49879e-07
1.34032e-07
9.71397e-08
2.55596e-07
1.70109e-07
9.92725e-08
2.67448e-07
2.04913e-07
1.0849e-07
2.7947e-07
3.88313e-07
5.04509e-08
3.00758e-07
4.38166e-07
5.44455e-08
3.33308e-07
4.75296e-07
4.82892e-08
3.58031e-07
1.75672e-07
2.04912e-07
8.74168e-07
2.64691e-07
2.72157e-07
6.07158e-07
2.66895e-07
3.05517e-07
8.21333e-08
2.57062e-08
1.30735e-08
4.39779e-08
1.37939e-08
2.69609e-08
6.69648e-08
1.88947e-08
1.79166e-08
3.49256e-09
2.10695e-08
7.20588e-08
1.80318e-08
1.24438e-06
6.18683e-07
1.72124e-09
4.8183e-07
4.90915e-07
3.1174e-07
5.34864e-08
8.29951e-09
6.29455e-08
9.39929e-09
5.54313e-08
9.68137e-08
1.38751e-09
3.07255e-08
4.42805e-09
1.34592e-09
5.31135e-11
3.97441e-09
6.33085e-08
7.61878e-10
6.36045e-08
1.29202e-07
1.53996e-07
6.98097e-08
9.47886e-08
1.96961e-07
7.82787e-08
7.34256e-08
2.40342e-07
8.00608e-08
6.48017e-08
2.79342e-07
8.39468e-08
5.9837e-08
3.05966e-07
8.80947e-08
5.8786e-08
2.15977e-07
1.71158e-07
5.78134e-08
2.12322e-07
1.75913e-07
5.39381e-08
2.08555e-07
1.6214e-07
3.82263e-08
2.45736e-07
2.9648e-08
8.94776e-09
1.99932e-07
2.17777e-08
1.19156e-09
1.59968e-07
2.43257e-08
1.61481e-07
9.71582e-07
4.97105e-07
4.89282e-07
6.15169e-07
3.04972e-07
4.83334e-07
3.17752e-07
4.19367e-07
7.41694e-07
4.47112e-07
5.42619e-07
9.18865e-07
4.81764e-07
9.82082e-07
2.5517e-06
7.09743e-07
9.41552e-07
8.19192e-07
9.23943e-07
9.63536e-07
8.18924e-07
1.27225e-06
9.19446e-07
1.11309e-06
1.35029e-06
9.53152e-07
1.27526e-06
8.37434e-07
1.20632e-06
8.88215e-07
1.09573e-06
1.25564e-06
1.01845e-06
1.31424e-07
4.36373e-08
8.43545e-08
1.34752e-07
5.2965e-08
9.61474e-08
1.36991e-07
6.80084e-08
9.79652e-08
1.3176e-07
8.02145e-08
1.01136e-07
1.3306e-07
9.36538e-08
1.0843e-07
1.34615e-07
2.08946e-07
5.56892e-08
1.42075e-07
2.4385e-07
5.87656e-08
1.44297e-07
2.3169e-07
5.48798e-08
1.52988e-07
7.03147e-08
1.85289e-07
3.89224e-07
9.84783e-08
2.03925e-07
2.81417e-07
1.1914e-07
1.68132e-07
1.87814e-08
2.63714e-08
5.31174e-10
5.24966e-09
1.08124e-08
1.04542e-09
9.76062e-09
2.98101e-08
2.89683e-10
3.74145e-09
7.69405e-09
1.18864e-08
1.56792e-08
6.61511e-10
1.65651e-09
1.5041e-08
6.39185e-10
8.04628e-09
6.05599e-10
8.29363e-09
1.56202e-09
1.64071e-09
2.42156e-09
8.57831e-10
4.12419e-09
2.56757e-09
2.20872e-09
7.0033e-09
3.69254e-09
1.58038e-08
1.84716e-08
1.13586e-08
1.13168e-09
6.61679e-09
1.11188e-07
9.95253e-08
1.1512e-08
8.29007e-08
1.29331e-07
2.06343e-08
5.63233e-08
1.65606e-07
3.15241e-08
3.64764e-08
1.96451e-07
3.81957e-08
2.36323e-08
2.21622e-07
4.18533e-08
1.61805e-08
1.73368e-07
8.91436e-08
1.20377e-08
1.78904e-07
8.89258e-08
9.73532e-09
1.61755e-07
7.47231e-08
6.6003e-09
1.91168e-07
5.23947e-09
4.37077e-10
1.54493e-07
2.95362e-10
7.53325e-10
1.29829e-07
3.92676e-11
1.28866e-07
6.46501e-07
1.97342e-07
3.91454e-07
4.47516e-07
1.32863e-07
4.1404e-07
3.17785e-07
1.44185e-07
5.75455e-07
2.02232e-07
3.22039e-07
4.34197e-07
1.53476e-07
6.3019e-07
3.11862e-07
2.31769e-07
5.43084e-07
2.33453e-07
5.10422e-07
5.00818e-07
3.51554e-07
6.72338e-07
3.12732e-07
5.77802e-07
5.68043e-07
3.77628e-07
7.91787e-07
4.45958e-07
9.95876e-07
5.76151e-07
5.4727e-07
6.54081e-07
4.44848e-07
4.49106e-09
6.10082e-10
1.90965e-10
8.46273e-09
1.32034e-09
1.14964e-10
8.25125e-09
1.94787e-09
1.11345e-09
5.52296e-09
2.56036e-09
1.70907e-09
3.74974e-09
2.9833e-09
1.80309e-09
2.119e-09
2.10491e-09
3.09944e-09
9.15529e-10
1.69292e-09
4.58027e-09
1.02414e-09
1.09728e-09
6.8139e-09
1.24218e-09
1.19929e-08
3.85331e-10
5.7017e-09
2.25656e-08
4.21539e-10
3.66165e-09
2.16268e-08
3.15535e-09
7.37485e-10
6.91328e-08
4.40473e-08
5.08899e-09
5.51927e-08
1.31717e-08
3.1107e-09
3.86343e-08
3.70259e-09
8.86237e-08
3.202e-08
2.2847e-09
3.4882e-08
2.22277e-08
2.16695e-08
1.24368e-08
2.71156e-09
3.23345e-08
3.2246e-08
7.65554e-09
5.21196e-08
1.72847e-08
2.79599e-08
3.3581e-08
2.1623e-10
1.83016e-08
8.81215e-09
3.21325e-08
5.11896e-08
2.83422e-08
6.15036e-08
1.29653e-08
3.44389e-08
2.23617e-08
7.82772e-08
2.20834e-08
6.19712e-08
7.97949e-08
2.98518e-08
5.6157e-08
8.45249e-08
4.18473e-08
4.93306e-08
8.58725e-08
5.11949e-08
4.75073e-08
9.32344e-08
6.09672e-08
5.12302e-08
9.44136e-08
1.27046e-07
2.03052e-08
9.25683e-08
1.24975e-07
2.07438e-08
9.76107e-08
1.29373e-07
1.97314e-08
1.0325e-07
4.30383e-08
9.46408e-08
2.39083e-07
5.38322e-08
1.09083e-07
2.00686e-07
5.87611e-08
8.82235e-08
1.26467e-08
1.40837e-08
2.97204e-09
5.4221e-09
1.49239e-08
5.33121e-09
5.08396e-09
1.1537e-08
7.89197e-09
6.36577e-10
1.48394e-11
5.65033e-09
3.94991e-09
5.97949e-09
1.40577e-10
2.63349e-08
5.06891e-08
4.71377e-09
5.1659e-09
1.54428e-09
2.813e-09
1.94545e-08
1.38294e-09
6.27884e-08
3.83289e-08
8.02067e-09
1.68299e-08
5.69538e-10
9.35687e-09
1.24021e-09
5.36278e-09
1.387e-08
1.54228e-09
2.57679e-08
4.66217e-08
5.8712e-08
2.04976e-08
3.31387e-08
7.2731e-08
2.55664e-08
2.51735e-08
8.95959e-08
2.81557e-08
2.06158e-08
1.00894e-07
2.88085e-08
1.84428e-08
1.09366e-07
2.97394e-08
1.64218e-08
6.94522e-08
6.06192e-08
1.45657e-08
5.97736e-08
5.85081e-08
1.13987e-08
5.24417e-08
5.02731e-08
6.67872e-09
7.59566e-08
7.60932e-09
6.78669e-10
6.13575e-08
4.80713e-09
4.44613e-10
5.84643e-08
5.76238e-09
6.16018e-08
3.54658e-07
1.77832e-07
1.93895e-07
2.58258e-07
1.35273e-07
1.87455e-07
2.07832e-07
1.41152e-07
1.78627e-07
1.6505e-07
1.75126e-07
2.62715e-07
1.32088e-07
2.67907e-07
2.09701e-07
2.11637e-07
3.1092e-07
1.61915e-07
2.19507e-07
2.72122e-07
1.59258e-07
3.26518e-07
2.90865e-07
3.32611e-07
4.206e-07
2.87433e-07
3.82956e-07
2.82974e-07
4.20034e-07
3.17897e-07
2.82739e-07
3.61063e-07
3.04687e-07
2.92187e-09
5.34607e-10
3.50483e-10
4.16003e-09
8.57362e-10
1.85352e-09
3.11755e-09
9.95328e-10
2.01869e-09
2.22705e-09
1.19572e-09
1.72227e-09
1.59303e-09
1.44307e-09
1.2579e-09
8.20785e-10
1.51669e-09
1.59871e-09
6.10383e-10
1.52008e-09
2.27712e-09
4.5249e-10
1.02593e-09
3.48144e-09
3.51847e-10
5.38811e-09
6.64735e-10
1.07399e-09
1.08527e-08
1.0649e-10
4.76621e-10
9.30391e-09
1.09351e-10
1.55243e-09
3.36683e-08
1.7708e-08
2.94863e-09
2.4477e-08
8.05192e-09
5.26451e-10
1.93101e-08
5.02802e-09
1.17499e-08
1.46569e-09
5.65913e-09
2.17001e-08
8.37295e-09
1.07456e-08
3.84636e-09
4.45487e-09
7.35266e-09
2.61811e-09
2.12262e-10
7.97152e-10
6.78465e-09
2.08079e-09
1.40796e-08
9.46411e-10
1.14504e-08
5.4939e-09
8.60476e-09
1.31861e-08
9.8358e-09
1.03106e-08
4.97984e-09
8.31174e-09
7.74157e-09
4.75708e-08
1.00525e-08
2.81984e-08
5.01303e-08
1.56984e-08
2.19293e-08
5.40899e-08
2.42632e-08
1.86488e-08
5.564e-08
2.90538e-08
1.72667e-08
5.60857e-08
3.25403e-08
1.73054e-08
5.41906e-08
7.0044e-08
5.36163e-09
5.50002e-08
7.26993e-08
5.35309e-09
5.67441e-08
7.37758e-08
4.53565e-09
6.16174e-08
2.63267e-08
4.24831e-08
1.32131e-07
3.03219e-08
5.52816e-08
1.2397e-07
2.55901e-08
3.47748e-08
9.40604e-09
1.13233e-08
5.18238e-10
4.16344e-09
1.16198e-08
1.65456e-09
4.88801e-09
7.59239e-09
1.7234e-09
8.27244e-10
1.31437e-08
2.61985e-08
1.29334e-08
1.52413e-10
1.42724e-09
2.08006e-10
1.88667e-08
1.53714e-09
1.08235e-08
3.65069e-08
1.59809e-10
1.5012e-08
8.82172e-11
6.5581e-09
1.221e-08
4.73352e-10
8.48176e-09
1.27529e-10
4.45893e-09
3.79973e-10
8.79368e-10
1.26446e-08
5.46537e-10
1.28412e-08
2.08094e-08
3.32066e-08
1.76532e-08
1.54446e-08
3.95625e-08
1.83994e-08
1.344e-08
4.76531e-08
1.82613e-08
1.3205e-08
4.99475e-08
1.71191e-08
1.28745e-08
4.96622e-08
1.63157e-08
1.25566e-08
2.58209e-08
3.40844e-08
1.11053e-08
2.08652e-08
3.1363e-08
8.22658e-09
1.619e-08
2.70069e-08
4.63057e-09
2.97131e-08
5.046e-09
5.367e-10
2.40996e-08
4.9606e-09
4.46408e-10
2.44514e-08
7.41424e-09
3.44147e-08
1.88472e-07
1.22978e-07
1.04635e-07
1.50901e-07
8.78902e-08
1.07676e-07
1.47313e-07
7.96365e-08
1.45046e-07
1.38504e-07
9.61265e-08
8.74483e-08
8.64206e-08
1.34034e-07
9.6146e-08
7.18304e-08
1.20593e-07
1.08737e-07
1.80106e-07
1.97897e-07
1.33061e-07
1.86182e-07
1.37605e-07
1.49135e-07
1.98039e-07
1.55547e-07
1.96617e-07
1.75663e-07
2.06535e-07
1.87844e-07
1.64238e-07
2.01427e-07
1.58273e-07
2.5754e-08
8.85311e-09
2.0888e-08
2.58037e-08
1.06068e-08
2.2667e-08
2.48745e-08
1.22645e-08
2.27586e-08
2.43705e-08
1.37742e-08
2.27935e-08
2.48125e-08
1.50447e-08
2.34344e-08
2.39199e-08
3.49015e-08
9.9838e-09
2.31634e-08
3.44303e-08
9.44098e-09
2.29738e-08
3.40581e-08
8.52048e-09
2.43234e-08
1.22134e-08
4.22567e-08
5.806e-08
1.76588e-08
4.74937e-08
4.7261e-08
1.48062e-08
2.29974e-08
1.12798e-09
4.82354e-09
5.16343e-11
1.29335e-10
3.02202e-09
1.30771e-10
7.95311e-10
2.3576e-09
1.36696e-09
3.76883e-10
2.22853e-09
5.46939e-09
8.20676e-10
2.02999e-08
2.4907e-09
7.21279e-11
1.86267e-11
1.65609e-10
3.3859e-10
1.0811e-09
6.02666e-11
1.25142e-09
1.64289e-11
2.24125e-09
2.73263e-09
3.28299e-10
1.78513e-09
2.0216e-10
1.18729e-09
5.33731e-10
1.14159e-09
4.78402e-09
2.23282e-09
2.10251e-09
1.89307e-08
2.31279e-08
2.48503e-09
1.2766e-08
3.00484e-08
3.39759e-09
7.70703e-09
3.58463e-08
4.78876e-09
4.70537e-09
4.05551e-08
5.53468e-09
3.14013e-09
4.33994e-08
5.7417e-09
2.10512e-09
2.4036e-08
1.60037e-08
1.37082e-09
2.02039e-08
1.39964e-08
6.9161e-10
1.69364e-08
1.03715e-08
2.44725e-10
3.17133e-08
1.32691e-10
1.50441e-10
2.68692e-08
6.35567e-11
8.27274e-12
2.51621e-08
3.84213e-11
2.40055e-08
1.36958e-07
5.13051e-08
7.57944e-08
1.00122e-07
3.96732e-08
8.12198e-08
7.50769e-08
4.58275e-08
1.12991e-07
4.59899e-08
7.65148e-08
1.20824e-07
5.05277e-08
1.17154e-07
3.80602e-08
5.27992e-08
1.10569e-07
4.12426e-08
6.45463e-08
8.26751e-08
5.55856e-08
1.14931e-07
5.79385e-08
8.22398e-08
1.01e-07
7.33608e-08
1.25076e-07
7.46347e-08
1.49246e-07
8.69577e-08
9.39701e-08
1.21704e-07
7.38569e-08
7.08722e-10
5.02784e-10
1.96308e-10
9.76943e-10
7.25943e-10
1.46611e-10
7.85263e-10
9.39994e-10
2.69116e-11
3.26733e-10
1.11859e-09
1.02085e-13
1.39731e-10
1.22382e-09
4.87775e-12
2.84641e-11
1.34794e-10
2.04489e-09
1.67574e-12
1.11935e-10
2.53117e-09
8.24812e-13
2.59215e-11
3.47293e-09
3.29455e-12
3.0949e-09
2.28373e-10
2.18833e-11
4.41363e-09
6.08201e-10
1.45403e-10
4.30469e-09
1.41043e-09
7.32242e-10
1.39517e-08
9.07346e-09
2.40134e-09
1.26192e-08
5.36702e-09
2.20773e-09
1.24321e-08
3.51652e-09
7.12875e-09
4.84438e-09
1.51953e-09
7.39183e-09
4.96814e-09
7.18107e-09
1.71581e-09
9.45732e-10
5.50245e-09
3.82426e-09
7.82334e-10
7.00709e-09
1.8566e-09
4.46549e-09
4.24384e-09
1.19795e-09
8.08812e-09
2.62054e-09
5.16681e-09
6.58937e-09
3.8631e-09
8.05712e-09
3.36085e-09
7.15359e-09
3.45926e-09
1.50523e-08
4.50522e-09
1.37074e-08
1.48189e-08
5.35132e-09
1.3508e-08
1.52705e-08
6.45599e-09
1.26064e-08
1.54249e-08
7.21768e-09
1.20348e-08
1.5972e-08
7.67847e-09
1.1965e-08
1.52466e-08
1.8444e-08
4.50521e-09
1.47624e-08
1.81754e-08
4.36965e-09
1.49324e-08
1.84704e-08
4.31044e-09
1.65994e-08
7.52141e-09
2.62638e-08
4.04904e-08
1.28482e-08
3.14394e-08
3.04291e-08
7.98691e-09
1.35358e-08
1.06026e-09
2.20243e-09
4.34641e-10
3.29258e-10
1.40019e-09
6.25501e-10
6.25562e-10
5.32755e-10
7.19395e-10
5.46181e-10
1.05256e-09
1.05539e-09
5.61326e-11
4.63009e-09
4.26268e-10
4.16081e-09
7.5608e-10
1.37179e-09
5.70082e-10
1.33597e-09
1.01189e-10
2.35804e-09
2.67982e-10
2.65809e-09
2.49352e-09
4.96564e-10
2.51059e-09
2.37038e-10
3.34853e-09
2.31884e-09
1.89669e-09
3.02058e-09
2.84511e-10
2.82946e-09
8.70026e-09
1.42435e-08
2.88054e-09
5.73462e-09
1.70685e-08
3.53025e-09
4.07156e-09
1.95302e-08
4.12938e-09
3.12323e-09
2.07779e-08
4.09865e-09
2.37332e-09
2.07544e-08
3.79739e-09
1.69677e-09
8.96159e-09
1.01947e-08
1.20667e-09
7.05408e-09
8.98227e-09
7.31384e-10
5.69773e-09
7.34337e-09
3.79458e-10
1.44306e-08
4.56848e-10
1.45678e-12
1.2197e-08
2.98961e-10
8.20582e-11
1.26168e-08
5.49309e-10
1.44099e-08
7.92987e-08
3.88341e-08
4.38596e-08
6.33848e-08
3.13554e-08
4.48008e-08
5.47157e-08
3.27571e-08
6.2891e-08
3.20804e-08
3.41444e-08
5.96305e-08
2.84913e-08
5.69919e-08
3.00701e-08
2.29458e-08
5.2032e-08
3.16267e-08