/*--------------------------------*- C++ -*----------------------------------*\
| =========                 |                                                 |
| \\      /  F ield         | OpenFOAM: The Open Source CFD Toolbox           |
|  \\    /   O peration     | Version:  v2012                                 |
|   \\  /    A nd           | Website:  www.openfoam.com                      |
|    \\/     M anipulation  |                                                 |
\*---------------------------------------------------------------------------*/
FoamFile
{
    version     2.0;
    format      ascii;
    class       volScalarField;
    location    "1e-06";
    object      nut;
}
// * * * * * * * * * * * * * * * * * * * * * * * * * * * * * * * * * * * * * //

dimensions      [0 2 -1 0 0 0 0];


internalField   nonuniform List<scalar> 
10295
(
8.12016e-06
8.01978e-06
8.30857e-06
8.15392e-06
8.02497e-06
8.32078e-06
8.17981e-06
8.02814e-06
8.3447e-06
8.21667e-06
8.08258e-06
8.39916e-06
8.27276e-06
8.13165e-06
8.45922e-06
8.30869e-06
8.23799e-06
8.77056e-06
8.38957e-06
8.24547e-06
8.50475e-06
8.39864e-06
8.49567e-06
7.81396e-06
8.29076e-06
8.67465e-06
8.26369e-06
8.41053e-06
8.71787e-06
8.50164e-06
8.29798e-06
8.72302e-06
8.49667e-06
8.48599e-06
7.73302e-06
8.2329e-06
8.43346e-06
8.2975e-06
8.26127e-06
8.50058e-06
8.35005e-06
8.44451e-06
8.19949e-06
8.28723e-06
8.58703e-06
8.4146e-06
8.49805e-06
7.79477e-06
8.33674e-06
8.62789e-06
8.48881e-06
8.62383e-06
8.41668e-06
8.4904e-06
7.87576e-06
8.27812e-06
8.50244e-06
8.36214e-06
9.5509e-06
9.92128e-06
9.88573e-06
9.51876e-06
9.96433e-06
9.92678e-06
9.49906e-06
9.86372e-06
9.95912e-06
9.50854e-06
9.90553e-06
1.00139e-05
9.57715e-06
9.97157e-06
1.00771e-05
9.65739e-06
1.01514e-05
1.01479e-05
9.77214e-06
1.01686e-05
1.01271e-05
9.88057e-06
1.02354e-05
1.08485e-05
9.99813e-06
1.02376e-05
1.09129e-05
1.00941e-05
1.02918e-05
9.76807e-06
1.0113e-05
1.02583e-05
9.88447e-06
1.02574e-05
1.06514e-05
9.93254e-06
1.01484e-05
9.57841e-06
1.01666e-05
1.01116e-05
9.84261e-06
1.01936e-05
9.57024e-06
1.00089e-05
1.02066e-05
9.85459e-06
1.02587e-05
9.59514e-06
1.00652e-05
1.02391e-05
9.97637e-06
1.03737e-05
9.6839e-06
1.0472e-05
1.08219e-05
9.92035e-06
1.01922e-05
9.76022e-06
1.31238e-05
1.35681e-05
1.34812e-05
1.30743e-05
1.36103e-05
1.35446e-05
1.3043e-05
1.34754e-05
1.35767e-05
1.30196e-05
1.34968e-05
1.36045e-05
1.30829e-05
1.35584e-05
1.36587e-05
1.31788e-05
1.38103e-05
1.37159e-05
1.33261e-05
1.38465e-05
1.36268e-05
1.34556e-05
1.38941e-05
1.34473e-05
1.35589e-05
1.38859e-05
1.29142e-05
1.36e-05
1.38884e-05
1.31523e-05
1.3668e-05
1.37071e-05
1.33545e-05
1.37915e-05
1.42055e-05
1.32776e-05
1.34882e-05
1.26961e-05
1.35427e-05
1.3301e-05
1.30749e-05
1.35248e-05
1.25118e-05
1.327e-05
1.3399e-05
1.30322e-05
1.3566e-05
1.25447e-05
1.32991e-05
1.33757e-05
1.31385e-05
1.36575e-05
1.27885e-05
1.39688e-05
1.37848e-05
1.31957e-05
1.34772e-05
1.29528e-05
1.34243e-05
1.38011e-05
1.39975e-05
1.34262e-05
1.3847e-05
1.40002e-05
1.34542e-05
1.36948e-05
1.40163e-05
1.34751e-05
1.37169e-05
1.40619e-05
1.3545e-05
1.37903e-05
1.4158e-05
1.36186e-05
1.40412e-05
1.43556e-05
1.37792e-05
1.41299e-05
1.45148e-05
1.38448e-05
1.42217e-05
1.469e-05
1.39079e-05
1.42461e-05
1.46946e-05
1.40727e-05
1.44052e-05
1.39615e-05
1.41002e-05
1.46113e-05
1.39555e-05
1.4388e-05
1.48172e-05
1.40444e-05
1.44812e-05
1.39912e-05
1.44183e-05
1.47125e-05
1.40339e-05
1.45062e-05
1.46564e-05
1.42252e-05
1.4748e-05
1.40985e-05
1.46001e-05
1.47278e-05
1.42706e-05
1.48158e-05
1.41911e-05
1.47382e-05
1.45249e-05
1.50961e-05
1.55275e-05
1.4354e-05
1.49004e-05
1.4205e-05
1.39884e-05
1.38606e-05
1.4428e-05
1.40856e-05
1.38897e-05
1.43053e-05
1.42406e-05
1.39823e-05
1.43199e-05
1.4331e-05
1.39408e-05
1.42828e-05
1.43124e-05
1.37827e-05
1.38191e-05
1.32816e-05
1.25168e-05
1.26898e-05
1.55461e-05
1.70274e-05
1.6749e-05
1.70076e-05
1.84405e-05
1.88767e-05
1.79707e-05
1.83216e-05
1.7666e-05
1.66658e-05
1.67374e-05
1.74444e-05
1.71298e-05
1.7168e-05
1.62188e-05
1.49226e-05
1.45882e-05
1.5056e-05
1.63436e-05
1.71795e-05
1.61595e-05
1.75618e-05
1.67167e-05
1.67244e-05
1.78838e-05
1.68675e-05
1.79219e-05
1.73455e-05
1.71952e-05
1.82717e-05
1.72755e-05
1.82704e-05
1.71689e-05
1.69304e-05
1.77464e-05
1.72117e-05
1.93972e-05
1.803e-05
1.86384e-05
1.78078e-05
2.19529e-05
2.26055e-05
2.2518e-05
2.19094e-05
2.26796e-05
2.262e-05
2.18858e-05
2.24538e-05
2.26665e-05
2.18366e-05
2.2441e-05
2.26537e-05
2.18762e-05
2.24848e-05
2.26938e-05
2.19921e-05
1.95169e-05
1.81635e-05
2.21612e-05
2.2897e-05
2.26374e-05
2.23096e-05
2.29562e-05
2.25269e-05
2.2426e-05
2.28509e-05
2.19733e-05
2.26419e-05
2.29616e-05
2.19712e-05
2.27593e-05
2.2752e-05
2.22177e-05
2.1826e-05
1.92511e-05
2.2191e-05
2.26442e-05
2.16506e-05
2.26533e-05
2.23933e-05
2.19708e-05
2.26572e-05
2.16688e-05
2.22559e-05
2.25228e-05
2.19489e-05
2.27278e-05
2.19385e-05
2.22533e-05
2.24579e-05
2.19283e-05
2.26752e-05
2.19628e-05
2.33499e-05
2.34886e-05
2.2758e-05
2.32678e-05
2.24094e-05
2.24229e-05
2.29388e-05
2.33021e-05
2.2472e-05
2.30186e-05
2.33207e-05
2.25472e-05
2.27801e-05
2.3344e-05
2.25702e-05
2.27703e-05
2.3353e-05
2.26181e-05
2.28321e-05
2.34534e-05
2.26912e-05
2.3209e-05
1.99376e-05
2.28902e-05
2.33395e-05
2.38158e-05
2.29333e-05
2.34703e-05
2.39348e-05
2.29669e-05
2.34822e-05
2.37877e-05
2.31265e-05
2.37114e-05
2.31581e-05
2.32249e-05
2.39634e-05
2.30913e-05
2.37026e-05
2.2365e-05
2.31839e-05
2.38353e-05
2.32919e-05
2.37969e-05
2.40925e-05
2.32185e-05
2.38915e-05
2.36783e-05
2.34218e-05
2.41969e-05
2.33496e-05
2.40378e-05
2.40748e-05
2.34755e-05
2.42346e-05
2.33568e-05
2.4122e-05
2.40593e-05
2.47457e-05
2.54658e-05
2.42721e-05
2.51223e-05
2.41407e-05
2.71044e-05
2.782e-05
2.79099e-05
2.71153e-05
2.79201e-05
2.80088e-05
2.71471e-05
2.76455e-05
2.80648e-05
2.71372e-05
2.76264e-05
2.80505e-05
2.71658e-05
2.76682e-05
2.80945e-05
2.34033e-05
1.91589e-05
1.88682e-05
2.59984e-05
2.81656e-05
2.81544e-05
2.75258e-05
2.82391e-05
2.86949e-05
2.76712e-05
2.81257e-05
2.86641e-05
2.78932e-05
2.83288e-05
2.74491e-05
2.79158e-05
2.82774e-05
2.74979e-05
2.68071e-05
2.36124e-05
2.62721e-05
2.81159e-05
2.7308e-05
2.81559e-05
2.80971e-05
2.73796e-05
2.81603e-05
2.76654e-05
2.76508e-05
2.82127e-05
2.74447e-05
2.82835e-05
2.79031e-05
2.77144e-05
2.82435e-05
2.74185e-05
2.82935e-05
2.79953e-05
2.90446e-05
2.99828e-05
2.86412e-05
2.94034e-05
2.84306e-05
2.76949e-05
2.8168e-05
2.8775e-05
2.78366e-05
2.82738e-05
2.8781e-05
2.79959e-05
2.80017e-05
2.88114e-05
2.8068e-05
2.79936e-05
2.8822e-05
2.81063e-05
2.80482e-05
2.89331e-05
2.74191e-05
2.32942e-05
2.16884e-05
2.83127e-05
2.86504e-05
2.94856e-05
2.83159e-05
2.88315e-05
2.97685e-05
2.82935e-05
2.88297e-05
2.92409e-05
2.8388e-05
2.91393e-05
2.87458e-05
2.84534e-05
2.95854e-05
2.85275e-05
2.79284e-05
2.48439e-05
2.77673e-05
2.9016e-05
2.89526e-05
2.91209e-05
2.99046e-05
2.87557e-05
2.94122e-05
2.94523e-05
2.87737e-05
2.99481e-05
2.89497e-05
2.95828e-05
2.97102e-05
2.88598e-05
3.00192e-05
2.88566e-05
2.96435e-05
2.99172e-05
3.03131e-05
3.1697e-05
3.01386e-05
3.11339e-05
3.01112e-05
2.02623e-05
1.93069e-05
2.11657e-05
2.07361e-05
1.94268e-05
2.09019e-05
2.12521e-05
1.9772e-05
2.08836e-05
2.15605e-05
1.97229e-05
2.08821e-05
2.14604e-05
1.95657e-05
2.0817e-05
2.05121e-05
1.75363e-05
1.8711e-05
2.22535e-05
2.39697e-05
2.88441e-05
3.00403e-05
3.42415e-05
3.45591e-05
3.33661e-05
2.91444e-05
2.75087e-05
2.23946e-05
2.27489e-05
2.46632e-05
2.24286e-05
2.38191e-05
2.09602e-05
1.82901e-05
2.03504e-05
1.8353e-05
1.93549e-05
2.25843e-05
2.14898e-05
2.60627e-05
2.30006e-05
2.27952e-05
2.57227e-05
2.29949e-05
2.57246e-05
2.3454e-05
2.27537e-05
2.60794e-05
2.33279e-05
2.58716e-05
2.3619e-05
2.31936e-05
2.49192e-05
2.27125e-05
3.08468e-05
3.25308e-05
3.351e-05
2.99724e-05
3.56071e-05
3.95614e-05
3.91719e-05
3.51686e-05
3.97022e-05
3.93914e-05
3.51006e-05
3.93308e-05
3.95111e-05
3.49986e-05
3.48647e-05
3.94869e-05
3.47402e-05
3.42396e-05
3.39687e-05
3.47638e-05
3.24372e-05
3.1969e-05
3.85945e-05
3.98796e-05
3.92184e-05
3.88297e-05
3.98735e-05
3.89862e-05
3.89323e-05
3.95689e-05
3.82635e-05
3.90116e-05
3.72967e-05
3.75496e-05
3.65244e-05
3.12186e-05
2.80442e-05
2.47518e-05
2.77263e-05
3.1408e-05
2.73269e-05
2.92694e-05
3.77551e-05
3.38299e-05
3.86418e-05
3.96294e-05
3.59454e-05
3.79051e-05
3.33971e-05
3.66419e-05
3.97902e-05
3.47189e-05
3.91711e-05
3.39821e-05
3.80739e-05
3.70392e-05
3.38956e-05
3.39536e-05
4.09425e-05
4.06059e-05
4.12319e-05
4.03116e-05
3.91261e-05
4.00228e-05
4.03093e-05
3.92456e-05
4.01599e-05
4.04473e-05
3.93967e-05
3.9748e-05
4.05363e-05
3.94789e-05
3.97415e-05
4.05239e-05
3.95062e-05
3.9766e-05
4.05414e-05
3.95312e-05
4.04006e-05
3.74234e-05
3.97354e-05
4.05313e-05
4.06497e-05
3.97693e-05
4.06887e-05
4.07107e-05
3.97354e-05
4.05762e-05
3.97765e-05
3.99016e-05
4.07602e-05
3.99432e-05
4.00192e-05
3.81987e-05
3.62882e-05
3.02658e-05
2.90072e-05
3.36431e-05
3.32259e-05
3.33447e-05
4.05118e-05
3.83384e-05
4.00818e-05
4.10816e-05
4.00161e-05
4.0416e-05
4.01414e-05
4.03274e-05
4.13227e-05
3.96637e-05
4.05378e-05
4.12138e-05
4.03844e-05
4.14373e-05
4.14646e-05
4.24577e-05
4.3032e-05
4.22346e-05
4.31864e-05
4.22486e-05
4.14724e-05
4.63778e-05
4.32508e-05
4.11308e-05
4.31211e-05
4.48221e-05
4.12308e-05
4.11684e-05
4.54021e-05
4.13687e-05
4.09748e-05
4.05419e-05
4.08948e-05
4.0114e-05
3.99143e-05
4.07861e-05
3.82802e-05
3.61632e-05
4.46269e-05
4.66999e-05
4.60301e-05
4.54857e-05
4.67106e-05
4.58525e-05
4.32518e-05
3.99647e-05
3.74829e-05
4.00693e-05
4.11669e-05
4.27085e-05
3.95879e-05
3.68711e-05
3.45132e-05
2.9266e-05
2.85961e-05
3.1198e-05
3.18981e-05
3.06566e-05
3.37192e-05
3.72406e-05
4.02511e-05
4.21258e-05
3.96321e-05
4.06114e-05
3.98045e-05
4.31322e-05
4.31686e-05
3.96118e-05
4.0071e-05
4.61896e-05
4.55471e-05
4.66874e-05
4.59814e-05
4.27942e-05
4.45503e-05
4.77019e-05
4.84539e-05
4.75548e-05
4.59097e-05
4.69371e-05
4.60481e-05
4.60653e-05
4.7015e-05
4.64013e-05
4.62552e-05
4.65368e-05
4.66248e-05
4.63646e-05
4.65378e-05
4.64692e-05
4.6393e-05
4.6271e-05
4.53883e-05
4.64102e-05
4.4835e-05
3.97567e-05
4.66063e-05
4.74922e-05
4.7578e-05
4.662e-05
4.76663e-05
4.76382e-05
4.65259e-05
4.39343e-05
4.33442e-05
4.32892e-05
4.35876e-05
4.38768e-05
4.47e-05
3.76173e-05
3.3282e-05
2.8767e-05
2.88252e-05
3.17915e-05
3.69315e-05
3.53609e-05
3.55281e-05
4.00281e-05
4.33752e-05
4.41098e-05
4.37499e-05
4.33806e-05
4.28628e-05
4.60579e-05
4.61623e-05
4.77878e-05
4.7381e-05
4.81386e-05
4.72929e-05
4.84134e-05
4.61165e-05
4.4515e-05
4.7181e-05
4.93779e-05
5.04688e-05
4.95584e-05
4.55802e-05
5.25827e-05
4.89597e-05
4.53518e-05
4.48473e-05
5.04745e-05
4.59295e-05
4.50341e-05
4.52787e-05
4.61459e-05
4.49489e-05
4.51807e-05
4.5683e-05
4.40652e-05
4.4511e-05
4.53804e-05
4.20393e-05
3.94423e-05
4.98915e-05
5.43893e-05
5.35749e-05
5.29471e-05
5.43851e-05
4.46756e-05
4.69024e-05
4.17992e-05
5.00588e-05
4.05194e-05
3.93492e-05
3.888e-05
3.85117e-05
3.82731e-05
3.53819e-05
3.19394e-05
2.98048e-05
3.10132e-05
3.58264e-05
3.77988e-05
3.30014e-05
3.6926e-05
4.08003e-05
4.40344e-05
4.45901e-05
4.83554e-05
4.32155e-05
5.02441e-05
5.4165e-05
5.29125e-05
5.34939e-05
5.09713e-05
4.77961e-05
4.47586e-05
4.18972e-05
3.98959e-05
4.38807e-05
4.8035e-05
5.62135e-05
5.53809e-05
5.35295e-05
5.16997e-05
5.14443e-05
5.36961e-05
5.18342e-05
5.18204e-05
5.31038e-05
5.28472e-05
5.23102e-05
5.32507e-05
5.2611e-05
5.21503e-05
5.27356e-05
5.15075e-05
5.11178e-05
5.23894e-05
5.01352e-05
4.37256e-05
5.42777e-05
5.5336e-05
5.52972e-05
5.42938e-05
5.55148e-05
5.43664e-05
4.88046e-05
4.42029e-05
4.4564e-05
4.44527e-05
4.66123e-05
4.32071e-05
4.3585e-05
4.59397e-05
3.92825e-05
3.3328e-05
3.05869e-05
3.28277e-05
3.39381e-05
4.0715e-05
3.76095e-05
3.4126e-05
3.94159e-05
4.35322e-05
4.50478e-05
5.03609e-05
4.88781e-05
5.4716e-05
5.59991e-05
5.59693e-05
5.49829e-05
4.94276e-05
4.61614e-05
4.51726e-05
4.46563e-05
4.37493e-05
4.60022e-05
5.73392e-05
5.84659e-05
5.76302e-05
5.22348e-05
5.58417e-05
5.22584e-05
5.26717e-05
5.10215e-05
5.27216e-05
5.34349e-05
5.23224e-05
5.27178e-05
5.37851e-05
5.22693e-05
5.26732e-05
5.32232e-05
5.12131e-05
5.18758e-05
5.25933e-05
4.89485e-05
4.39648e-05
5.99793e-05
6.31196e-05
6.19902e-05
6.13833e-05
5.26576e-05
4.58125e-05
4.64171e-05
4.09355e-05
3.82757e-05
4.21553e-05
4.49611e-05
4.41182e-05
4.06402e-05
3.61686e-05
3.4096e-05
2.96191e-05
2.96202e-05
3.1842e-05
3.42779e-05
3.97729e-05
6.02456e-05
3.84265e-05
3.05959e-05
3.23524e-05
4.02908e-05
6.12046e-05
5.00879e-05
4.75103e-05
5.19948e-05
4.67575e-05
4.76936e-05
4.61413e-05
4.45435e-05
4.40882e-05
4.33944e-05
4.20438e-05
4.76436e-05
6.43426e-05
6.44613e-05
6.04193e-05
6.20805e-05
6.3596e-05
6.35562e-05
6.22287e-05
6.37069e-05
6.37242e-05
6.24298e-05
6.2761e-05
6.37931e-05
6.25429e-05
6.27411e-05
6.37595e-05
6.25656e-05
6.27632e-05
6.37402e-05
6.25812e-05
6.39233e-05
5.89914e-05
6.26648e-05
5.47553e-05
5.63196e-05
4.17733e-05
3.15774e-05
3.46622e-05
3.26829e-05
3.4009e-05
4.18161e-05
4.82506e-05
5.16451e-05
5.03083e-05
5.89949e-05
5.24408e-05
5.13259e-05
6.07755e-05
5.425e-05
6.30608e-05
5.89856e-05
5.50052e-05
6.45113e-05
6.40679e-05
6.31637e-05
6.4512e-05
6.41089e-05
6.34695e-05
6.4399e-05
6.3458e-05
6.47537e-05
6.49331e-05
6.36875e-05
6.45569e-05
6.36649e-05
6.49796e-05
6.51216e-05
6.64813e-05
6.76022e-05
6.63829e-05
6.75434e-05
6.67233e-05
6.33825e-05
6.38358e-05
6.31243e-05
6.37161e-05
6.42171e-05
6.40604e-05
6.4011e-05
6.33321e-05
6.43969e-05
6.41565e-05
6.33554e-05
6.39362e-05
6.41826e-05
6.33999e-05
6.18388e-05
6.41761e-05
6.45764e-05
4.87895e-05
6.43428e-05
6.48499e-05
6.5792e-05
6.42534e-05
5.07949e-05
5.08667e-05
4.67541e-05
4.49379e-05
4.3986e-05
4.7972e-05
4.76422e-05
4.41223e-05
4.88905e-05
4.29325e-05
3.8781e-05
3.77391e-05
3.675e-05
4.06155e-05
3.91114e-05
4.2725e-05
5.98201e-05
5.54849e-05
6.11022e-05
5.21416e-05
4.51937e-05
6.44139e-05
5.07386e-05
5.11451e-05
5.09816e-05
5.73962e-05
6.46546e-05
5.19296e-05
5.55865e-05
5.2676e-05
5.11193e-05
5.3945e-05
6.09695e-05
6.77466e-05
6.69258e-05
6.8363e-05
5.93714e-05
5.56315e-05
5.98089e-05
5.99628e-05
5.64141e-05
5.99855e-05
6.11596e-05
5.8175e-05
6.02271e-05
6.16292e-05
5.8413e-05
6.02928e-05
6.1338e-05
5.78167e-05
5.96444e-05
6.18602e-05
5.31478e-05
4.83227e-05
6.82561e-05
7.40002e-05
7.02294e-05
6.16731e-05
5.20223e-05
5.08353e-05
4.89349e-05
4.76439e-05
4.41452e-05
4.39421e-05
4.47299e-05
4.33242e-05
4.15628e-05
4.32392e-05
3.82027e-05
3.4011e-05
3.34184e-05
3.30024e-05
3.75569e-05
3.92422e-05
4.02413e-05
6.20935e-05
6.01994e-05
6.07095e-05
4.45427e-05
4.17288e-05
4.51744e-05
4.57481e-05
4.57863e-05
4.68917e-05
4.55413e-05
6.02111e-05
7.29831e-05
6.12408e-05
7.46621e-05
6.11649e-05
6.04879e-05
5.96973e-05
6.33088e-05
6.25952e-05
6.85099e-05
6.76942e-05
6.80565e-05
6.96759e-05
6.86079e-05
6.89654e-05
7.12216e-05
6.98639e-05
6.92183e-05
7.16999e-05
7.00052e-05
6.87885e-05
7.11666e-05
6.88697e-05
6.67488e-05
6.94113e-05
6.94277e-05
5.11848e-05
7.4329e-05
7.53373e-05
6.63623e-05
5.66477e-05
4.85487e-05
4.76079e-05
4.76502e-05
4.73875e-05
4.65193e-05
5.31456e-05
4.67362e-05
4.49906e-05
4.40323e-05
4.50944e-05
4.23515e-05
3.79806e-05
4.10851e-05
4.13329e-05
4.26765e-05
4.40076e-05
4.29781e-05
6.16163e-05
7.48124e-05
6.34962e-05
5.34e-05
4.72734e-05
4.91856e-05
4.93127e-05
4.88056e-05
4.95392e-05
5.48662e-05
7.15519e-05
7.54643e-05
7.69358e-05
7.15817e-05
7.29549e-05
6.09022e-05
6.63521e-05
6.82388e-05
6.54292e-05
6.5564e-05
6.26593e-05
6.74424e-05
6.77982e-05
6.38962e-05
6.80218e-05
6.91799e-05
6.57269e-05
6.8253e-05
6.93856e-05
6.59264e-05
6.81234e-05
6.87542e-05
6.50849e-05
6.66308e-05
7.08057e-05
5.52215e-05
5.33031e-05
7.22978e-05
7.17572e-05
6.22065e-05
5.29772e-05
4.77281e-05
5.34036e-05
4.60496e-05
4.59974e-05
4.39719e-05
5.69282e-05
4.54424e-05
5.00728e-05
4.82774e-05
4.02178e-05
3.87005e-05
3.68821e-05
3.96288e-05
3.8333e-05
3.80522e-05
4.2913e-05
4.79576e-05
4.87408e-05
5.65666e-05
6.47888e-05
5.91554e-05
6.12986e-05
6.22782e-05
4.86562e-05
8.4867e-05
8.49262e-05
8.44968e-05
8.59088e-05
6.14464e-05
5.60272e-05
5.70562e-05
5.75968e-05
5.59773e-05
6.37195e-05
6.01807e-05
6.06202e-05
7.80472e-05
7.7235e-05
7.83202e-05
8.03209e-05
7.78475e-05
7.88079e-05
8.18442e-05
7.85903e-05
7.88171e-05
8.17907e-05
7.86166e-05
7.791e-05
8.00782e-05
7.69977e-05
7.46222e-05
7.52969e-05
6.83136e-05
5.32447e-05
7.24861e-05
6.59947e-05
5.67369e-05
4.87179e-05
4.66968e-05
4.4035e-05
4.55992e-05
4.63051e-05
4.33092e-05
4.86953e-05
4.77388e-05
5.23863e-05
4.67157e-05
4.67145e-05
4.40352e-05
4.19146e-05
4.26772e-05
4.09827e-05
4.07861e-05
4.75918e-05
5.17003e-05
5.42022e-05
5.65914e-05
7.05232e-05
6.97824e-05
6.53259e-05
7.72267e-05
8.6958e-05
8.81764e-05
8.80252e-05
8.71937e-05
8.85331e-05
6.31342e-05
6.15839e-05
6.46696e-05
6.72933e-05
6.7063e-05
6.8438e-05
7.03516e-05
8.69593e-05
8.00119e-05
7.7804e-05
7.92437e-05
8.05359e-05
7.8031e-05
7.99271e-05
8.01634e-05
7.55782e-05
7.82242e-05
7.95597e-05
7.5421e-05
7.86537e-05
8.04285e-05
7.67045e-05
7.88586e-05
7.97799e-05
7.61039e-05
7.79653e-05
7.73809e-05
7.35682e-05
8.06671e-05
7.29386e-05
5.84587e-05
5.22537e-05
7.06206e-05
5.79575e-05
5.21777e-05
4.44112e-05
4.82822e-05
5.61201e-05
4.45054e-05
4.33634e-05
4.39892e-05
4.0744e-05
4.49013e-05
4.50117e-05
3.56425e-05
4.60371e-05
4.37031e-05
3.93741e-05
3.89436e-05
4.35203e-05
4.37417e-05
3.93924e-05
4.44337e-05
4.87894e-05
5.00861e-05
5.7851e-05
8.40326e-05
9.75056e-05
9.80444e-05
9.70461e-05
9.64619e-05
6.74163e-05
6.65817e-05
6.10172e-05
6.57097e-05
6.22242e-05
6.41623e-05
6.17008e-05
5.83328e-05
6.25607e-05
7.77424e-05
9.76512e-05
0.000101796
9.89673e-05
0.000101117
0.00010071
9.85877e-05
0.000100836
0.000100404
9.86437e-05
0.00010084
0.000100438
9.88401e-05
0.000100863
0.0001005
9.9058e-05
9.89299e-05
0.000100431
9.91462e-05
9.88419e-05
0.00010032
9.91093e-05
9.882e-05
9.43002e-05
8.53852e-05
6.6414e-05
5.30429e-05
5.49824e-05
4.01243e-05
3.83246e-05
3.40546e-05
3.27878e-05
3.59891e-05
3.49552e-05
3.59464e-05
3.86841e-05
4.09245e-05
4.38814e-05
4.50445e-05
4.72822e-05
4.27881e-05
5.31185e-05
5.35562e-05
5.03644e-05
6.69436e-05
4.8036e-05
4.68648e-05
7.10677e-05
5.7502e-05
7.38736e-05
0.000101433
0.000101094
9.99428e-05
0.000101722
0.000100806
0.000102204
0.000102264
0.000101075
0.000102472
0.00010158
0.00010302
0.00010363
0.000104957
0.000106709
0.000104801
0.000106433
0.000105783
9.20414e-05
9.80714e-05
9.46483e-05
9.35166e-05
9.48307e-05
9.68511e-05
9.48403e-05
9.36302e-05
9.84601e-05
9.61828e-05
9.40036e-05
9.8899e-05
9.63791e-05
9.35597e-05
9.9232e-05
9.67568e-05
9.22749e-05
9.72676e-05
9.82571e-05
8.86723e-05
9.26734e-05
9.1529e-05
8.06594e-05
8.26284e-05
6.56884e-05
5.41776e-05
6.90498e-05
5.56563e-05
4.91876e-05
4.52627e-05
4.70291e-05
4.73176e-05
4.69777e-05
4.61281e-05
4.63665e-05
4.70713e-05
5.27572e-05
4.63999e-05
4.29461e-05
4.67255e-05
4.6986e-05
4.37946e-05
4.55686e-05
5.3834e-05
7.86302e-05
5.94741e-05
3.3983e-05
5.52585e-05
7.20717e-05
7.01202e-05
0.000102633
0.000101977
6.954e-05
9.33795e-05
0.000104226
8.82495e-05
9.10728e-05
0.0001045
7.27356e-05
6.99668e-05
6.25634e-05
8.02213e-05
6.81587e-05
9.26045e-05
9.95632e-05
0.000101329
9.01837e-05
9.00131e-05
9.44079e-05
8.9427e-05
8.64766e-05
9.36563e-05
9.07606e-05
8.66511e-05
9.35999e-05
9.22895e-05
8.64182e-05
9.2925e-05
9.28287e-05
8.6738e-05
9.23982e-05
9.29519e-05
8.85196e-05
9.14126e-05
9.33893e-05
8.72918e-05
8.88798e-05
9.01091e-05
8.42168e-05
8.15053e-05
7.88775e-05
6.39512e-05
5.49148e-05
7.27644e-05
5.36051e-05
4.76645e-05
4.48554e-05
5.59352e-05
4.70031e-05
4.7627e-05
4.69056e-05
4.87083e-05
4.61519e-05
5.82021e-05
5.20759e-05
6.00085e-05
5.29857e-05
4.19032e-05
4.45506e-05
4.78319e-05
4.29946e-05
8.32752e-05
0.000114617
0.000115699
5.06608e-05
5.87667e-05
5.89237e-05
5.64136e-05
6.2211e-05
6.25084e-05
6.31206e-05
6.52703e-05
6.42855e-05
6.51961e-05
6.57742e-05
6.33659e-05
6.20517e-05
5.84643e-05
5.45796e-05
7.29278e-05
0.000113454
9.1786e-05
9.28531e-05
0.000106454
0.000105574
0.000114608
0.000105168
0.000103219
0.00011054
0.000107367
0.000104964
0.000107583
0.000108355
0.000104581
0.000105415
0.000108979
0.000104173
0.000103804
0.000108211
0.000102692
0.000101815
0.000104184
0.000101878
9.65812e-05
9.64669e-05
9.19703e-05
8.58745e-05
8.22957e-05
6.75328e-05
5.59436e-05
6.70142e-05
5.01458e-05
4.61139e-05
4.4293e-05
4.52969e-05
4.67664e-05
4.7591e-05
4.73752e-05
4.88428e-05
4.56176e-05
5.33555e-05
4.61057e-05
4.7587e-05
4.29278e-05
3.69759e-05
5.06587e-05
5.01432e-05
4.67662e-05
4.82266e-05
3.81037e-05
0.000118718
0.000118453
4.81434e-05
5.7063e-05
6.15244e-05
6.85662e-05
7.45167e-05
7.06179e-05
6.57611e-05
6.72444e-05
6.73815e-05
7.25772e-05
7.58698e-05
8.51249e-05
0.00011548
0.000122525
0.000123484
0.000117623
0.000102576
0.000107666
0.000102297
0.000103446
0.000102989
0.000103432
0.000102009
0.000102794
0.000105351
0.000102214
0.000103253
0.000105096
0.000100352
0.000102791
0.000104374
9.90016e-05
0.00010191
0.000101962
9.82264e-05
0.00010053
0.000100054
0.000100162
9.622e-05
8.92399e-05
8.58932e-05
8.41201e-05
7.66964e-05
6.30646e-05
5.44963e-05
6.52518e-05
4.56758e-05
4.49504e-05
4.48498e-05
6.09429e-05
4.73446e-05
4.73973e-05
4.62095e-05
4.91793e-05
4.80027e-05
4.20721e-05
5.16648e-05
4.48931e-05
2.82652e-05
4.53397e-05
5.11545e-05
4.44512e-05
4.92467e-05
4.86834e-05
5.98044e-05
4.61102e-05
4.5577e-05
4.52578e-05
4.65659e-05
5.76054e-05
6.49815e-05
6.14429e-05
6.1678e-05
6.05956e-05
5.93517e-05
5.65511e-05
5.99092e-05
8.20934e-05
0.000101349
0.000105744
0.000129134
0.00012481
9.79939e-05
9.52728e-05
9.91741e-05
0.000133214
0.000135497
0.000135332
0.000132816
0.000135279
0.00013499
0.000132582
0.000135075
0.000134633
0.000132759
0.000135147
0.00013463
0.000133047
0.000135215
0.000134691
0.000133329
0.000132877
0.000134618
0.000131514
0.000125778
0.000113722
0.000102623
9.26872e-05
8.18821e-05
7.32946e-05
6.06922e-05
5.0274e-05
4.99299e-05
3.56878e-05
3.61011e-05
3.74866e-05
3.69543e-05
3.91491e-05
3.92451e-05
3.90202e-05
4.21767e-05
4.29012e-05
4.38824e-05
5.74352e-05
5.4337e-05
7.7767e-05
6.07415e-05
3.95049e-05
6.46898e-05
6.8368e-05
6.23594e-05
6.76579e-05
9.16794e-05
9.83146e-05
0.000134835
7.05109e-05
7.98246e-05
8.59194e-05
7.42294e-05
8.20982e-05
9.48558e-05
0.000108276
0.000135862
0.000137332
0.000136601
0.000138339
0.000139156
0.000140434
0.000129917
0.000140901
0.000142367
0.000141918
0.000125147
0.000122891
0.000130228
0.000125274
0.000121293
0.000124539
0.000127323
0.000125198
0.000120484
0.000126713
0.000124248
0.000117603
0.000124828
0.000124258
0.000114132
0.00012203
0.000117675
0.000109978
0.000112146
0.000106856
0.000100367
9.95931e-05
9.4442e-05
8.5223e-05
8.14433e-05
6.78866e-05
5.63726e-05
6.27174e-05
4.58759e-05
4.60858e-05
5.05091e-05
4.99878e-05
5.1175e-05
5.1265e-05
5.02893e-05
5.14026e-05
5.19217e-05
4.75994e-05
5.50403e-05
4.65087e-05
5.03523e-05
4.79743e-05
6.28502e-05
4.57273e-05
5.2948e-05
5.7845e-05
5.77226e-05
6.23245e-05
0.000138156
0.000137226
8.15427e-05
5.93425e-05
5.48573e-05
5.77331e-05
6.63963e-05
8.70697e-05
0.000134185
0.000138006
0.000139782
0.000120741
0.000105701
0.000103893
9.9824e-05
9.50616e-05
0.000111502
0.000113182
0.000137961
0.000119242
0.000119606
0.000119426
0.000118939
0.00011648
0.00011978
0.000121064
0.000115936
0.000119064
0.000119806
0.000113618
0.00011707
0.000122247
0.000110871
0.000120586
0.000114963
0.000113318
0.000110045
0.000104192
0.000101687
9.99242e-05
9.29911e-05
9.00938e-05
8.45959e-05
7.78511e-05
6.57728e-05
5.59913e-05
5.86354e-05
4.44555e-05
4.58274e-05
6.64693e-05
5.65709e-05
5.09774e-05
5.19772e-05
5.10939e-05
5.31719e-05
5.25552e-05
5.08542e-05
4.83022e-05
5.49684e-05
4.85991e-05
7.68188e-05
5.5358e-05
4.84175e-05
4.83902e-05
5.36788e-05
6.42787e-05
6.19327e-05
8.05613e-05
0.00011193
0.000143901
8.56997e-05
5.621e-05
8.33126e-05
0.000153586
0.000115248
0.000114045
9.48143e-05
9.86741e-05
9.6718e-05
9.47765e-05
9.35027e-05
9.60903e-05
9.20984e-05
0.000100305
9.97228e-05
0.000114447
0.000153664
0.000156116
0.000156251
0.000153552
0.000155912
0.000155454
0.000153543
0.000155744
0.000155325
0.000153891
0.00015585
0.000155444
0.000154276
0.000155965
0.000155592
0.00015314
0.000148318
0.00013379
0.000122956
0.000117022
0.000104995
9.48614e-05
8.73975e-05
7.70927e-05
6.94093e-05
6.02872e-05
5.05677e-05
4.52296e-05
3.67448e-05
3.93662e-05
4.08873e-05
4.13169e-05
4.29933e-05
4.34274e-05
4.29635e-05
4.52507e-05
4.57018e-05
4.96822e-05
5.18359e-05
6.30221e-05
5.19349e-05
7.59438e-05
0.000124652
5.96558e-05
6.13924e-05
5.96322e-05
6.9048e-05
9.05573e-05
0.00010415
0.000107794
0.000158089
0.000158336
0.00015681
0.000158033
0.00015774
0.000158655
0.00013782
0.000158376
0.000159481
0.000157786
0.000160545
0.000161648
0.000162677
0.00014971
0.000158461
0.000148616
0.000126586
0.000140381
0.000136045
0.000135835
0.00013916
0.000134866
0.00013019
0.000139613
0.000141615
0.000127667
0.000137321
0.000134577
0.000123509
0.000133024
0.000125461
0.000119103
0.000125641
0.000120675
0.000113659
0.000114241
0.000109387
0.000101107
9.88608e-05
9.33966e-05
8.37426e-05
8.0353e-05
6.88751e-05
5.78217e-05
5.32761e-05
4.59991e-05
5.33514e-05
5.52679e-05
5.47057e-05
5.71044e-05
5.71549e-05
5.59165e-05
5.75816e-05
5.68511e-05
5.84374e-05
5.59392e-05
5.76985e-05
6.68534e-05
4.90294e-05
8.75018e-05
0.00012339
5.23234e-05
5.42309e-05
5.58069e-05
5.41899e-05
5.39631e-05
8.68317e-05
0.00013007
0.000160481
0.000158879
0.00016129
0.000131697
0.00012411
9.62772e-05
0.00010693
0.000101913
0.000106372
0.000105825
0.000110712
0.000113673
0.000106879
0.000127429
0.00013083
0.000122406
0.000134756
0.000134048
0.000136923
0.000134813
0.000130357
0.000135314
0.000137393
0.000129634
0.000133364
0.000136379
0.00012661
0.000128693
0.000129291
0.000123144
0.000124084
0.000122781
0.000120781
0.000118144
0.000111995
0.000110302
0.000104324
9.7199e-05
9.46711e-05
8.49605e-05
7.89137e-05
6.99553e-05
5.84541e-05
5.0751e-05
4.56965e-05
5.72953e-05
7.37571e-05
5.45598e-05
5.57544e-05
5.77094e-05
5.69361e-05
5.89233e-05
5.80677e-05
5.83876e-05
5.94593e-05
4.97039e-05
5.66864e-05
6.12165e-05
6.69219e-05
0.000105425
0.000138663
5.30861e-05
3.79991e-05
5.91159e-05
0.000115843
0.00017719
7.09944e-05
6.15482e-05
7.15165e-05
8.4973e-05
0.000110887
0.000116864
0.000104945
9.95083e-05
0.000102398
0.000102114
0.000103168
0.000108816
0.000110377
0.00011226
0.000118288
0.000127683
0.000133277
0.000150091
0.000149716
0.000154502
0.000149363
0.000150432
0.000149207
0.000150055
0.000145371
0.000143938
0.000146966
0.000141075
0.00013697
0.000140942
0.000135337
0.000130693
0.000130617
0.000127972
0.000122969
0.000115548
0.000113969
0.000106565
9.72565e-05
9.53816e-05
8.49991e-05
7.70342e-05
7.03459e-05
5.87072e-05
5.00729e-05
4.74512e-05
5.40342e-05
5.68585e-05
5.58551e-05
5.7185e-05
5.8687e-05
5.86284e-05
6.06414e-05
6.03306e-05
6.13827e-05
6.28074e-05
6.56319e-05
5.79314e-05
7.38132e-05
7.07734e-05
8.86659e-05
0.000147709
0.000181465
7.34036e-05
3.98332e-05
4.68414e-05
0.000118906
0.000152361
7.93482e-05
7.8645e-05
9.85908e-05
0.000100071
9.87225e-05
0.000106286
0.000109257
0.000113785
0.000114474
0.000114272
0.000126142
0.000140734
0.000128139
0.000141136
0.000141877
0.000130657
0.000141925
0.000142999
0.00013573
0.000146262
0.000138983
0.000133631
0.000138466
0.000136341
0.000132418
0.000134089
0.000130593
0.00012829
0.000127817
0.000123619
0.000123185
0.000117627
0.000116515
0.000117056
0.00010516
0.00010348
0.000102085
9.00794e-05
8.70972e-05
8.26277e-05
7.39824e-05
6.69796e-05
5.78481e-05
4.94461e-05
4.98875e-05
6.86359e-05
6.52692e-05
5.71318e-05
5.99436e-05
6.02493e-05
5.975e-05
6.40368e-05
6.23802e-05
6.21701e-05
6.5429e-05
6.31569e-05
6.62107e-05
7.60595e-05
6.64189e-05
6.90253e-05
8.09829e-05
6.44574e-05
0.000157566
0.000188021
4.12138e-05
5.93324e-05
7.38883e-05
8.70776e-05
0.000110081
9.89295e-05
9.68061e-05
9.75344e-05
9.68738e-05
0.000105804
0.000105893
0.000108523
0.000105248
0.00011033
0.00011305
9.91782e-05
0.00014169
0.000129959
0.000111344
0.000198379
0.000200789
0.000200769
0.000198512
0.000200976
0.000201011
0.000198814
0.000201195
0.000187414
0.000192095
0.000183282
0.000163187
0.000164181
0.000155217
0.000141369
0.000134607
0.000129211
0.000119749
0.000108549
0.00010324
9.44092e-05
8.50312e-05
7.88192e-05
7.07217e-05
6.49251e-05
6.00077e-05
5.07669e-05
4.30421e-05
4.38499e-05
4.89448e-05
5.01319e-05
4.84804e-05
5.04688e-05
5.09856e-05
5.05536e-05
5.37451e-05
5.32514e-05
5.52341e-05
5.88083e-05
5.83879e-05
6.37396e-05
5.85238e-05
6.9573e-05
8.46761e-05
7.09996e-05
7.33065e-05
5.87814e-05
5.00955e-05
0.000179787
0.000115189
0.000118674
0.000123053
0.000155561
0.000163043
0.000160972
0.000157627
0.000160442
0.000181796
0.00017674
0.000178933
0.000165621
0.000186184
0.000162213
0.000140919
9.97693e-05
0.000144061
0.000143251
0.000165602
0.000160901
0.000162892
0.000162939
0.00015739
0.000155879
0.00016076
0.000154699
0.000148442
0.000154352
0.000147412
0.000138751
0.000143841
0.000136819
0.000129334
0.000128375
0.000125316
0.000118853
0.000110924
0.000108729
0.00010138
9.25903e-05
9.01084e-05
8.14557e-05
7.51962e-05
7.12856e-05
6.03188e-05
5.16016e-05
5.63667e-05
6.86422e-05
6.37274e-05
6.26633e-05
6.50175e-05
6.58641e-05
6.53945e-05
6.82841e-05
6.77619e-05
6.88804e-05
7.18646e-05
7.10161e-05
7.48391e-05
7.67757e-05
7.15907e-05
8.10488e-05
7.40835e-05
0.000118202
0.000127843
9.20288e-05
7.16028e-05
6.35745e-05
6.21936e-05
8.71716e-05
0.000108494
0.000113656
0.000119747
0.000112337
0.000121001
0.000130415
0.000132204
0.000138711
0.00013478
0.000159043
0.000198649
0.000142736
0.000133919
0.000112481
0.000133763
0.000156898
0.000157296
0.000147563
0.00015364
0.000152594
0.000145858
0.0001508
0.000148669
0.000142795
0.000144623
0.000140929
0.00013525
0.000135081
0.000130318
0.000126615
0.00012076
0.00011953
0.000117064
0.000105552
0.000103941
9.98681e-05
8.93853e-05
8.6658e-05
8.07409e-05
7.47999e-05
7.10305e-05
6.22401e-05
5.47171e-05
6.83071e-05
7.33788e-05
7.18392e-05
6.35339e-05
6.72117e-05
6.80186e-05
6.78005e-05
7.35354e-05
7.15518e-05
7.14724e-05
7.65715e-05
7.44277e-05
7.70913e-05
7.84281e-05
7.99689e-05
7.92523e-05
9.32931e-05
7.34149e-05
0.000111339
0.000115852
0.000231604
0.000159593
6.25031e-05