/*--------------------------------*- C++ -*----------------------------------*\
| =========                 |                                                 |
| \\      /  F ield         | OpenFOAM: The Open Source CFD Toolbox           |
|  \\    /   O peration     | Version:  v2012                                 |
|   \\  /    A nd           | Website:  www.openfoam.com                      |
|    \\/     M anipulation  |                                                 |
\*---------------------------------------------------------------------------*/
FoamFile
{
    version     2.0;
    format      ascii;
    class       volScalarField;
    location    "1e-06";
    object      omega;
}
// * * * * * * * * * * * * * * * * * * * * * * * * * * * * * * * * * * * * * //

dimensions      [0 0 -1 0 0 0 0];


internalField   nonuniform List<scalar> 
10295
(
216801
224432
211959
219927
229780
216698
223844
236809
221439
228155
240103
224596
230476
242463
226013
232706
242320
235845
237181
240552
230122
240175
245751
285624
245676
247955
304518
254475
242400
247024
254275
239423
247931
248804
289915
247955
237856
245132
250690
238386
247600
244607
257675
256493
240739
251410
249622
297894
263223
247105
258661
254242
261959
259176
298643
263127
250829
269420
168046
159681
161336
172372
162082
163892
176693
169441
166850
180686
172229
169283
182441
173809
170845
183404
171250
172198
182739
172643
174988
183538
174613
162679
182414
177231
165031
183988
178369
198753
185847
181589
194534
183245
177016
194024
186449
205002
187473
189420
198975
188817
209794
197208
191098
203939
192151
216470
201931
196344
208886
197236
221481
195427
185428
205220
196316
217785
106424
101844
103476
109009
103328
104762
111596
107457
106391
114052
109460
108288
115622
110698
109770
116301
109723
111727
116907
110864
114171
117062
112021
117750
117373
114147
127242
119273
115685
126128
119837
119447
125635
119403
115823
127316
124211
136707
124533
129134
132915
126490
143142
131434
129956
136187
128563
146022
134640
134096
140275
133236
149339
131028
131111
136041
131444
141658
102652
99123
98002.4
104493
100514
99818
106208
104627
101519
108017
106454
103188
109428
107719
104040
110596
106235
104194
110754
107080
104010
111717
107760
103784
112549
109209
106394
114164
109370
115215
114408
108820
116985
112286
108662
117480
113260
119246
114218
112047
120378
115081
115157
119979
114274
122644
116797
117196
122714
116730
126480
120215
125286
117703
111281
121463
114628
124016
72819.3
70349.5
70084.8
74105.6
71220.7
71064.6
75357.1
73826.2
72078.7
76657.5
75170.1
73350.7
77857.8
76237.1
74349.8
78768.1
75530.2
74956.9
78671
75871.9
75591.2
79237.1
76330.8
74542.8
79726.8
78091.1
76437.3
81241.3
78510
83242.5
82836.8
79605.7
84284.6
81884.5
80374.5
85817.3
83031.6
88320.4
84099.9
83826
88606.6
84878.7
87459
88465.3
85274.3
90481.1
86295.7
85196
90540.8
87512.9
93806.7
89396
93475.2
87618
82547.3
88390.3
84012.8
89465.7
53898
51936.5
52469.9
54866.7
52505.3
52921.6
55848.5
54269.4
53534.2
56814
55238.1
54490.8
57763.6
56037.4
55427.9
58347.1
55575.3
56340.2
58668.1
56152.4
57392.9
58898.7
56730.6
58550.8
59316.5
57926.5
61676.3
59778.4
58478.4
62468.6
60257.6
60021.8
62324
59809.3
62748
63126.1
61403.1
66116.4
61821.8
63257.1
65193.2
62540
67146.8
64843.5
63944.6
66580.5
63477.2
67396.5
66350.1
65726.7
68929.4
65877.4
70468.6
64274.7
62998.3
63863.2
61634.7
64393.3
52177.9
50771.3
50036.3
52786.2
51295.6
50708
53368.6
53036.6
51353.6
54051
53916.9
52182.9
54907.8
54725.3
52865.1
55740.9
54188.1
53173.6
55910.4
54484.5
53337.5
56465.7
54798.9
53760.6
57193
55639.9
55598.6
57838.4
55786
57985.1
58197.3
55804.3
58930.6
57032
57491.7
59403.7
57175
59533
58175.5
57144.4
60384.5
58107.1
59414.6
60397.5
57862
61087.1
58716.2
59449
61598.7
59071.7
63206.3
60538.9
61769.2
59017.5
55987.3
58279.3
55465.4
58100.7
40655.4
39337.3
39317
41218.1
39714.8
39654.9
41752.8
40991.5
40074.2
42318.5
41649
40722.9
42990.2
42281.9
41375
43546.8
41871
41949.5
43881.8
42276
42526.4
44151.4
42662.3
42208.5
44505.4
43547
43120.4
44887.8
43811.6
46026.2
45288.4
44849.9
46516.4
44741.9
44706.5
46984.3
45528.8
47816.5
45925.1
46311.7
48174.8
46294.2
47874.3
48000.1
46764.9
48846.5
46808.8
48211.9
48992.8
47842.6
50299.5
48138.8
49553.4
46781.5
44433.5
46146.7
44261.8
45946.8
39323.3
38520.6
37631.9
39596.4
38863.7
38129.6
39849
40094.6
38574.2
40230
40692.8
39132.1
40837
41305.5
39593.9
41505.9
40915.2
39725
41746.8
41093.5
39689.7
42263.7
41258.6
39734.9
42936
41923.3
41515.5
43606
42008
43030
43894.5
41832.8
44061.1
42989.4
41886.3
44651.6
42935.4
43986.7
43649.5
42612.4
45287.6
43801.9
43779.4
45349.8
43116.3
45502.2
44120.1
44216.2
46084.6
43623.5
46634.7
44904.7
44857.6
43795
40645.7
42962.3
40637
42190.2
31127.7
30161.8
30008
31459.3
30420.5
30254.7
31746.3
31376.7
30541.6
32083.4
31834.8
30980.6
32545.3
32295.5
31448.7
33001
31921.9
31741
33129.2
32123.6
32160
33450.7
32308.4
32224.1
33948.8
33231.8
33185.4
34415.8
33593.3
34775.6
34682.2
33830.9
35435.5
34228
34216.4
36137.7
34680.1
35930.5
34951.5
34935.8
36500.8
35181.8
35409.2
36647.2
35316.8
36832.4
35470.7
35558.1
37027.8
35901.1
37722.7
36209.8
36539.1
35140
33539.9
34489.2
33032.3
34067.3
24722.7
23702.2
24189.1
25104.8
23917.6
24295.4
25438
24674.2
24484.8
25768.3
25010.6
24840.4
26120.2
25350.4
25245.3
26396.8
25041
25644.4
26571.4
25368.8
26185.5
26741.8
25704.2
26801
27025.6
26379.6
27967.2
27209.1
26734.1
28289.8
27299.9
27350
28397.4
27028.9
28401.3
28298.5
27709.7
29331
27558.6
28389.3
29013.9
27910.8
29550.2
28777.2
28569
29430.1
28166.1
29762.6
29182.6
29071.1
29978.1
28784.6
29935.3
27740.3
27455.2
27272.1
26541.8
27188.5
23942.2
23196.8
23084
24167.6
23398.8
23259.2
24345.7
24160.7
23461.6
24568
24470.7
23776.8
24887.5
24792.4
24097.9
25216.8
24428.1
24320.2
25344.2
24598.9
24666
25641.8
24776
25003.6
26069.3
25282.9
25569.4
26319.8
25537.7
26463.9
26483.7
25803.4
27039.5
25935
26207.1
27000.2
26298.5
27079.3
26229.3
26408.3
27342.2
26321.5
26721
27283.9
26561
27527.3
26488.1
26929
27601.2
26933.7
28005.4
26897.6
27227
25964.3
25271.1
25559.4
24602.9
25220.7
19380.2
18541.1
18931.5
19671.2
18707.4
19020
19910.9
19329.1
19165.9
20142.4
19573.9
19414
20389
19815.4
19701.2
20591.6
19522.2
19975.1
20718
19750
20330.1
20831.5
19979.7
20743.4
21043.6
20512.6
21579.9
21200.1
20780.5
21946.6
21278.8
21237.7
21965
21003.2
21933.2
21977.4
21442.9
22659.7
21350
21949.3
22503.2
21622.5
22711.2
22296.1
22083
22777
21801.5
22874.4
22587.9
22424.6
23175.4
22268.1
22858.5
21271.8
21120
21033.7
20456
20966.9
18705.8
18100.6
18037.1
18864.4
18265.9
18165.1
18981.7
18894.3
18325.5
19135
19115
18543.7
19353.6
19339.5
18774.9
19588.7
18992.1
18931.9
19684.1
19096.3
19174
19908.2
19219.6
19431.8
20265.2
19627
19854.8
20472.1
19829.1
20526.6
20616.7
20066
20869.6
20170.2
20373.2
20991.7
20243.3
21160.6
20370.2
20506.7
21214.8
20415.8
20726.2
21196.6
20623.9
21333.2
20557.2
20891.1
21517.2
20997.6
21644.2
20795.1
20908.5
20073.3
19595.6
19808.3
19138.5
19489
15166.1
14456
14812.7
15395.6
14578.8
14880
15576.8
15092.1
14987.1
15745.7
15271.3
15166.8
15917.8
15439
15368
16052.6
15165.3
15550
16127.1
15331.8
15805.6
16198.8
15504.4
16113.3
16350.8
15920.4
16725.7
16452.4
16101.3
17030.6
16491.5
16462.9
17002.9
16411.3
16993.5
17016.4
16568.3
17477.3
16527
16983.1
17421
16723.5
17550.2
17258.3
17094.9
17642.7
16947.5
17786.6
17459.1
17334
17826.6
17108.6
17600.3
16398
16346.6
16291.3
15837.9
16182.7
14610.1
14097.8
14114.1
14727.7
14223.6
14204.8
14810.8
14745.6
14318.2
14917.4
14904.2
14477.4
15069
15058.3
14643
15228.5
14731.9
14749.2
15284
14792.8
14911.9
15441.2
14887.8
15080.8
15718.6
15207
15364.9
15859.7
15347.6
15958.1
15967.5
15555.4
16115.8
15565
15720.1
16229.8
15657.2
16147.4
15849.9
15896.2
16412.3
15794.2
15990.2
16494.4
16095.8
16607.4
15905.7
16119.8
16553.7
16177.1
16684.4
16052.4
16106.2
15469.3
15169.8
15386.2
14798.2
15068.9
11841.8
11229.4
11576.9
12028.3
11321.7
11621
12172.1
11737.4
11703.4
12300.7
11869.3
11833.8
12420.4
11984.1
11977.8
12503.2
11751.7
12105.3
12541.3
11879.9
12307.2
12577.4
12008.5
12548.8
12658.8
12317.8
13007.6
12706.5
12446.9
13192
12699
12734.2
13125.6
12483.9
13216.9
13096.8
12759.3
13469.3
12621.4
13248.4
13552.4
13001
13704.5
13259.8
13170.2
13573.5
12961
13649.2
13395.8
13353.8
13687.7
13125.9
13544
12560.5
12656.6
12530.1
12202.1
12479.3
11443.5
11007.3
11074.5
11532.2
11100.6
11141
11592.4
11538.6
11230.9
11670.7
11656.4
11349.5
11778.5
11764.8
11468.8
11889.4
11476.5
11557.6
11981.5
11569.3
11678.6
12098.6
11675.6
11680.2
12210.9
11803.8
11834.5
12267.9
11896.9
12275.9
12326.6
12040.5
12434.9
11967
12089.7
12507.8
12093.5
12439.4
12069.1
12301.6
12667
12190.7
12416.2
12649.2
12339.2
12715.5
12264.6
12347.2
12754.6
12470.4
12821.2
12355.5
12368.3
11881.1
11599.4
11820.5
11444
11635.1
11031
10838.8
10567.1
11066
10930.5
10666.4
11094.3
11336.9
10764.3
11156.6
11437.6
10866.2
11255.1
11534.8
10948.8
11362.6
11248.7
10971.7
11409.5
11256.9
11033.3
11547.5
11288.6
11161.4
11795.8
11437.7
11484.8
11947.9
11430.4
11741.9
12072.8
11446.5
11922.3
11651.6
11638.5
12115.7
11604.4
11868.7
11782.6
11600.6
12110.4
11730.9
11871.7
12279.3
11706.5
12158.8
11818.5
11926.6
12369.6
11816.6
12254.2
11832
11842.5
11589.3
11082.9
11359.8
10868.4
11106.7
8962.09
8582.21
8685.82
9032.87
8652.51
8737.1
9079.82
9008.79
8806.51
9138.45
9096.14
8892.65
9214.58
9171.72
8975.15
9289.9
8930.46
9022.3
9347.86
8998.73
9095.31
9408.19
9050.73
9126.57
9502.14
9246.19
9354.51
9569.08
9279.79
9552.56
9596.42
9371.79
9676.72
9327.6
9416.63
9801.05
9451.8
9685.88
9420.07
9510.42
9845.78
9506.87
9658.7
9868.77
9600.17
9902.21
9570.71
9714.98
9941.69
9671.07
9984.77
9666.17
9595.87
9243.6
9032.35
9222.96
8921.33
9075.83
8575.28
8367.93
8267.93
8604.64
8435.85
8325.8
8630.1
8774.45
8395.84
8678.76
8847.15
8472.83
8748.08
8913.71
8542.34
8819.32
8663.39
8570.3
8844.52
8671.21
8637.08
8941.72
8697.1
8732.1
9103.02
8815.89
8929.09
9180.13
8831.76
9052.59
9262.03
8891.87
9164.31
8922.23
8990.35
9357.81
8939.45
9131.91
8996.69
8982.99
9271.26
8981.37
9132.98
9370.74
9031.6
9296.18
9022.87
9171.58
9409.9
9137.9
9356.52
9016.33
8995.35
8734.26
8547.79
8676
8372.82
8510.49
6981.72
6646.14
6778.06
7045.73
6695.89
6814.28
7089.42
6970.93
6865.54
7135.61
7035.57
6927.1
7188.76
7087.9
6985.41
7236.29
6905.33
7016.83
7267.04
6958.38
7070.44
7289.56
7000.05
7124.09
7346.99
7150.72
7307.24
7375.05
7179.22
7395.05
7428.67
7251.1
7468.71
7179.25
7314.37
7498.07
7276.26
7476.61
7203.31
7316.28
7542.71
7278.14
7446.32
7504.52
7341.95
7560.51
7293.95
7488.56
7580.17
7368.6
7552.92
7285.99
7328.56
7018.31
6935.89
7029.61
6819.1
6953.17
6674.28
6468.23
6482.81
6699.61
6516.53
6518.75
6720.22
6790.24
6568.87
6755.43
6843.18
6625.19
6804.06
6889.12
6677.58
6854.19
6687.79
6702.18
6870.32
6702.72
6749.18
6934.27
6726.41
6800.8
7036.61
6825.95
6907.83
7076.34
6855.88
6977.22
7120.27
6914
7063.27
6867.32
6938.96
7120.26
6961.81
7018.18
6882.13
6936.46
7102.08
6895.65
6977.06
7128.54
6939.58
7126.17
6947.6
7006.22
7126.85
6946.04
7069.27
6869.57
6822.68
6638.81
6545.04
6617.67
6455.74
6527.37
5280.75
5093.95
5312.52
5394.18
5148.96
5322.9
5475.39
5183.22
5334.4
5536.34
5216.22
5353.18
5579.9
5414.92
5388.24
5618.58
5462.53
5432.3
5655.29
5498.77
5477.49
5681.65
5371.05
5507.35
5690.96
5411.57
5561.39
5692.28
5450.99
5624.07
5717.63
5565.43
5767.31
5721.48
5597.6
5808.55
5697.42
5675.65
5817.26
5567.85
5752.45
5777.14
5675.72
5848.61
5560.02
5703.66
5829.15
5619.68
5810.44
5781.44
5736.08
5844.81
5607.33
5789.24
5738.34
5681.62
5788.98
5582.26
5677.35
5386.51
5403.92
5415.97
5296.42
5380.63
4911.69
5138.16
4963.12
5025.21
5212.11
5025.15
5083.84
5247.95
5062.44
5114.5
5268.31
5095.28
5141.47
5284.01
5307.05
5179.21
5308.76
5346.67
5219.58
5343.31
5380.14
5257.02
5379.48
5229.12
5275.3
5410.37
5261.73
5302.67
5450.37
5293.36
5269.38
5482.04
5336.17
5360.24
5499.97
5359.37
5436.71
5511.38
5393.99
5493.09
5342.88
5318.95
5506.96
5385.57
5453.34
5332.53
5371.04
5495.51
5366.16
5411.42
5525.38
5368.8
5463.45
5330.23
5347.89
5460.88
5337.01
5426.85
5292.39
5249.32
5124.26
4994.48
5136.53
4996.31
5037.48
4771.06
4819.09
5000.9
4849.67
4848.97
5041.71
4920.78
4879.64
5056.08
4962.96
4906.28
5067.01
4997.09
4934.69
5080.79
5191.76
4971.76
5105.03
5223.02
5008.59
5137.09
5251.63
5041.48
5169.44
5103.88
5051.69
5178.74
5105.03
5083.02
5224.82
5107.42
5125.34
5300.58
5156.05
5207.17
5338.64
5155.44
5249.95
5376.46
5194.81
5295.8
5180.25
5202.39
5329.77
5161.94
5318.3
5253.44
5182.35
5342.95
5207.88
5257.3
5329.11
5162.8
5259.07
5138.41
5189.38
5292.41
5139.14
5225.97
5092.12
5078.96
4964.88
4883.25
4938.09
4802.56
4855.39
4027.2
3919.98
4003.67
4090.87
3954.85
4022.54
4147.98
3991.47
4051.21
4178.97
4012.59
4070.35
4197.22
4032.57
4087.88
4210.34
4186.08
4113.31
4227.55
4214.25
4139.66
4249.74
4235.79
4162.37
4270.21
4122.72
4169.21
4283.94
4144.34
4186.65
4298.76
4166.52
4208.83
4332.42
4236.63
4288.12
4349.95
4243.37
4322.24
4332.63
4306.17
4362.05
4233.69
4273.47
4361.75
4254.98
4322.22
4241.64
4308.27
4361.58
4239.57
4291.04
4335.63
4244.25
4328.33
4222.72
4265.66
4310.47
4225.24
4292.7
4186.98
4200.96
4093.32
4050.22
4066.38
3971.15
4015.19
3922.38
3797.76
3853.06
3961.31
3840.52
3886.05
3993.53
3881.57
3908.88
4004.9
3905.24
3922.92
4011.74
3925.53
3938.03
4019.94
4074.77
3961.78
4035.33
4095.81
3986.57
4056.66
4115.39
4010.04
4077.88
4001.71
4016.68
4083.98
4009.61
4037.24
4112.64
4020.2
4059.89
4160.86
4066.4
4101.49
4180.36
4077.73
4124.03
4187.73
4108.26
4168.38
4068.91
4099.92
4170.18
4080.71
4120.95
4060.9
4084.55
4149.7
4063.94
4091.76
4151.14
4069.38
4112.76
4040.53
4065.83
4120.72
4044.74
4076.75
4018.43
3976.66
3897.75
3853.67
3871.82
3802.47
3816.39
3228.93
3162.19
3287.89
3282.89
3178.85
3286.15
3332.93
3198.35
3285.93
3364.37
3208.23
3285.94
3385.29
3218.93
3290.58
3399.06
3322.07
3304.41
3411.87
3341.65
3321.41
3425.06
3354.33
3338.67
3434.31
3279.12
3348.73
3435.77
3296.76
3371.17
3437.31
3314.65
3399.09
3449.51
3368.33
3459.41
3448.43
3383.7
3474.02
3422.66
3420.71
3489.42
3359.38
3441.05
3458.84
3381.39
3466.95
3338.68
3410.73
3464.42
3362.48
3442.97
3424.54
3390.85
3447.84
3345.96
3420.42
3404.11
3373.71
3428.72
3324.28
3356.59
3231.3
3241.2
3243.48
3180.23
3218.62
3159.76
3077.08
3096.35
3190.31
3099.45
3122.57
3215.51
3121.93
3148.44
3224.17
3133.6
3161.15
3227.49
3144.52
3171.42
3230.36
3252.08
3186.92
3238.18
3266.51
3201.83
3250.59
3278.31
3214.81
3264.37
3196.71
3217.98
3276.77
3212.46
3225.78
3292.63
3224.23
3223.86
3307.93
3242.63
3247.74
3314.55
3249.41
3274.38
3310.53
3247.65
3335.63
3240.97
3232.54
3303.75
3242.44
3263.85
3220.23
3231.22
3284.74
3228.22
3232.77
3282.07
3222.85
3260.62
3208.58
3210.04
3269.04
3215.53
3243.63
3177.33
3151.04
3100.68
3054.86
3084.74
3033.01
3045.73
3089.82
2995.08
3032.62
3106.27
3025.3
3045.58
3119.87
3052.78
3055.53
3122.71
3067.9
3062.38
3125.18
3080.28
3070.5
3129.55
3180.37
3084.9
3138.51
3191.31
3099.02
3150.17
3201.04
3112.12
3161.29
3118.63
3113.85
3162.51
3119.85
3126.97
3178.34
3121.8
3144.84
3211.18
3145.74
3174.54
3224.54
3151.08
3186.83
3233.36
3163.23
3205.91
3162.02
3169.28
3211.97
3145.75
3178.9
3142.48
3146.48
3185.94
3131.23
3160.13
3198.68
3136.46
3165.87
3115.07
3150.35
3175.85
3112.75
3135.63
3082.14
3071.44
3015.05
2988.94
2999.79
2949.54
2961.75
2580.19
2523.34
2572.51
2607.74
2534.19
2575.4
2629.97
2545.46
2579.57
2639.14
2549.85
2582.09
2642.97
2554.49
2585.24
2644.44
2629.15
2592.94
2647.73
2637.36
2600.58
2653.22
2642.57
2607.29
2658.24
2581.58
2608.11
2660.91
2590.29
2616.05
2664.18
2598.13
2626.4
2677.75
2628.56
2660.6
2682.91
2630.79
2670.58
2669.86
2635.98
2677.21
2642.33
2650.33
2677.63
2624.63
2659
2603.02
2626.79
2666.8
2611.46
2639.2
2653.61
2614.64
2658.9
2608.2
2628.88
2634.34
2598.06
2622.3
2571.74
2574.87
2517.39
2505
2514.87
2472.89
2492.04
2521.06
2459.8
2467.43
2533.59
2473.76
2492.97
2543.61
2487.13
2503.8
2543.96
2493.29
2508.54
2542.85
2498.74
2512.48
2542.27
2570.94
2520.38
2545.04
2576.65
2527.86
2550.94
2581.66
2534.71
2557.81
2522.71
2535.62
2565
2530.41
2540.81
2573.41
2534.46
2541.18
2582.99
2544.01
2537.89
2587.51
2546.96
2557.5
2587.08
2548.59
2569.17
2536.53
2563.75
2582.71
2539.15
2545.63
2524.46
2533
2556.34
2524.77
2524.35
2563.22
2535.36
2542.48
2521.6
2499.84
2534.82
2502.34
2511.98
2482.91
2459.56
2432.12
2408.18
2416.16
2388.36
2389.67
2465.17
2393.17
2410.23
2470.08
2414.21
2414.94
2474.19
2432.19
2419.02
2472.41
2441.62
2422.26
2471.09
2448.59
2426.22
2470.97
2514.38
2433.7
2473.75
2517.95
2440.58
2479.01
2521.75
2446.65
2484.22
2461.28
2444.65
2484.2
2458.23
2450.59
2492.98
2455.62
2462.38
2514.24
2466.31
2481.65
2523.21
2464.99
2492.13
2529.35
2468.11
2502.83
2464.03
2470.71
2530.25
2467.94
2483.73
2463.22
2458.21
2489.01
2448.83
2464.42
2506.59
2447.07
2471.76
2433.71
2446.82
2474.83
2427.84
2446.93
2406.82
2400.15
2365.3
2343.65
2356.5
2316.5
2330.31
2081.62
2038.18
2055.02
2092.67
2043.68
2056.92
2099.76
2048.92
2060.54
2099.31
2049.37
2062.01
2096.69
2049.87
2062.77
2093.77
2100.48
2066.16
2093.01
2102.59
2068.64
2094.31
2103.27
2070.11
2096.08
2058.31
2067.21
2097.45
2061.82
2067.86
2098.99
2064.34
2070.49
2108.89
2081.38
2089.95
2114.18
2079.17
2094.78
2108.54
2076.77
2099.83
2069.51
2075.42
2104.16
2085.68
2095.1
2059.79
2063.02
2099.3
2072.08
2082.99
2087.49
2054.66
2071.99
2045.47
2051.26
2065.73
2038.05
2052.05
2024.89
2017.76
1990.51
1973.12
1981.96
1955.57
1964.09
2030.06
1985.6
2004.74
2033.89
1992.59
2009.44
2036.26
1999.16
2011.07
2033.78
2001.06
2010.57
2031.24
2002.51
2010.24
2029.38
2049.49
2013.05
2029.61
2050.39
2015.81
2031.27
2051.02
2018.33
2032.73
2008.22
2015.01
2030.61
2007.97
2017
2034.28
2009.46
2021.93
2045.57
2020.14
2029.96
2048.27
2021.35
2031.13
2047.93
2023.16
2032.76
2011.44
2019.75
2033.18
2010.6
2033.18
2020.14
2028.51
2026.03
2002.27
2008.14
2020.83
1998.4
2004.94
1986.49
1991.8
2001.43
1981.96
1984.82
1965.23
1954.24
1930.52
1919.22
1917.97
1900.97
1902.27
1729.87
1698.94
1739.34
1742.72
1697.88
1733.89
1751.99
1697.55
1728.07
1754.6
1694.78
1722.43
1753.98
1692.79
1718.48
1751.78
1729.63
1718.44
1750.08
1730.98
1719.08
1749.25
1730.61
1720.31
1748.07
1695.5
1719.38
1745.83
1698.27
1722.07
1743.09
1701.13
1727.16
1745.38
1715.58
1741.86
1743.22
1718.09
1742.66
1732.84
1722.51
1740.82
1701.78
1725.64
1734.16
1708.23
1729.46
1690.22
1715.18
1728.74
1694.2
1715.17
1714.4
1699.31
1713.61
1682.16
1701.86
1700.51
1686.9
1696.48
1668.25
1675.67
1637.98
1640.97
1642.59
1621.8
1632
1688.25
1657.32
1661.14
1690.52
1658.6
1661.8
1690.65
1659.63
1663.94
1686.66
1657.73
1663.6
1682.03
1656.13
1662.56
1677.97
1688.8
1663.32
1675.87
1688.32
1663.63
1675.65
1687.59
1663.46
1676.13
1656.97
1660.37
1677.29
1658.45
1658.36
1677.42
1658.55
1656.58
1679.39
1660.49
1660.56
1679.18
1658.32
1663.82
1675.6
1653.66
1666.78
1649.9
1647.4
1665.73
1647.58
1652.01
1641.87
1640.18
1654.24
1637.59
1637.09
1649.83
1630.2
1639.26
1625.5
1624.03
1634.7
1616.15
1623.04
1608.34
1598.76
1584.86
1569.27
1575.57
1559.56
1562.66
1652.44
1619.21
1633.64
1651.56
1622.01
1633.24
1650.44
1624.58
1631.46
1646.77
1624.1
1628.76
1643.42
1623.42
1626.64
1640.76
1654.34
1626.95
1639.46
1653.14
1627.37
1639.13
1652.05
1627.77
1638.52
1620.98
1624.19
1635.27
1618.91
1624.47
1636.51
1619.06
1627.83
1642.81
1624.62
1632.52
1643.32
1624.31
1632.39
1642.42
1624.24
1631.93
1616.46
1622.26
1631.1
1614.22
1621.32
1609.06
1613.13
1621.63
1606.68
1611.32
1617.77
1602.7
1607.36
1593.91
1598.05
1603.12
1589.52
1591.24
1576.97
1570.36
1553.09
1545.88
1544.89
1533.02
1534.14
1413.5
1388.01
1408.59
1417.99
1386.11
1404.11
1419.95
1384.54
1399.58
1417.85
1381.15
1394.92
1414.39
1378.31
1391.26
1410.69
1404.18
1390.24
1407.95
1403.34
1389.43
1406.25
1401.76
1388.97
1404.72
1375.07
1386.76
1402.73
1375.26
1386.94
1400.8
1376.03
1388.36
1402.65
1384.23
1396.95
1402.01
1383.97
1396.46
1395.78
1384.61
1395.24
1372.89
1384.06
1390.98
1373.6
1384.41
1362.83
1373
1382.41
1364.02
1374.29
1376.5
1364.35
1372.11
1354.27
1363.05
1364.87
1354.09
1359.01
1342.6
1344.1
1323.51
1321.58
1322.1
1308.84
1313.76
1378.19
1356.06
1354.71
1376.56
1355.57
1355.75
1374.21
1355
1356.82
1369.54
1352.45
1355.38
1364.84
1350.17
1353.47
1360.86
1371.04
1352.89
1358.4
1369.34
1352.13
1357.37
1367.83
1351.17
1356.89
1346.5
1348.08
1356.58
1346.22
1345.47
1356.18
1345.41
1341.69
1356.67
1345.7
1342.5
1356.15
1343.48
1344.35
1353.74
1339.33
1345.35
1336.48
1328.13
1344.28
1333.47
1333.19
1328.47
1326.84
1333.9
1326.13
1322.58
1331.68
1319.79
1323.51
1316.39
1312.11
1319.92
1308.49
1311.14
1303.06
1294.11
1286.77
1274.23
1277.9
1268.94
1268.78
1349.9
1323.82
1333.12
1347.08
1325.04
1330.99
1344.55
1326.08
1328.37
1340.59
1324.92
1325.35
1336.97
1323.55
1322.86
1334
1344.56
1322.2
1332.04
1342.6
1321.62
1330.9
1340.92
1321.09
1329.61
1317.45
1317.6
1326.2
1314.86
1317.47
1327.05
1314.09
1319.21
1330.65
1316.65
1321.94
1330.43
1315.43
1321.6
1329.36
1314.61
1320.88
1309.11
1312.49
1319.74
1307.01
1311.47
1303.26
1304.32
1309.98
1298.81
1303.02
1308.98
1297.19
1301.31
1290.8
1293.66
1297.04
1286.63
1288.64
1277.52
1273.61
1262.08
1256.03
1256.39
1246.7
1248.28
1159.93
1140.88
1149.75
1160.37
1139.54
1146.75
1159.37
1138.15
1143.84
1156.07
1135.31
1140.63
1152.33
1132.74
1137.87
1148.8
1149.74
1136.7
1146.24
1148.11
1135.52
1144.57
1146.24
1134.44
1143.12
1127.54
1131.95
1141.28
1126.75
1131.11
1140.01
1126.16
1130.78
1141.1
1130.29
1135.49
1140.87
1128.63
1134.56
1136.91
1127.34
1133.52
1121.38
1125.43
1130.95
1119.66
1124.91
1113.86
1116.97
1123.5
1112.49
1116.26
1119.36
1110.41
1114.7
1104.56
1107.67
1110.46
1101.95
1104.19
1094.65
1093.01
1081.72
1077.95
1077.84
1069.38
1071.44
1132.35
1116.02
1120.33
1130.16
1115.47
1119.92
1127.87
1114.93
1118.41
1124.24
1112.93
1115.99
1120.82
1111.04
1113.73
1117.94
1125.09
1112.71
1116.01
1123.3
1111.81
1114.86
1121.78
1110.98
1113.78
1106.24
1108.61
1112.41
1105.08
1107.41
1111.67
1104.11
1106.04
1111.45
1103.95
1105.14
1110.54
1102.52
1103.6
1108.67
1100.66
1102.47
1096.27
1097.24
1100.99
1094.26
1094.73
1089.99
1091.33
1093.18
1087.39
1087.41
1090.67
1084.5
1085.09
1080.14
1079.62
1081.79
1075.87
1075.07
1069.43
1063.85
1057.05
1051.76
1050.32
1045.25
1043.98
1108.17
1084.48
1087.52
1104.36
1086.81
1085.11
1100.94
1088.46
1082.94
1096.64
1087.93
1080.75
1092.79
1086.82
1078.92
1089.71
1102.53
1078.32
1087.63
1100.4
1077.57
1086.42
1098.66
1076.71
1085.19
1078.86
1073.58
1082.77
1075.48
1073.28
1083.81
1073.44
1074.19
1086.63
1073.56
1076.43
1087
1071.32
1076.75
1086.73
1070
1077.14
1067.33
1068.29
1077.4
1063.99
1068.48
1062.94
1061.34
1068.92
1057.99
1060.56
1068.23
1055.12
1060.5
1051.1
1053.39
1060.23
1047.82
1051.4
1041.3
1039.26
1030.52
1025.45
1028.5
1018.16
1021.15
959.409
946.476
947.173
958.199
945.939
946.352
956.465
945.245
945.858
953.402
943.328
944.458
950.29
941.471
942.834
947.487
952.354
941.924
945.498
950.699
940.833
944.232
949.086
939.527
943.099
936.677
937.052
941.85
935.612
935.308
941.072
934.661
933.723
941.985
936.863
936.349
942.265
934.703
935.793
940.029
931.998
935.354
930.049
928.806
934.009
927.568
927.913
924.49
923.468
927.222
922.382
921.546
925.365
918.575
920.637
916.136
914.755
917.649
911.361
912.549
907.689
903.436
898.747
892.534
893.431
888.021
888.448
938.753
923.974
929.696
937.017
924.448
928.339
935.478
924.814
926.598
933.042
923.864
924.529
930.701
922.743
922.707
928.64
933.954
921.853
927.068
932.324
921.034
925.898
930.785
920.104
924.472
917.53
917.711
922.023
915.622
917.303
922.053
914.864
917.634
923.207
915.607
918.385
922.39
914.371
917.442
921.063
913.291
916.262
909.835
911.507
914.829
907.897
910.235
905.263
905.778
908.755
902.664
904.264
906.499
900.212
901.981
896.465
897.6
899.313
893.727
894.268
888.422
886.016
879.517
876.105
875.725
870.517
871.121
818.081
806.789
811.759
818.415
806.377
810.418
817.891
805.834
809.005
816
804.328
807.297
813.831
802.894
805.737
811.746
812.807
805.032
810.201
811.713
804.267
809.13
810.442
803.444
808.071
799.555
801.823
806.82
798.855
801.097
805.897
798.26
800.591
806.248
800.257
802.878
805.882
799.065
802.077
803.505
798.016
801.184
794.631
796.569
799.496
793.336
795.693
790.019
791.58
794.485
788.808
790.748
792.309
787.543
789.532
784.287
785.633
786.545
782.104
782.961
777.885
776.523
770.544
768.153
767.862
763.353
764.214
799.135
789.368
793.564
798.301
789.473
793.295
797.404
789.519
792.361
795.663
788.607
790.92
793.96
787.648
789.544
792.446
795.926
788.837
791.291
794.724
788.147
790.335
793.468
787.339
789.243
784.138
785.455
787.32
782.95
784.955
787.215
782.659
784.883
787.909
783.384
784.972
787.094
782.463
783.705
785.777
781.425
782.427
778.479
779.615
781.105
777.169
778.023
774.6
775.358
776.399
772.899
773.506
774.634
771.167
771.295
768.065
768.536
768.866
765.749
765.173
761.697
759.13
754.529
752
750.758
747.873
747.385
701.603
692.156
700.401
703.457
691.629
699.062
704.258
691.177
697.524
703.588
690.07
695.85
702.365
689.106
694.469
701.014
698.729
694.052
699.959
698.307
693.641
699.14
697.559
693.305
698.3
687.689
692.263
697.175
687.577
692.14
696.346
687.677
692.232
696.41
689.936
694.352
695.777
689.873
693.858
693.628
689.949
693.047
685.565
689.421
691.442
685.684
689.022
681.723
685.283
688.065
682.013
685.305
685.891
682.089
684.289
678.564
681.232
681.799
678.252
679.454
674.24
674.548
667.772
667.46
667.582
663.36
664.843
684.017
676.637
676.038
683.663
676.965
677.816
683.185
677.148
678.305
681.867
676.553
677.891
680.496
675.94
677.276
679.303
682.783
677.074
678.533
682.088
676.729
678.035
681.362
676.249
677.583
674.353
675.028
677.005
673.849
674.094
676.726
673.506
672.104
676.566
673.401
672.496
676.194
672.563
672.611
675.267
671.227
672.466
669.877
668.197
671.819
668.852
668.563
667.046
666.78
668.379
666.011
664.943
667.308
664.084
664.654
662.603
661.25
663.222
660.139
660.261
657.953
654.856
652.583
648.149
649.369
646.984
646.611
670.614
660.041
663.131
669.842
661.43
662.789
669.141
662.543
662.287
667.884
662.667
661.598
666.665
662.511
661.001
665.666
670.549
660.978
664.981
669.748
660.768
664.508
669.046
660.544
664.032
660.18
659.342
662.958
659.06
659.369
663.406
658.625
659.871
664.477
659.001
660.665
664.448
658.346
660.635
664.143
657.919
660.519
656.21
657.091
660.344
655.172
656.991
654.13
654.085
656.798
652.583
653.68
656.301
651.498
653.265
649.495
650.352
652.496
648.069
649.03
645.106
644.007
640.105
638.219
638.984
635.162
636.229
588.631
582.33
583.465
588.934
582.932
583.718
588.864
583.335
583.985
588.105
583.104
583.919
587.279
582.86
583.75
586.557
588.951
583.914
586.151
588.645
583.887
586
588.3
583.74
585.876
582.633
583.019
585.653
582.525
582.72
585.627
582.466
582.563
586.408
583.853
584.218
586.867
583.301
584.315
586.203
582.656
584.475
581.889
581.933
584.254
581.251
581.945
580.112
580.177
582.002
579.578
579.86
581.385
578.496
579.638
577.477
577.453
578.633
576.003
576.653
574.358
572.941
570.598
568.327
568.59
566.22
566.618
576.864
569.873
573.129
576.931
570.929
573.342
577.008
571.856
573.27
576.596
572.118
572.984
576.157
572.253
572.755
575.808
578.516
572.928
575.575
578.214
573.03
575.503
577.976
573.123
575.333
572.019
572.491
574.658
571.643
572.762
575.118
571.82
573.363
576.014
572.573
574.085
576.072
572.495
574.101
575.911
572.46
573.976
571.105
572.144
573.848
570.772
572.039
569.83
570.282
571.805
569.144
570.015
571.251
568.582
569.522
567.145
567.822
568.752
566.34
566.684
564.174
563.246
560.419
559.157
559.172
556.965
557.436
509.739
504.357
506.815
510.661
505.141
507.14
511.163
505.779
507.381
511.047
505.933
507.46
510.813
506.09
507.562
510.624
511.817
508.021
510.63
511.975
508.38
510.829
512.053
508.692
511.029
507.414
508.578
511.131
507.747
508.899
511.397
508.139
509.34
512.287
509.729
511.099
512.896
509.91
511.5
512.642
510.189
511.901
509.2
510.285
511.98
509.396
510.679
508.406
509.353
510.925
508.599
509.674
510.665
508.606
509.707
507.563
508.356
509.107
507.254
507.893
505.81
505.395
502.958
502.041
502.16
500.299
500.898
499.336
494.636
497.263
499.863
495.688
497.961
500.356
496.651
498.347
500.452
497.137
498.507
500.531
497.563
498.683
500.654
502.575
499.123
500.863
502.74
499.557
501.169
502.917
499.97
501.383
498.98
499.849
501.211
499.152
500.385
501.888
499.759
501.165
502.915
500.79
502.01
503.312
501.159
502.291
503.537
501.545
502.517
500.68
501.652
502.736
500.886
501.785
500.293
500.933
501.855
500.213
500.9
501.673
500.155
500.711
499.254
499.818
500.363
498.99
499.133
497.557
496.842
494.834
494.048
493.885
492.578
492.824
445.556
441.156
444.32
446.969
442.057
444.844
447.956
442.892
445.261
448.383
443.378
445.575
448.652
443.893
445.957
448.902
449.327
446.706
449.312
449.923
447.403
449.852
450.426
448.11
450.389
446.695
448.478
450.842
447.474
449.259
451.453
448.352
450.158
452.541
450.19
452.019
453.402
451.012
452.813
453.653
451.931
453.57
451.006
452.609
454.056
451.922
453.441
451.074
452.529
454.034
451.963
453.384
454.257
452.698
453.82
451.876
453.039
453.769
452.36
453.099
451.287
451.444
449.157
449.012
449.333
447.824
448.608
436.281
433.029
434.72
437.117
434.214
435.868
437.876
435.312
436.709
438.303
436.044
437.309
438.721
436.743
437.862
439.164
440.962
438.628
439.758
441.518
439.373
440.428
442.078
440.098
441.048
439.565
440.424
441.419
440.191
441.228
442.43
441.156
442.197
443.71
442.422
443.239
444.538
443.18
443.939
445.22
443.915
444.695
443.645
444.395
445.439
444.335
444.928
444.106
444.754
445.504
444.555
445.03
445.86
444.891
445.34
444.538
444.927
445.573
444.705
444.879
443.946
443.35
442.105
441.543
441.547
440.771
440.942
394.083
390.646
394.003
395.836
391.671
394.754
397.19
392.686
395.404
398.047
393.464
395.991
398.733
394.28
396.641
399.372
399.403
397.674
400.134
400.363
398.664
400.991
401.24
399.697
401.845
398.381
400.461
402.641
399.541
401.61
403.591
400.819
402.87
404.902
402.847
404.842
406.049
404.154
406.015
406.761
405.532
407.128
404.832
406.648
408.01
406.224
407.852
405.628
407.313
408.825
407.025
408.59
409.488
408.263
409.442
407.72
409.07
409.872
408.739