/*--------------------------------*- C++ -*----------------------------------*\
| =========                 |                                                 |
| \\      /  F ield         | OpenFOAM: The Open Source CFD Toolbox           |
|  \\    /   O peration     | Version:  v2012                                 |
|   \\  /    A nd           | Website:  www.openfoam.com                      |
|    \\/     M anipulation  |                                                 |
\*---------------------------------------------------------------------------*/
FoamFile
{
    version     2.0;
    format      ascii;
    class       volScalarField;
    location    "1e-06";
    object      p;
}
// * * * * * * * * * * * * * * * * * * * * * * * * * * * * * * * * * * * * * //

dimensions      [1 -1 -2 0 0 0 0];


internalField   nonuniform List<scalar> 
10295
(
57347.6
55547.8
55468.6
54592.8
52479.4
52460
51393.9
49131.9
49171.4
48234.3
45821.5
45796.4
44766.1
42075.8
41025.9
39789.3
35333.2
40190.1
40296.1
19989.2
23377.7
20185.6
13490.1
20796.9
1164.55
1801.93
19166.1
15890.7
19477.4
19415.7
18911.8
19084.2
15502.7
2180.36
-11832.2
-18579.3
-20892.1
-20757.5
-22496.4
-23897.4
-24289.1
-24870.1
-24813.3
-26108.1
-26480.6
-26356.6
-26609.1
-25845.4
-27313.9
-27903.2
-27498.4
-28189.6
-30521
-32838.6
-37206.1
-35145.7
-34347.4
-32356.6
57361.8
55558.9
55482.9
54606.4
52489.9
52474.3
51403.3
49141.9
49183.6
48181.2
45802.1
45766.3
44684.8
41996.5
40976.7
39696.5
35338.2
39501.7
39341.7
20419.9
23425
20339.1
14230.7
22023.1
5946.13
5845.48
22316.1
21959.6
25539.2
29704
27529.5
27302.2
28037.5
15681.5
850.811
-2196.79
-4429.2
-5346.03
-7433.54
-8623.89
-9401.32
-10060.6
-10400.6
-11448.5
-11487.3
-11623.8
-11922.6
-12155.8
-12702.3
-12667.8
-12636.1
-13021.1
-13938.9
-15377.2
-17482.6
-16023.3
-15084.1
-14280.8
57301.3
55544.2
55454.9
54544.9
52480.7
52453.2
51341.1
49135.2
49168.8
48127.5
45798.4
45756.3
44623.8
42001.7
40978.3
39697.1
35271.4
39490.7
39554.8
20978.2
23562.7
20431.8
14628.4
22081.3
2401.44
2468.98
18686.3
16117.8
18379.2
17967.8
17338
17566.4
16744.1
5060.95
2534.25
1494.37
705.934
283.428
-227.196
92.2471
-528.01
-1259.93
-2448.38
-3269.87
-3598.06
-4045.36
-4394.58
-5096.83
-5529.96
-5475.68
-5759.55
-5913.9
-6639.42
-7417.06
-7886.24
-6827.96
-5815.34
-5555.42
57304.6
55537.8
55454.7
54546.2
52475.9
52449.3
51343
49131.1
49164.9
48129.2
45787.6
45742.7
44554.8
41935.3
40985.6
39691.7
35299.7
39281.8
39183.6
21512
23685.5
20584.6
15232.3
22543.6
5208.2
4370.12
20312.7
20537.6
22270.4
23911
23048.5
22755.1
18406.5
7551.55
4094.98
2523.21
2022.05
1950.29
1865.19
1962.2
1844.31
1753.88
1560.11
1402.4
1317.24
1232.85
1165.14
1032.97
486.31
490.19
-75.4861
-220.344
-630.099
-1328.1
-752.724
-280.497
-200.332
-230.301
57263.1
55541.8
55445.7
54501.3
52477.9
52442.7
51303.1
49136.2
49160.2
48070.7
45781.6
45727.4
44478.7
41880.8
40991.1
39590.3
35349.1
39163.3
38772.3
22183.5
23815.9
20748
15880.7
22919.3
5077.68
4409.73
19894
19890.2
21029.7
23399.7
22310.9
20952.3
17633.9
7689.58
5076.47
3426.57
2777.36
2713.08
2441.41
2785.69
2539.53
2586.81
2547.52
2248.64
2202.66
2074.03
2027.52
2009.35
1908.03
1906.77
1762.6
1692.49
1636.6
1347.12
1587.76
1653.66
1663.8
1588.65
57214.6
55534.7
55433.1
54449.4
52470.6
52432.2
51243
49128.5
49153
48005.9
45764.6
45704.2
44387.6
41805.1
41000.2
39471.3
35331
38997.7
38231.9
22839.1
23952.1
20969.1
16627.2
23328.6
5866.52
5336.08
20056.3
19777.2
21438.7
23657.3
21447.3
20881.8
18225.6
7847.09
6427.92
4498.18
3864.2
3679.98
3337.62
3655.62
3437.16
3663.67
3688.02
3270.18
3281.42
2995.35
2951.64
2837.21
2544.68
2502.73
2337.41
2211.16
2287.39
2011.45
2154.17
2118.37
2219.2
2023.11
57215.1
55527.1
55419.3
54451.5
52464.5
52419.5
51245.7
49122.8
49142.2
48006.5
45751.3
45676.4
44303.1
41724.3
41008.3
39473.3
35430.5
38796.8
37740.7
23484.1
24133.4
21262.1
17396.9
23623.8
6578.07
6071.36
19939.9
19881.4
21408.8
23559.1
21425.7
20867.6
18075
8071.7
7477.82
5381.04
4901.47
4509.98
4230.39
4419.35
4153.97
4412.74
4606.18
4101.43
4094.73
3669.65
3626.68
3354.53
3145.65
3062.16
2943.15
2699.81
2945.43
2421.66
2758.94
2477.57
2800.16
2350.68
57166
55529.1
55405.7
54399.7
52465
52407.3
51192.9
49123.3
49132.8
47942.1
45739.7
45647.6
44216.4
41650.9
41015.8
39338.5
35577.2
38586.7
37269
24119.8
24368.4
21581.4
18194.7
23815.6
7340.68
6818.32
19917.9
20177.3
21420.2
23239.7
21929.6
20949.9
17785
8760.23
8066.6
6188.76
5634.69
5333.11
4871.11
5225.11
4785.26
4964.42
5294.61
4576.03
4726.51
4127.76
4099.95
3755.31
3565.12
3510.83
3326.98
2971.97
3489.49
2689.45
3166.85
2677.14
3210.66
2528
57169.6
55531.2
55389.1
54403.8
52469.6
52391
51197.6
49134.6
49117.4
47945.6
45742.9
45607.8
44158.3
41608.4
41004.5
39328.8
35749.1
38333.3
36844.6
24733.6
24633.5
21962.8
19010.7
23904.4
8252.23
7687.7
19969.3
20270.3
21508.9
22989.9
21863
20853.6
17629.5
9585.93
8734.59
7270.38
6292.64
6240.85
5495.39
6027.23
5543
5603.12
6048.81
5076.39
5434.51
4665.52
4653.22
4251.84
3978.12
3955.98
3754.42
3330.34
4051.43
2897.42
3541.88
2984.92
3644.72
2838.29
57118.4
55544.3
55389.2
54365.5
52485.7
52391.9
51200.8
49157.1
49119
47877.2
45749.6
45583
44066.5
41613.4
41017.7
39290.8
35925.7
38102.4
36475.3
25346.5
24956.8
22370.4
19850.1
23944.2
9101.28
8259.3
19865.3
20106.6
21418
22659.8
21656.2
20517.3
17341.5
10073.5
9341.6
7927.46
6892.9
6854.79
6128.76
6408.21
5913.75
5917.4
6768.97
5420.91
5922.94
4928.87
4947.77
4558.49
4221.04
4335.8
3994.11
3585.68
4356.55
3013.87
3884.49
3185.36
3983.05
3090.73
57053.5
55531.7
55367.8
54296.2
52475.8
52370
51122.8
49155.9
49099.7
47790.3
45726.3
45536.5
43952.7
41545.8
40977.5
39158.9
36037.1
37824.9
35994.7
25889.8
25287.6
22802.8
20706.7
23959.1
10195.3
9416.99
20091.6
20430.8
21587.6
22667.7
22019.9
20707.7
17630.6
10793.2
10266.4
8178.87
7930.5
7552.49
7091.65
7075.65
6516.49
6440.54
7424.73
5784.27
6515.18
5439.09
5536.97
5099.66
4727.95
4972.77
4334.11
3944.71
4706.6
3349.02
4244.42
3574.31
4334
3358.37
57056.3
55517.3
55339.1
54299.5
52477.9
52339.8
51124.7
49161.6
49068.3
47791.2
45728
45477.8
43857.8
41546.6
40913.4
39161.7
36166.3
37541.9
35588
26423
25630.9
23288.6
21556.1
23919
11252.1
10419.6
20204.7
20604.8
21589.6
22586.2
21884.4
20751.3
17653.5
11407.4
11009.7
8560.61
8785.37
8267.65
7736.16
7949.44
7329.44
7096
8013.1
6292.02
7117.69
6015.84
6147.76
5679.89
5081.73
5362.5
4695.67
4293.54
5103.18
3687.93
4543.46
4040.66
4610.21
3638.7
57001.4
55523.5
55314.3
54235.7
52486.6
52316.8
51049.8
49172.1
49048
47705.8
45731.8
45432.8
43754.1
41559.1
40922
39168.1
36307.2
37309.1
35222.4
26943.3
26005.2
23793.4
22388
23851.4
12296.5
11361.7
20299.9
20675
21637.7
22500.5
21566.5
20719.8
17494.2
12060.1
11391.4
9309.58
9187.95
9222.61
8258.18
8693.1
8053.43
7751.74
8578.28
6936.3
7603.52
6298.36
6448.69
5941.46
5347.97
5647.94
5083.39
4649.77
5357.01
3971.77
4870.52
4310.02
4868.1
3982.73
57007.1
55529.3
55282.4
54239.8
52494.5
52281.6
51053.6
49184.9
49012.7
47709.4
45739.2
45372
43756.1
41573.4
40907.4
39179.9
36435.3
37081.1
34868.6
27442
26395.4
24331.6
23190.7
23733.5
13398.8
12389.2
20702.4
20876.9
21695.8
22451
21417.6
20803.7
17521.9
12955
11731.2
10176.4
9699.58
10061.8
8980.52
9191.88
8469.02
8172.21
8801.86
7409.78
7780.19
6500.73
6804.79
6222.83
5822.21
6015.99
5459.64
4833.27
5641.3
4395.05
5066.89
4541.75
5176.55
4305.44
56953.9
55539.9
55249.8
54172.4
52505.2
52252.3
50975.2
49195.4
48987.2
47621.8
45745
45320
43649.8
41591.1
40915
39185.5
36562.3
36896.6
34527.5
27938.3
26813.6
24876.7
23953.7
23640.4
14475.1
13390.4
21024.3
21087.4
21776.1
22417.7
21314.8
20967.6
17724.5
13724.2
12224.7
10873.4
10492.2
10014.9
9828.59
9695.28
8792.05
8556.15
8882.6
7918.73
8036.21
6923.78
7346.65
6580.06
6209.53
6109.67
5818.42
5112.81
5992.36
4892.51
5213.26
4943.86
5464.9
4616.44
56961.1
55547.2
55208.1
54177.2
52518.9
52208
50979.9
49209.1
48942.6
47624
45752.6
45247.2
43651.1
41617.4
40912.5
39201.7
36692.5
36729.8
34478.1
28427.6
27239.4
25443.3
24660
23505.1
15584.6
14508.1
20598.9
21317
21906.6
22405.5
21346.6
20929.9
17957.3
13939.2
12731.6
11288.4
11366.4
10285.2
10542.7
10546.9
9552.35
9375.42
9421.56
8662.05
8475.7
7340.78
7687.45
6613.61
6565.16
6286.03
6232.47
5597.01
6179.8
5172.57
5431.35
5397.59
5762.68
5031.52
56930.7
55558.7
55169.9
54110
52528.9
52189.6
50904.6
49223.9
48916.7
47534.6
45759.3
45193.5
43544.5
41641
40921.5
39211.7
36821.1
36609.9
34494.4
28926.6
27699.9
26036.5
25331.3
23468.3
16653
15569.2
20098.1
21599.9
22004.7
22164.9
21390.1
20689.3
18122.1
14290
13342.3
11793.8
12191.8
11121.3
10576
11418.9
10300.5
10129.9
9784.73
9075.72
8526.58
7278.18
7894.55
6671.67
6975.69
6721.71
6436.97
5867.82
6277.27
5370.67
5723.44
5665.16
6078.97
5453.16
56888.5
55514.6
55107.6
54041.5
52529.8
52119.8
50823.7
49228.8
48842
47445.8
45760.3
45092.6
43477.6
41662.5
40833.7
39221.8
36907.8
36452.2
34512.7
29380
28146.9
26648.1
25923.5
23497.9
17797.6
16753.3
20136.9
22248.6
22224
22103
21726.9
20722.2
18701.2
15257.7
14110.6
12593
12763.2
12180.9
11137.8
11945.7
10592.4
10200.4
9242.19
9426.19
8729.22
7461.5
8357.19
7287.4
7558.04
7143.87
6659.5
6157.98
6691.03
5940.76
6062.54
5987.58
6517.58
5833.2
56902.8
55532.1
55064.2
54056
52553
52068
50837.7
49258.5
48787
47460.2
45786.2
45059.2
43490.3
41713.2
40844.9
39251.2
37042.7
36357.2
34596.3
29812.5
28586
27247.3
26410.5
23552.1
18768.1
17630.9
20033.2
22511
22162
21975.1
21713
20605.1
19015.2
15734.3
14560.6
13111.9
13006.7
13205.3
11865.2
12063.2
10732.1
10061.4
8849.34
9605.09
9116.22
7950.36
8651
7869.52
7660.18
7224.34
6849.35
6558.44
7098.07
6364.9
6352.6
6396
6948.99
6073.51
56833.3
55551.5
55043.9
54001.9
52572.6
52045.1
50767.4
49282.4
48786.8
47374
45808.9
45061.9
43489.5
41759.4
40861
39276.4
37140.6
36371.6
34657.8
30261.2
29021.8
27796.4
26791.9
23670.7
19764.9
18608.5
20073.2
22878.8
22258.8
22028.1
21815.7
20712.1
19297.6
16330
15084
13834.1
13616.8
14084.2
12997.3
12593.9
11388.2
10667.4
9541.72
10043.1
9650.53
8561.32
8740.44
8103.34
7765.71
7566.09
7233.01
7053.89
7337.17
6441.4
6651.63
6850.29
7181.14
6374.48
56840.8
55564.1
54984.6
54009.4
52591.9
51976.4
50775.1
49305.5
48714.8
47380.5
45832.2
45024.8
43495.2
41812
40872
39308.1
37239.3
36372.1
34727.1
30726.7
29476.3
28382
27098.5
23851
20718.5
19538.6
20238.1
23555.9
22470.3
22173.2
22299.4
20979.9
19477.9
17121.6
15699.7
14542.1
14297.2
14650.9
14318.5
13533
12309.1
11469.8
10471.8
10472.5
9857.6
8871.48
8789.2
8313.47
8320.01
8118.53
7678.09
7288.23
7493.06
6616.62
7086.84
7161.68
7334.36
6810.69
56791.5
55583.4
54983.8
53958.3
52610.5
51977.3
50703.6
49332.8
48720.8
47323
45859.5
45038
43497.3
41862.3
40895.6
39338.2
37340.1
36410.8
34820.9
31174.1
29935.8
28928.9
27303.3
24123.1
21592.1
20349.4
20465.8
24034.6
22749.6
22223.1
22559.3
21358.9
19577.6
17948.6
16270
15027.5
15046
15395.8
15028.8
14672.9
13200.6
11875.9
10876.4
10445.8
9885.53
9274.52
9229.93
8786.3
8889.32
8389.39
7945.58
7508.02
7820.4
7206.24
7594.3
7398.3
7642.56
7303.01
56796.7
55597.4
54923
53963.4
52632.2
51908.4
50708.9
49358.6
48708.5
47330.7
45887.5
45043.4
43512.2
41925.2
40911.6
39377.7
37439.9
36465.9
34933.2
31634.5
30392.4
29457.7
27473.3
24504.6
22444.2
21151.1
20916.7
23508.8
23061.3
22403.8
21839.8
21687.1
19814.6
18677.3
16859
15521.9
15922.6
16561.5
15468.6
15380.8
13484.4
12125
11203.9
10564.6
10429.2
10008.3
9815.87
9230.36
8867.4
8537.88
8333.1
8059.6
8288.92
7881
7841.77
7731.49
8061.66
7777.79
61898.2
61111.3
60497.9
59555.7
58431.4
57791
56797.5
55616.3
54923.6
53967.1
52652.7
51917.9
50710.6
49384.3
48723.1
47335.5
45918.3
45068.8
43521.5
41991.2
40958.5
39426.8
37557.7
36548.3
35076.5
32086.7
30859.4
29929.9
27634
24946.3
23206
21888.2
21348.6
22883.7
23469.5
22362.2
21387.2
22176.1
20149.4
19082.1
17467.9
16063.5
16488.2
17766.8
15979.2
15985.3
13668.1
12560.3
11720.7
11051
11019.2
10302.9
9630.91
9329.93
8891.75
8957.54
8888.62
8609.73
8476.34
8177.21
7981.18
8228.51
8448.85
8063.26
62820
61897.6
61053.9
60416.6
59478
58380.2
57694.7
56719.4
55610.5
54828.3
53884.2
52656.4
51815.9
50614.3
49390.7
48619.3
47225.7
45932.3
44992.6
43524.5
42040.5
40981.7
39476.1
37659.2
36608.6
35221.5
32487.8
31277.6
30343.1
27774.5
25418.6
24009.8
22688.7
21954
22908.1
24004.3
22439.4
21809.4
22870.5
20724.7
19509.4
18260.7
16689.5
16796.4
20668.6
17230
17117.4
14703.5
13472.8
12600.5
11574.5
10845.3
10403.3
9682.09
9608.87
9495.17
9562.57
9438.19
8845.33
8598.93
8424.94
8290.64
8750.38
8759.29
8401.16
63662.2
62829.9
61917.6
61084.9
60416.8
59490.4
58419.7
57694.5
56745.3
55652.9
54834.3
53907.8
52693.5
51825.6
50636.5
49433.8
48632.9
47244.1
45984.3
45028.1
43564.3
42130
41041.6
39562.1
37822.8
36730.4
35428.2
32903.7
31728.9
30718.6
27971.4
25953.2
24682.9
23338.1
22451.2
22756.4
24633.3
22552.8
21956.8
24348.1
21420.6
19769.2
19241.6
17063.5
16622.4
21770.8
17897.5
19896
15608
13854.1
12798.3
11613.2
10788
10665.1
10221.8
10124.9
10055.2
9808.44
9646.35
8998.09
9101.59
9145.75
8986.75
9057
9110.2
8864.82
64150
63663.3
62767.8
61919.5
61104.2
60357.8
59465.6
58446.9
57663
56748.5
55675.6
54833.5
53913.1
52723.4
51834.2
50642.5
49468.4
48652.3
47250.6
46018.6
45049.3
43585.2
42206.8
41103.1
39639.3
37953.6
36847.2
35583.5
33291.2
32142.8
30947.4
28198.7
26463.1
25339.8
24030.3
22954.5
22818.5
25201.7
22737.3
21944
25055.5
22291.4
20137
20277.3
17818.1
16431.7
12646.7
15701.5
20931.6
14810.2
12817.2
11910.3
11722.1
11313.1
11169.8
10980.9
10714.1
10269.4
9937.69
9880.06
9447.5
9598.88
9772.93
9570.65
9443.83
9535.13
9294.12
64175
63667
62715.5
61929.3
61119
60296.5
59470.9
58468.7
57598.6
56757.3
55702.2
54826.8
53924.5
52751
51839.6
50657.1
49503.8
48669.7
47269.3
46065.3
45076.9
43619.2
42290.8
41162.3
39729.9
38110.1
36968
35761.3
33724.4
32563.8
31127.4
28534.5
26976.7
25975
24696.3
23496.9
23101.2
24439.8
23006.4
21962.1
20530.1
22274.6
20576.2
20301
18855.2
16415.8
11377.6
14058.8
11409
13071.5
12412.1
11707.2
12184.7
12038.1
11730
11625.1
10889.6
10440.9
10301.8
10377.3
10092.9
9916.64
9935.93
9452.63
9829.18
9926.71
9751.3
64189.7
63681.7
62718.7
61936.1
61140
60298.8
59473.4
58491.6
57600.8
56765.8
55725
54829.7
53931.1
52770.3
51852.3
50662.6
49530
48701
47284.2
46112.6
45120.4
43654.3
42367.5
41240.7
39830.8
38278.7
37136.4
35950.7
34129.2
32975.1
31268.1
28948.7
27474.3
26566.8
25317.4
23950.8
23421.4
23688.7
23639.9
21753.7
19334.8
24511.2
21399.2
20107
19901
17376.4
13658.8
14025.7
9889.67
12871.3
12974.7
12596
12854.5
12626.6
11845.3
11773.7
10922.5
11038
11046.7
11026.9
10479.1
10217.9
10100.4
9518.34
10205.6
10330.8
10274
64190.4
63588.2
62622.7
61871.7
61058.4
60188.6
59390.6
58414
57488.7
56683.9
55686
54711.5
53847.1
52764.7
51732.7
50582.3
49531.3
48593.7
47270.8
46139.4
45135.5
43690.7
42438.6
41296.1
39919.3
38410.8
37247.7
36123.5
34490
33269.6
31386.8
29386.6
27926.9
27150.2
25935.7
24484.3
23897.2
23656.4
24352.2
21843.6
20096.3
26009.7
22229.5
20612.6
19832.7
18425.6
15721.2
14892.8
12632.9
13802.9
13807.7
13742.1
13083.7
12599.4
11963.5
12031.9
11310.2
11652.8
11716.7
11483.9
10803.8
10596.2
10520.7
10104.1
10603.1
10698.9
10751.3
64235.5
63621.8
62646.3
61911.2
61108
60211.3
59430.6
58473.7
57514.9
56725.3
55744.7
54736.6
53882.7
52811
51757.2
50613.9
49579.3
48634.6
47310.4
46221.3
45208.2
43775
42573.4
41415.7
40070.5
38650.7
37481
36430.4
34951.3
33585.7
31583.9
29922.1
28479.1
27708.9
26484.9
24971.2
24285.6
23659.4
23590.4
22060.8
19959.2
17162.7
22467.7
21150.9
19525.1
18397.4
17468.2
16473.2
14756.4
14704.4
14059.3
13879.1
13188
12647.1
12535.7
12665.6
12062.5
11963
11561.5
11561.1
11349.2
11103.2
11072.4
10828.4
11154.4
11237.5
11328.2
64257.2
63636.6
62647.4
61919.5
61125.2
60211.7
59442.1
58504.5
57524.9
56741.9
55776.5
54751.7
53909.6
52852
51791
50646.6
49624.8
48680.6
47347.8
46283.4
45264.8
43840.2
42678.1
41524.9
40202.9
38843.8
37666.7
36652
35323
33757.2
31787.2
30398.3
28950.5
28244.2
27035.9
25450.8
24694
23839.6
22962.8
22825.1
19599.8
15278.5
22689.5
23228.7
20042.6
18603.4
18011.8
17185.7
16201.8
15009.6
14198.4
13848.6
13688.3
13228.9
13284.2
13587.3
12430.7
12144.9
11619.1
11861.6
11776.7
11550.8
11590.7
11344.6
11696.2
11859.3
12162.2
64192.4
63535.3
62537.8
61837.8
61034.6
60086
59344.1
58414.4
57403.9
56647.1
55696.2
54626.5
53811.5
52777.6
51665.6
50546.9
49629.4
48683.7
47359.7
46323.7
45299.5
43887.8
42756.1
41604
40314.1
38991.7
37800.5
36852.3
35625.3
33874
32022.7
30823.1
29379.9
28742.4
27574.3
25976.3
25140.6
24124.1
23062.7
23766.3
20507.4
16960.4
16634.1
23250.3
21105.8
19381.1
18670.2
17860.7
16651.9
15148.7
14819.3
14229
14313.2
13991.9
13578.9
13821.1
12630.9
12578.6
12142.3
12263.7
12131.3
11939
12019.5
11730.6
12167.3
12434.8
13028
64248.7
63585.8
62581.7
61898.9
61102.3
60129.2
59405.3
58488.4
57451.2
56710.3
55771.4
54676.1
53875
52848.6
51719.2
50611.3
49711.6
48758.7
47441.2
46437
45407.1
44011.8
42933.2
41778.2
40537.1
39280.7
38090.1
37255.1
36002.9
34055.8
32494.5
31351.9
29949.5
29284.4
28078.3
26477.3
25541
24446.7
23186.3
22931.1
21180.1
17700.1
14892.5
14441.3
19868.8
20784.9
19975.4
19059.2
17267.4
16060.9
16321.2
16030.8
14916.2
13777.1
13583.5
13431.2
13095
13136.8
12753.1
12832
12778
12591.4
12681.6
12453.3
12839.5
12947.5
13335.9
64260.3
63595.9
62565.8
61911.6
61123.7
60129.5
59420.1
58524.7
57464
56727.4
55804.7
54693.4
53898.1
52898.8
51766.5
50649.3
49765.7
48809.1
47487.1
46516.3
45488.3
44097.7
43054.6
41907.8
40683.7
39485.4
38289.3
37544.2
36185.2
34218
32887.9
31787.1
30413.6
29771.3
28584.2
26959.8
25968.7
24787.9
23459.2
22418.4
20851.9
18793.6
16015.3
12687.3
15910.5
20584.6
22602.4
22619.2
19787
16987.5
17089.6
16954.5
14905.8
13905.7
13940.8
13523.4
13349.8
13562.5
13274.8
13351.6
13350.2
13143.4
13240.3
13042.7
13437.3
13349.7
13439.9
64288.1
63619.4
62571.5
61932.4
61156.4
60133.7
59439
58563.8
57485.2
56759.9
55857.9
54727.1
53937.9
52951.8
51814.6
50697.1
49833.3
48870.8
47549
46607.2
45583.1
44204.6
43194.4
42056.8
40863.8
39723.3
38522.5
37889.4
36341.4
34459.6
33306.1
32265.3
30912
30257.9
29101.9
27477.8
26436.7
25216.8
23880.9
22748.7
20829.1
20216.4
17594.6
14624.3
14754.2
15409.6
21575.8
24075.1
20939.5
16199
14839.8
13814.2
14520.3
14437.3
14303.4
14190.5
13842.6
14101.4
13851
13900.3
13956.6
13729.6
13790.3
13523.6
14047.2
13914.9
13964.6
64315.2
63655.3
62594
61956.8
61195.9
60159.8
59467.2
58607.3
57522.9
56796.6
55909.3
54781.4
53993.3
53013
51885.9
50753.9
49904.1
48959.5
47629.5
46703
45701
44325.7
43343.7
42250.5
41084.1
39972.4
38798.7
38224.8
36468.9
34811.7
33744.3
32712.4
31415.8
30753.5
29612.3
27973.4
26901.9
25676.6
24294.2
23121.6
21368.2
20135.7
18920.8
16316.4
15315.9
13744.9
11880.1
11827.7
12836.2
14580.5
13955.4
12895.2
14647.1
14799.5
14752.7
14757.2
14397.5
14721.6
14470.6
14513.9
14621.4
14498.8
14608.9
14408.1
15380.6
14639.4
14532.3
64213.3
63507.5
62437.1
61849.4
61053.6
59989.3
59348.7
58474.3
57360.7
56680.3
55781.4
54624.5
53882
52922.8
51755.3
50734.4
49916.1
48975.4
47667.5
46756.5
45760
44406.9
43440.4
42354.8
41220.2
40119.3
38937.1
38397
36559.9
35042.7
34064.5
33057.2
31772.5
31169.5
30064.1
28431
27366.2
26122.9
24698.1
23489.8
21883.4
20101.3
18994.1
17758.1
16414.1
14158.9
10503.5
9690.84
10641.8
14158.6
14347.2
14163.5
15085.2
15124.7
15138.5
15206.3
14784
15178
14888
14922.6
15058.6
15070.2
15233.7
15176.9
16737.7
15250.3
14930.3
64299.3
63590.9
62499.7
61923.1
61147.5
60060.6
59427.6
58581.3
57448
56770.1
55897.2
54725.5
53985.1
53043.9
51877.9
50843.7
50063.2
49113.4
47808.7
46955.6
45958.4
44625.6
43728.3
42663.2
41557.6
40486.3
39357.7
38711.2
36869.4
35564.3
34628.1
33665.1
32400.7
31745.3
30633.7
29007.6
27930.1
26702.3
25237.3
24043.1
22554.7
20956
19363.8
18096.5
17690.4
15888.4
13361
12732.6
13387.6
14656.8
14867.6
15178
15657.2
15719.1
15770.9
15929.3
15538
15927.4
15624.5
15618.7
15775.9
15847.2
15758.9
15503.3
16810.3
15967.8
15779.7
64327.2
63628.1
62529.5
61952.1
61183.7
60086.3
59458.6
58625.9
57488.1
56816.9
55955.2
54782.1
54050.7
53110.4
51954.2
50915.1
50140.5
49203.3
47903.7
47059.6
46086
44770.8
43899.6
42864.1
41801.1
40719.3
39655.3
38858.9
37131.3
35941.6
35043.5
34105.5
32879.9
32247.5
31158.3
29544.9
28482
27264.8
25765.5
24629.9
23221.6
21707.6
20304.3
18482
17870.4
17639.6
15723.5
14405
14576.1
15583.2
15862.7
15904.9
16568.8
16645.4
16762.3
16893
16255.6
16826.5
16710.3
16731.9
16917.7
17315.8
16307.1
15830.3
16723.9
16588.2
16502.3
64191.3
63455
62346.1
61814.1
61019.7
59898.9
59316.4
58473.5
57312.5
56681.5
55812
54619.3
53933.3
53058.3
51901.1
50916.4
50159.6
49232
47949.4
47115.2
46150.4
44851.5
43989.8
42962.4
41927.6
40837.7
39795.8
38919.4
37359.9
36146.7
35306.6
34413.4
33203.1
32629.7
31585.1
29996.6
28958.6
27740.9
26238.3
25162.6
23802.1
22374
21049.5
19383.2
18254.5
17741.8
17762.2
16729.5
16352.1
16843.3
16914.4
17139.2
17666.6
17649.1
17756.4
17835.4
17417.6
17677.4
17700
17743
18009.7
18854.1
17032.5
16367.4
17182.8
17141.3
17010.2
64301.8
63562
62436.9
61922.1
61136.9
59998.8
59430.4
58601
57427
56813.6
55952.2
54756.1
54094.7
53210.9
52056
51085.5
50363.9
49431.3
48169.3
47384.6
46429.2
45161
44347.3
43349.5
42349.2
41238.1
40209
39215.8
37938.1
36718.6
35918.4
35073.3
33890.8
33273.7
32224.2
30660.5
29632.2
28449.4
26960.7
25931.1
24626
23280.4
22044.6
20429.2
19529.6
18445.8
18081.9
17580.6
18543.8
17828.9
17590.1
18994.2
18430.7
18003.3
18041.5
18300.7
19312.7
18452.7
18025.4
18069.1
18275.5
18812.9
17852.6
17369.3
18021.3
18106.5
18036.4
64329.9
63597.9
62462.3
61959.9
61186.2
60035.8
59481
58667.7
57482.7
56881.1
56033.9
54831.8
54180.7
53300.6
52146
51179.3
50469.8
49546.7
48296.4
47526.9
46588.1
45337.4
44561.3
43570.4
42596
41478.9
40411.6
39425.4
38325.8
37100.1
36352.5
35535.2
34380.3
33805.1
32785.3
31251.8
30264
29099.2
27627.1
26659.7
25392.1
24129.1
22975.6
21369.5
20626.5
19587.7
18665.1
18167.5
18498.7
17964.9
18026.2
18770.2
18483.6
18234.1
18295.5
18450.4
18996.3
18525.9
18176.2
18265
18458
18587.8
18541.4
18117.7
18672
18834.7
18855.8
64160
63420.1
62271.7
61789.6
61014.5
59850
59315.1
58506
57313.7
56734.8
55926
54718.2
54106.1
53306
52163.9
51196.2
50501.7
49602.6
48357.1
47596.3
46684.7
45441.2
44670.7
43701.4
42709.8
41634
40537.8
39573.4
38559.3
37335.6
36610.7
35844.1
34715.5
34175.5
33225.1
31722.3
30751.2
29619.3
28167.9
27238.2
26023.3
24819.7
23748.2
22218.1
21539.5
20598.9
19713.4
19284.7
18581.1
18507.2
18688.2
18713.1
18855.5
18755.3
18775.7
18943.5
18671.1
18977.5
18689.1
18857.2
19064
19097.8
19140.5
18653
19092.5
19263.5
19335.2
64313.8
63543.2
62399.1
61950
61149.7
59985.3
59490.4
58665.6
57472.1
56939.1
56111.2
54904.8
54346
53520.4
52363.5
51450.5
50782.9
49871.2
48667.6
47946.7
47039.9
45841
45112.1
44131.8
43124.9
42145.6
40963.2
40089.2
39182.9
37986.8
37316.3
36572
35476.1
34923.8
33948.3
32482.5
31551.5
30450.4
29045
28164.8
26994.1
25866.3
24829.6
23406.7
22794.3
21939.9
21134.3
20765.7
20003.4
20024.4
19878.8
19900.9
20039.5
19801.2
19856.6
20101
19692.5
20143.5
19879.6
19983.3
20125.8
20157.5
20255.6
19768.9
20155.9
20312.7
20390.4
64343.4
63578.9
62406.6
61969.3
61185.8
59997.3
59509.5
58712.8
57507.4
56977.8
56182.6
54971.2
54407.1
53608.8
52450
51530
50890.8
49988.2
48787.7
48093.3
47203.3
46008
45328.9
44308.8
43302.9
42413.9
41189.5
40351.6
39538.4
38369.3
37733.6
37028.1
35950
35438.4
34505
33073.3
32195
31116.2
29743.5
28921.8
27777.5
26699.1
25712.3
24405
23835.3
22998.6
22245.8
21892.7
21074.9
21132.8
20941
20661.3
20960.4
20591.2
20600.1
20838.8
20437
20884.8
20721.6
20767.6
20876.5
20902.2
21044.2
20590.8
20938.4
21074.9
21183
64400.6
63654.7
62466.6
62020.5
61253.7
60056.5
59565
58786.4
57579.2
57045.5
56263
55059.7
54499.2
53715.3
52573
51651.4
51022.8
50151.9
48953.5
48276.4
47421.6
46244.8
45544.2
44545.2
43581.8
42717.3
41491.5
40707.7
39965.2
38838.9
38225.5
37560.5
36515.8
36008.3
35123
33725.9
32869.5
31850.3
30505.3
29718
28648.2
27626.4
26661.1
25454.2
24893.7
24094.4
23399.4
23022.2
22196.2
22236.6
22070.2
21530.8
21825.7
21617
21529.2
21608.1
21167
21504.7
21524.9
21570.8
21665.5
21670.9
21801.8
21415.5
21772.3
21887.6
21967.8
64448.6
63713.2
62519.3
62085.8
61327
60120.7
59637.2
58867.9
57657
57129.1
56352.9
55148.9
54595.1
53824
52687.6
51774
51166.1
50309.6
49123
48473.3
47636.3
46470.7
45752.7
44805.8
43870.7
43024.5
41809.2
41082.6
40383.6
39290.9
38721.2
38077.1
37060.4
36585.3
35718.3
34357.8
33548.9
32561.4
31257
30516.2
29487.8
28526.7
27571.3
26464.4
25928.3
25140.2
24491.3
24099.3
23287.9
23331.3
23119.6
22526.2
22755.8
22579.9
22462.6
22495
22115.2
22355.9
22326.2
22406.1
22483.9
22525.8
22654
22290.2
22595.7
22684.8
22778.6
64480.4
63768.6
62562.7
62135.3
61405.5
60188.9
59704.9
58961.8
57744.7
57211
56455.4
55252.1
54691.8
53945.9
52815.7
51893.6
51308.7
50469.8
49287
48667.8
47853.5
46654.5
45976.2
45069.3
44146.7
43336
42144.9
41456.3
40820.2
39757.3
39203.4
38605.9
37612.6
37147.9
36331.5
35002.7
34225.5
33285.6
32011.2
31309.2
30321.3
29368
28523.8
27464.2
26940.1
26185.5
25539.3
25154.1
24354.5
24367.8
24128.7
23513.5
23682.7
23510.1
23355.6
23387.9
23019
23204.6
23135.8
23203.5
23285.3
23298.9
23400.7
23104.6
23389.4
23471.3
23569.6
64540.9
63846.9
62637.4
62206.7
61491.6
60280
59798.3
59064.9
57858.8
57332.1
56565.8
55378
54845.1
54085.5
52972.4
52077
51503.2
50687.4
49529.8
48930.8
48113.4
46911.2
46281
45410
44517.9
43707.8
42553.7
41921.4
41301.3
40281.4
39769.5
39184.1
38226.8
37789.8
36995.9
35709.7
34971.6
34076.1
32840.4
32176.9
31254.3
30311.4
29557.8
28478.1
27993.8
27281.4
26670.8
26253.2
25455.4
25469.2
25214.9
24578.5
24721.1
24540.7
24383.7
24415.1
24021
24159.9
24088.4
24114
24218.4
24213.1
24293.1
24019.5
24275.6
24373.5
24456
64373.5
63648.5
62444.7
62049.5
61308.8
60100.4
59655.3
58924.9
57723.1
57249
56561.6
55377.5
54843.4
54101.1
52990.7
52090.3
51513.2
50715.6
49569.3
48958.7
48152.6
46976.4
46343.8
45488.1
44616.6
43841.1
42714.5
42095.4
41505.4
40513.1
40021.5
39462
38534.4
38133.2
37376.8
36129.9
35419
34539.6
33346.6
32700.1
31799.8
30889.7
30204.4
29121.5
28650.8
27955.8
27353.5
26942.9
26177.7
26126.2
25852.9
25236.9
25340
25119.7
24929.5
24975.5
24593.8
24746.4
24644.3
24600.8
24686.2
24717.9
24786.6
24564.4
24774
24860.3
24962.2
64593.5
63856.3
62659.5
62283
61535.9
60339.8
59922.5
59185.2
58001.9
57557.5
56844.9
55675.7
55178
54438.1
53333.4
52471.2
51925.2
51144.2
50005.4
49407.4
48622.5
47471.2
46878.7
46051.2
45208.5
44458
43360.8
42795.7
42250
41293.3
40840
40314.2
39417.5
39015.8
38268
37046.1
36369.1
35545.4
34385.6
33779.9
32910.4
32086.7
31429.6
30365.1
29931.4
29276.3
28702.3
28286.3
27516.8
27459.2
27182.3
26545.9
26643.6
26433.2
26232.2
26281.7
25834.5
26004.9
25933.9
25804.5
25859.3
25922.7
25964.7
25744.8
25935.3
26029.3
26130.4
64615.4
63892.5
62691.2
62329.6
61599.4
60397.1
59989
59272.9
58084.5
57637.2
56943.5
55770.9
55270.2
54563.3
53465
52603.7
52083.1
51306.8
50164.1
49596.8
48815.7
47698.1
47136.2
46307.5
45496
44790.3
43720.4
43187.8
42673
41742.6
41321.3
40815
39937
39576.7
38861.1
37685.5
37054.1
36247.2
35137
34571.8
33703.6
32962.9
32289.2
31264.6
30874.6
30226.5
29659.1
29260.2
28517.5
28426.4
28141.9
27530.2
27607.9
27361
27157.9
27160.4
26712.2
26917.7
26857.9
26717.8
26700.8
26774.5
26814.3
26570.3
26748.2
26848.7
26932.8
64673.1
63971.9
62764.5
62401
61695.3
60491.8
60078.7
59383.5
58200.4
57752.3
57071.8
55908.4
55412.7
54718.9
53640.1
52785.6
52289.2
51519.3
50366.4
49841.5
49093.8
47985.4
47445.8
46659.5
45864.7
45185.9
44151.6
43649.9
43170
42273.9
41866.9
41397.9
40540.8
40185.7
39520.1
38375.3
37766.9
37012.2
35919.1
35369.2
34578.4
33858.4
33198.5
32200.2
31820.9
31213.7
30652.2
30255.1
29524
29406.2
29133.4
28508.3
28573.6
28330.4
28111.1
28074.1
27616.5
27799.7
27738.8
27623.2
27582.1
27645.6
27718
27412.4
27613.8
27701.5
27783.9
64751
64053.9
62844.2
62490.5
61790.7
60587.5
60190.2
59499.3
58316.2
57884.1
57207.1
56045.4
55570.8
54887.8
53818
52991.5
52497.7
51720.8
50612.1
50106.9
49366.3
48294.4
47779.9
47008.2
46251.9
45602.6
44596.3
44136.4
43674.2
42801
42427.1
41972.8
41135.2
40817.1
40174.6
39067.3
38496.2
37761.6
36715.8
36183.5
35453.2
34738.9
34090
33151
32791.3
32195.7
31648.5
31257.8
30542.3
30417.9
30136.6
29523.1
29572.4
29320.7
29103.4
29019.5
28582.5
28736.5
28659.8
28560.5
28494.8
28545.1
28669.5
28302.2
28522
28611.6
28693.6
64821.2
64146
62930.7
62577.3
61902
60694.3
60290.4
59625.5
58442.4
58001.4
57350.3
56194.9
55715.6
55060.1
54013.6
53171.6
52686.4
51950.6
50852
50371
49657.7
48596.5
48113.6
47372
46627.4
46014.6
45049.4
44602.3
44181.5
43330.9
42969.4
42553.5
41744.4
41447.6
40852.2
39769.9
39217.5
38525.2
37490.8
37000.2
36311.7
35597
34983.4
34072.2
33718.2
33151.5
32591.9
32221.7
31532.8
31384.7
31107.6
30496.3
30534.3
30281.5
30054.9
29944.7
29521.2
29654.5
29550.3
29459.5
29404.7
29412.3
29527
29193.5
29415.9
29501.1
29578.9
64905.5
64232.6
63021.6
62684
62008.5
60807.5
60423.6
59753.5
58576.9
58160.8
57502.8
56353.5
55908.2
55249.3
54217.7
53379.8
52912.5
52208.4
51134.7
50666.5
49977.6
48939.9
48478.7
47767.5
47064.3
46464.4
45523.8
45118.8
44716.4
43882.1
43569.1
43163.2
42377.4
42111.2
41521.4
40471.4
39956.5
39288.6
38283.3
37844.8
37179.1
36491.8
35895.5
35003.7
34678.1
34133.8
33590.1
33217.4
32530.9
32396.2
32114.5
31505.8
31540.8
31288.7
31063.6
30925.7
30503.8
30617.1
30506.7
30409.6
30388.8
30338
30439.5
30151.2
30334.1
30429.8
30507.1
64985.9
64329.2
63111.2
62773.1
62122.4
60918
60529.2
59885.8
58708.9
58286
57659.7
56512.9
56065
55447.4
54411.1
53575.5
53153.3
52453.4
51397
50959.4
50284.3
49266.6
48842.3
48145
47453.5
46907
45994.9
45599.3
45241.1
44439.6
44137.1
43762.1
42998.1
42742.6
42184.9
41168
40680.2
40038.1
39078
38665.2
37993.3
37319.6
36773.4
35910.9
35582.6
35060.9
34518.7
34165.4
33509.2
33348.6
33070.4
32480.1
32499.6
32235.8
31992.7
31860.8
31458.1
31545.6
31417.7
31311.8
31311.3
31219.1
31302.2
31088.1
31239.5
31320.4
31397.2
65080.3
64434
63219.7
62893.8
62243.8
61047.3
60679.3
60026.9
58859.4
58467.1
57830.2
56699.3
56296.6
55653.7
54613.2
53830.9
53418.4
52749.7
51704.5
51281.7
50645.5
49644.1
49239.8
48587.2
47933.6
47396.9
46497.5
46160.4
45802.4
45019.6
44747.7
44389.6
43646.9
43411.8
42879.7
41890.6
41436.6
40828
39891.8
39497.1
38866.5