/*--------------------------------*- C++ -*----------------------------------*\
| =========                 |                                                 |
| \\      /  F ield         | OpenFOAM: The Open Source CFD Toolbox           |
|  \\    /   O peration     | Version:  v2012                                 |
|   \\  /    A nd           | Website:  www.openfoam.com                      |
|    \\/     M anipulation  |                                                 |
\*---------------------------------------------------------------------------*/
FoamFile
{
    version     2.0;
    format      ascii;
    class       volScalarField;
    location    "1e-06";
    object      p_rgh;
}
// * * * * * * * * * * * * * * * * * * * * * * * * * * * * * * * * * * * * * //

dimensions      [1 -1 -2 0 0 0 0];


internalField   nonuniform List<scalar> 
10295
(
57373.5
55571.7
55490.6
54613
52497.8
52476.5
51408.7
49144.9
49182.7
48244
45829.5
45802.8
44770.8
42079
41027.5
39789.5
35331.8
40187.3
40291.9
19983.6
23370.8
20177.3
13480.5
20785.9
1152.23
1788.24
19151.2
15874.5
19459.9
19396.9
18891.6
19063
15480.1
2156.71
-11856.4
-18604.5
-20918.6
-20785.4
-22525.4
-23927.8
-24320.8
-24903.2
-24847.7
-26143.7
-26517.5
-26395
-26648.8
-25886.7
-27356.3
-27946.9
-27543.6
-28236.1
-30568.4
-32887.1
-37255.1
-35195.2
-34398.2
-32409.2
57387.7
55582.9
55504.9
54626.6
52508.3
52490.8
51418
49154.9
49194.9
48190.9
45810
45772.6
44689.5
41999.7
40978.3
39696.7
35336.8
39498.9
39337.5
20414.3
23418
20330.8
14221.1
22012.2
5933.81
5831.76
22301
21943.1
25521.3
29684.8
27508.9
27280.3
28014.1
15656.7
824.847
-2224.04
-4457.74
-5375.93
-7464.65
-8656.39
-9435.22
-10095.9
-10437.4
-11486.6
-11526.9
-11664.9
-11965.1
-12199.7
-12747.7
-12714.7
-12684.6
-13071
-13990.2
-15429.6
-17536.2
-16077.5
-15139.9
-14338.5
57327.2
55568.2
55476.9
54565
52499
52469.8
51355.9
49148.3
49180.1
48137.1
45806.4
45762.6
44628.6
42004.9
40980
39697.2
35270.1
39487.9
39550.6
20972.6
23555.7
20423.5
14618.8
22070.3
2389.1
2455.26
18671.2
16101.3
18361.2
17948.5
17317.2
17544.3
16720.6
5035.93
2507.78
1466.54
676.652
252.692
-259.288
58.6804
-563.039
-1296.42
-2486.27
-3309.23
-3638.91
-4087.71
-4438.44
-5142.12
-5576.79
-5524.05
-5809.47
-5965.36
-6692.34
-7471.45
-7942.16
-6885.47
-5874.64
-5616.38
57330.5
55561.8
55476.7
54566.4
52494.3
52465.8
51357.7
49144.1
49176.2
48138.8
45795.5
45749.1
44559.5
41938.5
40987.2
39691.8
35298.3
39279
39179.3
21506.4
23678.6
20576.3
15222.6
22532.7
5195.86
4356.38
20297.5
20521.1
22252.5
23891.7
23027.7
22732.9
18382.9
7526.46
4068.44
2495.22
1992.62
1919.38
1832.79
1928.35
1808.98
1717.06
1521.81
1362.56
1275.87
1189.94
1120.69
987.017
438.779
441.088
-126.16
-272.597
-683.919
-1383.44
-809.781
-339.212
-260.794
-292.393
57289
55565.8
55467.8
54521.5
52496.3
52459.3
51317.8
49149.2
49171.5
48080.3
45789.6
45733.7
44483.4
41884
40992.7
39590.4
35347.7
39160.4
38768
22177.9
23808.9
20739.7
15871.1
22908.4
5065.34
4395.99
19878.9
19873.6
21011.7
23380.3
22290.1
20930.1
17610.3
7664.51
5049.93
3398.58
2747.93
2682.17
2409.01
2751.78
2504.13
2549.94
2509.14
2208.76
2161.22
2031.05
1983
1963.26
1860.33
1857.48
1711.76
1640.06
1582.57
1291.52
1530.48
1594.74
1603.14
1526.37
57240.4
55558.6
55455.1
54469.5
52489
52448.8
51257.7
49141.5
49164.2
48015.5
45772.6
45710.5
44392.3
41808.2
41001.8
39471.4
35329.6
38994.8
38227.6
22833.5
23945.1
20960.8
16617.6
23317.6
5854.17
5322.34
20041.2
19760.6
21420.7
23638
21426.5
20859.6
18201.9
7821.96
6401.34
4470.14
3834.69
3649.01
3305.16
3621.65
3401.69
3626.69
3649.52
3230.15
3239.85
2952.24
2906.97
2790.97
2496.88
2453.35
2286.45
2158.61
2233.24
1955.7
2096.74
2059.27
2158.44
1960.71
57241
55551.1
55441.3
54471.7
52482.8
52436
51260.4
49135.8
49153.5
48016.1
45759.3
45682.7
44307.8
41727.4
41009.9
39473.4
35429.1
38793.9
37736.4
23478.5
24126.4
21253.8
17387.2
23612.9
6565.71
6057.61
19924.7
19864.9
21390.8
23539.7
21404.9
20845.3
18051.3
8046.55
7451.22
5352.97
4871.92
4478.97
4197.89
4385.34
4118.45
4375.7
4567.62
4061.34
4053.1
3626.48
3581.95
3308.24
3097.79
3012.72
2892.12
2647.19
2891.21
2365.83
2701.44
2418.41
2739.35
2288.23
57191.9
55553
55427.7
54419.8
52483.3
52423.8
51207.6
49136.3
49144.1
47951.7
45747.6
45653.9
44221.1
41654
41017.4
39338.6
35575.7
38583.9
37264.7
24114.1
24361.4
21573.1
18185.1
23804.6
7328.31
6804.56
19902.8
20160.7
21402.2
23220.3
21908.8
20927.6
17761.3
8735.06
8039.98
6160.67
5605.13
5302.06
4838.59
5191.08
4749.72
4927.36
5256.04
4535.92
4684.86
4084.56
4055.19
3709
3517.23
3461.36
3275.93
2919.33
3435.22
2633.57
3109.33
2617.97
3149.83
2465.52
57195.4
55555.1
55411.1
54423.9
52487.9
52407.5
51212.3
49147.5
49128.7
47955.2
45750.8
45614.1
44163
41611.5
41006.1
39328.9
35747.7
38330.4
36840.3
24728
24626.5
21954.5
19001
23893.4
8239.86
7673.94
19954.1
20253.7
21490.9
22970.5
21842.1
20831.3
17605.8
9560.75
8707.96
7242.28
6263.06
6209.79
5462.86
5993.18
5507.45
5566.05
6010.22
5036.26
5392.84
4622.31
4608.45
4205.51
3930.21
3906.48
3703.33
3277.66
3997.12
2841.5
3484.32
2925.72
3583.86
2775.77
57144.2
55568.2
55411.3
54385.7
52504
52408.4
51215.5
49170
49130.3
47886.8
45757.5
45589.3
44071.2
41616.5
41019.2
39290.8
35924.3
38099.5
36471
25340.9
24949.8
22362
19840.4
23933.2
9088.9
8245.52
19850.1
20090
21400
22640.4
21635.3
20495
17317.8
10048.4
9314.96
7899.37
6863.34
6823.73
6096.22
6374.17
5878.22
5880.35
6730.38
5380.81
5881.29
4885.68
4903.02
4512.16
4173.15
4286.31
3943.02
3533
4302.24
2957.96
3826.93
3126.17
3922.17
3028.21
57079.3
55555.6
55389.8
54316.4
52494.1
52386.5
51137.5
49168.8
49110.9
47799.8
45734.2
45542.8
43957.4
41549
40979.1
39158.9
36035.6
37822
35990.5
25884.1
25280.6
22794.4
20697.1
23948.1
10182.9
9403.21
20076.4
20414.2
21569.6
22648.2
21999
20685.4
17606.9
10768
10239.7
8150.75
7900.9
7521.4
7059.07
7041.57
6480.92
6403.45
7386.11
5744.13
6473.48
5395.84
5492.15
5053.27
4680
4923.22
4282.98
3891.99
4652.26
3293.07
4186.82
3515.07
4273.1
3295.83
57082.1
55541.2
55361.1
54319.6
52496.2
52356.3
51139.4
49174.5
49079.5
47800.8
45735.9
45484
43862.4
41549.7
40915
39161.8
36164.8
37539.1
35583.7
26417.3
25623.9
23280.2
21546.5
23908
11239.7
10405.8
20189.5
20588.2
21571.6
22566.8
21863.5
20728.9
17629.7
11382.2
10983
8532.47
8755.76
8236.55
7703.56
7915.34
7293.82
7058.87
7974.44
6251.82
7075.95
5972.55
6102.91
5633.48
5033.74
5312.93
4644.51
4240.78
5048.81
3631.95
4485.83
3981.39
4549.29
3576.13
57027.3
55547.4
55336.3
54255.8
52504.9
52333.3
51064.5
49185.1
49059.2
47715.3
45739.7
45439
43758.8
41562.2
40923.6
39168.1
36305.8
37306.3
35218.1
26937.6
25998.2
23785
22378.3
23840.4
12284.1
11347.9
20284.6
20658.4
21619.6
22481
21545.6
20697.4
17470.4
12034.9
11364.7
9281.42
9158.32
9191.5
8225.57
8658.98
8017.81
7714.6
8539.61
6896.09
7561.77
6255.06
6403.83
5895.03
5299.97
5598.36
5032.22
4597
5302.62
3915.77
4812.87
4250.74
4807.17
3920.15
57032.9
55553.2
55304.4
54259.9
52512.8
52298
51068.2
49197.8
49023.9
47718.9
45747
45378.2
43760.7
41576.5
40909
39180
36433.8
37078.2
34864.3
27436.3
26388.4
24323.3
23181
23722.5
13386.4
12375.4
20687.2
20860.3
21677.8
22431.5
21396.7
20781.3
17498.1
12929.8
11704.5
10148.2
9669.94
10030.7
8947.9
9157.75
8433.38
8135.05
8763.17
7369.56
7738.43
6457.41
6759.91
6176.39
5774.19
5966.39
5408.46
4780.48
5586.89
4339.02
5009.23
4482.46
5115.6
4242.84
56979.8
55563.8
55271.8
54192.5
52523.5
52268.8
50989.9
49208.4
48998.4
47631.3
45752.8
45326.2
43654.4
41594.1
40916.5
39185.5
36560.9
36893.7
34523.2
27932.6
26806.5
24868.3
23944
23629.3
14462.7
13376.6
21009.1
21070.7
21758
22398.2
21293.9
20945.2
17700.7
13698.9
12198
10845.3
10462.5
9983.79
9795.96
9661.14
8756.4
8518.98
8843.9
7878.5
7994.43
6880.46
7301.76
6533.6
6161.5
6060.06
5767.21
5060
5937.94
4836.47
5155.59
4884.55
5403.94
4553.83
56986.9
55571.1
55230.1
54197.3
52537.1
52224.4
50994.6
49222
48953.8
47633.5
45760.4
45253.5
43655.7
41620.4
40914
39201.7
36691
36726.8
34473.7
28421.9
27232.3
25434.9
24650.3
23494
15572.1
14494.2
20583.7
21300.4
21888.6
22386
21325.6
20907.5
17933.5
13913.9
12704.9
11260.2
11336.7
10254
10510.1
10512.8
9516.69
9338.23
9382.84
8621.8
8433.9
7297.43
7642.54
6567.14
6517.11
6236.39
6181.24
5544.18
6125.36
5116.51
5373.66
5338.27
5701.71
4968.89
56956.5
55582.5
55191.8
54130.1
52547.2
52206
50919.3
49236.8
48927.9
47544.1
45767.2
45199.7
43549.1
41644.1
40923
39211.7
36819.6
36607
34490
28920.9
27692.9
26028.1
25321.6
23457.2
16640.6
15555.4
20082.9
21583.3
21986.6
22145.4
21369.1
20667
18098.2
14264.7
13315.6
11765.6
12162.1
11090.1
10543.4
11384.8
10264.8
10092.7
9746
9035.45
8484.77
7234.82
7849.63
6625.19
6927.62
6672.06
6385.72
5814.97
6222.81
5314.6
5665.74
5605.82
6017.98
5390.51
56914.3
55538.4
55129.6
54061.5
52548
52136.2
50838.4
49241.7
48853.2
47455.3
45768.1
45098.8
43482.2
41665.5
40835.2
39221.7
36906.3
36449.2
34508.3
29374.2
28139.8
26639.7
25913.7
23486.8
17785.2
16739.4
20121.6
22231.9
22205.9
22083.5
21705.9
20699.8
18677.3
15232.4
14083.9
12564.8
12733.5
12149.7
11105.1
11911.5
10556.7
10163.2
9203.44
9385.89
8687.38
7418.11
8312.24
7240.88
7509.94
7094.19
6608.23
6105.11
6636.55
5884.67
6004.82
5928.23
6456.57
5770.54
56928.5
55556
55086.2
54076.1
52571.2
52084.4
50852.3
49271.4
48798.2
47469.7
45794.1
45065.4
43494.9
41716.2
40846.4
39251.2
37041.2
36354.2
34591.9
29806.8
28578.9
27238.9
26400.8
23541
18755.7
17617.1
20017.9
22494.3
22143.8
21955.6
21692
20582.7
18991.3
15709
14533.9
13083.7
12977
13174.1
11832.5
12029
10696.4
10024.1
8810.58
9564.79
9074.38
7906.96
8606.05
7822.99
7612.08
7174.66
6798.07
6505.56
7043.59
6308.8
6294.87
6336.63
6887.98
6010.84
56859.1
55575.3
55065.8
54022
52590.8
52061.5
50782
49295.3
48797.9
47383.5
45816.7
45068.1
43494.1
41762.4
40862.5
39276.4
37139
36368.7
34653.4
30255.4
29014.7
27788
26782.1
23659.6
19752.4
18594.6
20057.9
22862.1
22240.6
22008.5
21794.7
20689.7
19273.7
16304.7
15057.3
13805.9
13587.1
14053
12964.6
12559.7
11352.5
10630.1
9502.94
10002.8
9608.67
8517.91
8695.47
8056.8
7717.59
7516.39
7181.72
7001
7282.67
6385.29
6593.89
6790.9
7120.11
6311.8
56866.6
55587.9
55006.5
54029.4
52610.1
51992.8
50789.7
49318.3
48726
47389.9
45840
45030.9
43499.8
41815
40873.5
39308
37237.8
36369.1
34722.7
30720.9
29469.2
28373.6
27088.7
23839.9
20706
19524.7
20222.8
23539.2
22452.2
22153.6
22278.4
20957.5
19454
17096.2
15672.9
14513.8
14267.4
14619.7
14285.8
13498.8
12273.4
11432.5
10433
10432.2
9815.72
8828.06
8744.22
8266.92
8271.88
8068.82
7626.79
7235.33
7438.54
6560.48
7029.08
7102.28
7273.31
6748
56817.2
55607.2
55005.7
53978.3
52628.7
51993.6
50718.2
49345.7
48731.9
47332.5
45867.3
45044.2
43501.8
41865.3
40897.1
39338.2
37338.6
36407.8
34816.5
31168.3
29928.7
28920.4
27293.5
24112
21579.6
20335.5
20450.5
24017.9
22731.5
22203.5
22538.3
21336.4
19553.8
17923.2
16243.2
14999.2
15016.3
15364.5
14996.1
14638.6
13164.9
11838.6
10837.6
10405.5
9843.64
9231.08
9184.93
8739.73
8841.17
8339.66
7894.26
7455.1
7765.86
7150.09
7536.52
7338.89
7581.5
7240.3
56822.4
55621.1
54944.9
53983.4
52650.4
51924.8
50723.5
49371.4
48719.6
47340.1
45895.3
45049.5
43516.8
41928.2
40913
39377.6
37438.3
36462.9
34928.8
31628.7
30385.3
29449.2
27463.5
24493.5
22431.7
21137.2
20901.3
23492
23043.1
22384.2
21818.7
21664.6
19790.7
18652
16832.2
15493.6
15892.8
16530.2
15435.8
15346.5
13448.7
12087.7
11165.1
10524.2
10387.3
9964.85
9770.85
9183.77
8819.23
8488.14
8281.76
8006.66
8234.37
7824.83
7783.98
7672.06
8000.58
7715.06
61936.3
61147.2
60531.7
59587.5
58461.1
57818.7
56823.2
55640.1
54945.5
53987.1
52670.9
51934.2
50725.2
49397.1
48734.2
47344.9
45926
45075
43526.1
41994.2
40959.9
39426.7
37556.1
36545.3
35072.1
32080.9
30852.2
29921.4
27624.2
24935.1
23193.4
21874.2
21333.3
22866.9
23451.3
22342.6
21366.2
22153.6
20125.5
19056.8
17441
16035.2
16458.4
17735.5
15946.4
15951
13632.3
12523
11681.9
11010.7
10977.3
10259.5
9585.87
9283.32
8843.57
8907.77
8837.26
8556.77
8421.77
8121.03
7923.37
8169.07
8387.76
8000.52
62860.3
61935.7
61089.9
60450.4
59509.7
58409.9
57722.4
56745.1
55634.3
54850.2
53904.2
52674.5
51832.2
50628.8
49403.5
48630.4
47235.1
45940
44998.7
43529
42043.4
40983.1
39476
37657.6
36605.6
35217.1
32481.9
31270.4
30334.6
27764.6
25407.4
23997.3
22674.7
21938.6
22891.3
23986.1
22419.8
21788.3
22848.1
20700.7
19484
18233.9
16661.2
16766.6
20637.3
17197.3
17083.1
14667.6
13435.4
12561.7
11534.1
10803.4
10359.8
9637.04
9562.25
9446.97
9512.78
9386.81
8792.35
8544.35
8368.74
8232.81
8690.91
8698.18
8338.4
63704.7
62870.2
61955.8
61120.8
60450.6
59522.2
58449.4
57722.2
56771
55676.6
54856.2
53927.8
52711.6
51841.9
50651.1
49446.6
48644
47253.5
45992
45034.2
43568.8
42132.9
41043
39562
37821.2
36727.3
35423.7
32897.8
31721.7
30710
27961.6
25942
24670.3
23324.1
22435.8
22739.6
24615.1
22533.2
21935.7
24325.6
21396.7
19743.8
19214.7
17035.2
16592.6
21739.5
17864.7
19861.7
15572.2
13816.8
12759.5
11572.8
10746.1
10621.6
10176.8
10078.2
10007
9758.64
9594.96
8945.1
9046.99
9089.53
8928.91
8997.52
9049.07
8802.04
64194.9
63705.9
62808.1
61957.6
61140.1
60391.6
59497.3
58476.6
57690.6
56774.2
55699.3
54855.3
53933
52741.5
51850.5
50657
49481.2
48663.3
47260
46026.3
45055.4
43589.7
42209.7
41104.4
39639.2
37952
36844.1
35579
33285.3
32135.6
30938.9
28188.8
26451.9
25327.2
24016.3
22939.1
22801.7
25183.5
22717.6
21922.9
25032.9
22267.4
20111.6
20250.4
17789.7
16401.9
12615.3
15668.7
20897.3
14774.4
12779.8
11871.4
11681.6
11271.1
11126.3
10935.8
10667.5
10221.1
9887.87
9828.65
9394.49
9544.26
9716.7
9512.79
9384.33
9473.99
9231.32
64219.8
63709.5
62755.8
61967.4
61155
60330.3
59502.6
58498.4
57626.2
56782.9
55725.9
54848.6
53944.4
52769.1
51855.9
50671.6
49516.6
48680.8
47278.7
46073
45083
43623.6
42293.7
41163.7
39729.8
38108.5
36964.9
35756.8
33718.5
32556.5
31118.9
28524.7
26965.5
25962.4
24682.3
23481.5
23084.4
24421.6
22986.7
21941
20507.6
22250.6
20550.8
20274.1
18826.8
16385.9
11346.2
14026
11374.6
13035.7
12374.7
11668.2
12144.2
11996.1
11686.5
11580
10842.9
10392.7
10252
10325.9
10039.8
9862.01
9879.67
9394.75
9769.66
9865.55
9688.49
64234.5
63724.2
62759
61974.2
61175.9
60332.5
59505.1
58521.2
57628.5
56791.4
55748.7
54851.5
53951
52788.4
51868.6
50677.1
49542.7
48712
47293.5
46120.3
45126.5
43658.7
42370.4
41242
39830.6
38277
37133.3
35946.1
34123.3
32967.8
31259.5
28938.8
27463
26554.2
25303.4
23935.4
23404.6
23670.5
23620.2
21732.6
19312.2
24487.2
21373.7
20080.1
19872.6
17346.6
13627.4
13992.8
9855.31
12835.4
12937.3
12557.1
12814.1
12584.6
11801.7
11728.6
10875.8
10989.7
10996.9
10975.5
10426
10163.3
10044.1
9460.44
10146
10269.6
10211.2
64235.2
63630.7
62662.9
61909.8
61094.3
60222.4
59422.3
58443.6
57516.4
56709.5
55709.7
54733.3
53867
52782.8
51748.9
50596.8
49544
48604.7
47280.2
46147.1
45141.6
43695.1
42441.5
41297.4
39919.1
38409.1
37244.5
36119
34484.1
33262.3
31378.2
29376.6
27915.6
27137.6
25921.7
24468.8
23880.4
23638.1
24332.5
21822.4
20073.7
25985.7
22204
20585.7
19804.3
18395.7
15689.8
14859.9
12598.5
13767
13770.3
13703.2
13043.2
12557.3
11919.9
11986.8
11263.5
11604.6
11666.9
11432.4
10750.8
10541.5
10464.4
10046.2
10543.5
10637.7
10688.4
64280.3
63664.3
62686.5
61949.3
61143.9
60245
59462.2
58503.3
57542.5
56751
55768.3
54758.3
53902.6
52829
51773.4
50628.4
49592
48645.6
47319.7
46228.9
45214.2
43779.4
42576.2
41417
40070.3
38649
37477.9
36425.8
34945.3
33578.4
31575.3
29912.2
28467.8
27696.2
26470.8
24955.7
24268.8
23641.1
23570.7
22039.7
19936.6
17138.7
22442.2
21123.9
19496.7
18367.5
17436.8
16440.3
14721.9
14668.5
14021.9
13840.1
13147.5
12605.1
12492.1
12620.4
12015.8
11914.6
11511.7
11509.6
11296.1
11048.5
11016
10770.4
11094.8
11176.2
11265.3
64302
63679.1
62687.6
61957.5
61161
60245.4
59473.7
58534.1
57552.5
56767.5
55800.1
54773.5
53929.4
52870
51807.2
50661
49637.5
48691.5
47357.1
46291
45270.8
43844.6
42680.9
41526.2
40202.6
38842.1
37663.5
36647.4
35317
33749.9
31778.6
30388.3
28939.2
28231.5
27021.9
25435.3
24677.1
23821.3
22943.1
22803.9
19577.2
15254.4
22664
23201.7
20014.2
18573.4
17980.3
17152.8
16167.3
14973.7
14160.9
13809.6
13647.8
13186.8
13240.6
13542.1
12384
12096.5
11569.1
11810.1
11723.5
11496.1
11534.3
11286.7
11636.6
11798.1
12099.3
64237.1
63577.8
62578
61875.8
61070.4
60119.7
59375.7
58443.9
57431.5
56672.7
55719.9
54648.2
53831.4
52795.6
51681.8
50561.3
49642.1
48694.6
47369
46331.3
45305.5
43892.2
42758.9
41605.3
40313.8
38990
37797.3
36847.7
35619.4
33866.7
32014
30813.2
29368.6
28729.7
27560.2
25960.8
25123.6
24105.8
23042.9
23745
20484.7
16936.3
16608.5
23223.2
21077.3
19351.2
18638.7
17827.8
16617.4
15112.8
14781.8
14190
14272.6
13949.8
13535.3
13775.9
12584.1
12530.2
12092.3
12212.1
12078.2
11884.2
11963.1
11672.7
12107.7
12373.5
12965.1
64293.4
63628.2
62621.9
61936.9
61138.1
60162.9
59436.9
58517.9
57478.7
56735.9
55795
54697.8
53894.8
52866.5
51735.3
50625.6
49724.3
48769.6
47450.4
46444.6
45413.1
44016.1
42936
41779.4
40536.9
39278.9
38086.9
37250.5
35996.9
34048.5
32485.8
31341.9
29938.1
29271.6
28064.2
26461.7
25524
24428.4
23166.5
22909.9
21157.4
17676
14866.9
14414.3
19840.3
20754.9
19943.9
19026.2
17232.9
16024.9
16283.7
15991.7
14875.7
13735
13539.9
13385.9
13048.2
13088.4
12703.2
12780.5
12724.9
12536.6
12625.3
12395.3
12779.9
12886.2
13272.9
64305
63638.3
62605.9
61949.6
61159.6
60163.1
59451.7
58554.2
57491.5
56752.9
55828.3
54715
53917.9
52916.7
51782.7
50663.7
49778.4
48820
47496.3
46523.9
45494.2
44102
43057.4
41909
40683.4
39483.6
38286
37539.6
36179.1
34210.7
32879.2
31777.1
30402.2
29758.5
28570.1
26944.2
25951.7
24769.5
23439.4
22397.2
20829.2
18769.4
15989.7
12660.3
15882
20554.6
22570.9
22586.2
19752.5
16951.4
17052.1
16915.5
14865.2
13863.6
13897.1
13478.2
13303
13514.1
13224.8
13300.1
13297
13088.6
13183.8
12984.7
13377.6
13288.4
13377
64332.7
63661.8
62611.6
61970.4
61192.2
60167.4
59470.6
58593.3
57512.7
56785.4
55881.4
54748.7
53957.7
52969.7
51830.7
50711.4
49845.9
48881.7
47558.1
46614.7
45589
44208.9
43197.1
42058
40863.5
39721.4
38519.2
37884.7
36335.4
34452.2
33297.4
32255.2
30900.6
30245.1
29087.8
27462.2
26419.7
25198.4
23861
22727.4
20806.4
20192.2
17568.9
14597.2
14725.6
15379.5
21544.3
24042.1
20905
16163
14802.2
13775.1
14479.7
14395.1
14259.7
14145.2
13795.7
14052.9
13801
13848.7
13903.4
13674.8
13733.9
13465.6
13987.5
13853.6
13901.6
64359.8
63697.6
62634.1
61994.8
61231.7
60193.4
59498.8
58636.8
57550.3
56822.1
55932.9
54803
54013.1
53030.9
51902
50768.2
49916.6
48970.3
47638.6
46710.5
45706.9
44330
43346.4
42251.7
41083.7
39970.6
38795.4
38220.2
36462.8
34804.3
33735.6
32702.3
31404.3
30740.7
29598
27957.8
26884.9
25658.2
24274.3
23100.3
21345.5
20111.5
18895.2
16289.3
15287.4
13714.8
11848.5
11794.6
12801.6
14544.4
13917.8
12856.1
14606.4
14757.3
14708.9
14711.9
14350.6
14673.1
14420.5
14462.2
14568.1
14443.9
14552.5
14350.1
15320.9
14578.1
14469.2
64258
63549.9
62477.2
61887.3
61089.4
60022.9
59380.2
58503.8
57388.2
56705.7
55805
54646.1
53901.7
52940.7
51771.3
50748.7
49928.6
48986.2
47676.6
46764
45765.9
44411.1
43443.1
42355.9
41219.8
40117.5
38933.8
38392.3
36553.8
35035.2
34055.7
33047.1
31761
31156.7
30049.9
28415.4
27349.1
26104.4
24678.2
23468.4
21860.6
20077.1
18968.5
17730.9
16385.5
14128.8
10472
9657.76
10607.2
14122.5
14309.6
14124.4
15044.5
15082.5
15094.7
15161
14737.1
15129.6
14838
14870.9
15005.3
15015.3
15177.3
15118.7
16678
15188.9
14867.2
64343.9
63633.2
62539.7
61961
61183.3
60094.1
59459.1
58610.8
57475.4
56795.5
55920.7
54747
54004.8
53061.8
51894
50857.9
50075.7
49124.2
47817.8
46963
45964.2
44629.8
43730.9
42664.3
41557.2
40484.4
39354.3
38706.4
36863.2
35556.8
34619.3
33655
32389.3
31732.4
30619.4
28991.9
27913
26683.8
25217.3
24021.7
22531.9
20931.7
19338.1
18069.3
17661.8
15858.3
13329.3
12699.5
13352.9
14620.6
14829.9
15138.8
15616.5
15676.8
15727.1
15883.9
15491
15878.9
15574.4
15567
15722.7
15792.3
15702.4
15445.2
16750.5
15906.4
15716.7
64371.7
63670.4
62569.5
61990
61219.4
60119.9
59490.1
58655.3
57515.5
56842.3
55978.6
54803.6
54070.4
53128.2
51970.2
50929.3
50152.9
49214.1
47912.8
47067
46091.8
44775
43902.2
42865.2
41800.6
40717.4
39651.9
38854.1
37125.1
35934.1
35034.6
34095.3
32868.4
32234.6
31144
29529.2
28464.9
27246.3
25745.6
24608.5
23198.8
21683.4
20278.6
18454.8
17841.7
17609.4
15691.8
14371.9
14541.4
15547
15825
15865.6
16528.1
16603.1
16718.5
16847.6
16208.6
16777.9
16660.1
16680.2
16864.4
17260.9
16250.6
15772.2
16664.1
16526.8
16439.2
64235.9
63497.3
62386.1
61851.9
61055.3
59932.5
59347.9
58502.9
57339.9
56706.9
55835.5
54640.8
53953
53076.1
51917.1
50930.6
50172
49242.7
47958.5
47122.6
46156.2
44855.7
43992.4
42963.5
41927.1
40835.8
39792.3
38914.6
37353.7
36139.1
35297.8
34403.2
33191.6
32616.8
31570.8
29980.9
28941.4
27722.3
26218.3
25141.1
23779.3
22349.7
21023.8
19356
18225.8
17711.7
17730.5
16696.3
16317.4
16807.1
16876.7
17100
17625.8
17606.8
17712.6
17789.9
17370.6
17628.8
17649.9
17691.3
17956.3
18799.1
16975.9
16309.2
17122.9
17079.8
16947.1
64346.3
63604.3
62476.9
61959.9
61172.5
60032.3
59461.8
58630.3
57454.3
56838.9
55975.6
54777.6
54114.3
53228.7
52072
51099.7
50376.3
49442
48178.3
47392
46434.9
45165.1
44349.8
43350.5
42348.7
41236.1
40205.5
39211
37931.9
36711
35909.5
35063
33879.2
33260.7
32209.8
30644.7
29615
28430.8
26940.7
25909.6
24603.1
23256
22018.8
20402
19500.8
18415.6
18050.2
17547.4
18509.1
17792.7
17552.3
18954.9
18389.9
17960.9
17997.6
18255.2
19265.7
18404.1
17975.2
18017.3
18222.1
18757.9
17796
17311
17961.4
18044.9
17973.2
64374.4
63640.2
62502.3
61997.6
61221.8
60069.3
59512.4
58697.1
57510.1
56906.4
56057.3
54853.3
54200.2
53318.3
52162
51193.4
50482.2
49557.4
48305.4
47534.3
46593.8
45341.5
44563.8
43571.4
42595.5
41476.8
40408.1
39420.5
38319.5
37092.5
36343.6
35524.9
34368.7
33792.1
32770.9
31236
30246.8
29080.5
27607
26638.2
25369.1
24104.8
22949.7
21342.2
20597.8
19557.5
18633.3
18134.3
18464
17928.6
17988.5
18730.9
18442.8
18191.7
18251.6
18404.9
18949.3
18477.2
18126
18213.2
18404.6
18532.8
18484.7
18059.4
18612.1
18773.2
18792.6
64204.4
63462.3
62311.7
61827.3
61050
59883.4
59346.4
58535.3
57341
56760.1
55949.4
54739.6
54125.6
53323.7
52179.8
51210.3
50514
49613.2
48366.1
47603.6
46690.4
45445.3
44673.2
43702.4
42709.2
41632
40534.3
39568.5
38553
37328
36601.7
35833.8
34703.8
34162.5
33210.6
31706.5
30734
29600.6
28147.8
27216.7
26000.3
24795.3
23722.3
22190.7
21510.7
20568.6
19681.7
19251.4
18546.3
18470.9
18650.4
18673.8
18814.6
18712.9
18731.7
18897.9
18624
18928.8
18638.9
18805.4
19010.6
19042.7
19083.8
18594.7
19032.6
19201.9
19271.9
64358.3
63585.3
62439
61987.7
61185.3
60018.7
59521.7
58694.8
57499.3
56964.4
56134.6
54926.1
54365.5
53538.1
52379.3
51464.6
50795.3
49881.8
48676.5
47954
47045.5
45845.1
45114.5
44132.7
43124.2
42143.5
40959.6
40084.3
39176.6
37979.1
37307.3
36561.7
35464.4
34910.7
33933.8
32466.6
31534.2
30431.7
29024.9
28143.2
26971.1
25841.8
24803.7
23379.3
22765.5
21909.6
21102.5
20732.4
19968.6
19988.1
19841
19861.5
19998.6
19758.7
19812.5
20055.4
19645.4
20094.8
19829.3
19931.5
20072.3
20102.4
20198.9
19710.5
20095.9
20251.1
20327.2
64387.9
63621
62446.5
62007
61221.3
60030.7
59540.8
58742.1
57534.6
57003
56205.8
54992.5
54426.6
53626.5
52465.8
51544
50903
49998.8
48796.6
48100.6
47208.9
46012
45331.3
44309.7
43302.2
42411.8
41185.9
40346.6
39532
38361.5
37724.6
37017.7
35938.2
35425.3
34490.5
33057.4
32177.7
31097.4
29723.3
28900.2
27754.5
26674.6
25686.3
24377.5
23806.4
22968.3
22213.9
21859.3
21040.1
21096.4
20903.1
20621.9
20919.4
20548.7
20556.1
20793.2
20389.8
20836
20671.2
20715.7
20823
20847
20987.4
20532.5
20878.4
21013.2
21119.7
64445
63696.8
62506.5
62058.2
61289.2
60089.9
59596.2
58815.6
57606.4
57070.7
56286.2
55081
54518.7
53732.9
52588.7
51665.4
51035
50162.4
48962.4
48283.6
47427.1
46248.7
45546.6
44546
43581.1
42715.1
41487.8
40702.6
39958.7
38831.1
38216.4
37550.1
36504
35995.2
35108.5
33710
32852.1
31831.5
30485.1
29696.4
28625.1
27601.9
26635.1
25426.8
24864.8
24064
23367.5
22988.8
22161.3
22200.1
22032.3
21491.3
21784.7
21574.5
21485.1
21562.5
21119.8
21455.9
21474.5
21518.8
21612
21615.7
21745
21357.1
21712.2
21825.9
21904.4
64492.9
63755.2
62559.1
62123.4
61362.5
60154
59668.4
58897
57684.1
57154.2
56376.1
55170.2
54614.5
53841.5
52703.3
51788
51178.3
50320.1
49131.8
48480.4
47641.8
46474.6
45755.1
44806.6
43870
43022.3
41805.6
41077.5
40377.1
39283.1
38712.1
38066.6
37048.6
36572.1
35703.7
34341.8
33531.5
32542.6
31236.7
30494.5
29464.7
28502.1
27545.3
26436.9
25899.3
25109.8
24459.4
24065.9
23253
23294.8
23081.6
22486.7
22714.8
22537.4
22418.4
22449.3
22068
22307
22275.7
22354.1
22430.3
22470.5
22597.2
22231.8
22535.6
22623.1
22715.2
64524.7
63810.6
62602.4
62172.9
61440.9
60222.2
59736.1
58990.9
57771.8
57236.2
56478.5
55273.3
54711.1
53963.4
52831.4
51907.5
51320.9
50480.3
49295.8
48674.9
47859
46658.3
45978.5
45070.1
44146
43333.7
42141.2
41451.1
40813.7
39749.4
39194.3
38595.4
37600.7
37134.7
36316.9
34986.7
34208
33266.7
31990.9
31287.4
30298.1
29343.4
28497.7
27436.7
26911
26155
25507.3
25120.6
24319.5
24331.3
24090.7
23474
23641.6
23467.5
23311.4
23342.2
22971.6
23155.7
23085.3
23151.5
23231.6
23243.6
23343.9
23046.1
23329.2
23409.5
23506.2
64585.2
63888.9
62677.1
62244.2
61527
60313.2
59829.5
59094
57885.8
57357.2
56589
55399.2
54864.4
54103
52988
52090.9
51515.4
50697.8
49538.5
48937.9
48118.8
46915
46283.3
45410.7
44517.1
43705.5
42550
41916.2
41294.7
40273.5
39760.3
39173.6
38214.9
37776.6
36981.2
35693.6
34954.1
34057.1
32820.1
32155.2
31231.1
30286.8
29531.6
28450.5
27964.7
27250.9
26638.8
26219.7
25420.4
25432.6
25176.8
24538.9
24680
24498
24339.5
24369.3
23973.7
24110.9
24037.8
24061.9
24164.7
24157.8
24236.2
23961
24215.5
24311.7
24392.5
64417.7
63690.5
62484.4
62087
61344.1
60133.6
59686.4
58953.9
57750.2
57274
56584.6
55398.7
54862.7
54118.5
53006.4
52104.1
51525.3
50726
49578
48965.7
48158
46980.2
46346
45488.8
44615.7
43838.8
42710.8
42090.2
41498.8
40505.1
40012.3
39451.4
38522.5
38119.8
37362.1
36113.8
35401.5
34520.6
33326.2
32678.3
31776.5
30865
30178.3
29093.9
28621.7
27925.3
27321.4
26909.4
26142.6
26089.6
25814.8
25197.3
25298.9
25077
24885.2
24929.6
24546.4
24697.5
24593.8
24548.6
24632.5
24662.5
24729.7
24505.8
24713.8
24798.4
24898.7
64637.7
63898.2
62699.2
62320.4
61571.2
60373
59953.6
59214.2
58028.9
57582.5
56868
55696.9
55197.2
54455.5
53349
52485
51937.2
51154.5
50014
49414.4
48627.8
47474.9
46880.8
46051.9
45207.7
44455.6
43357
42790.5
42243.3
41285.3
40830.7
40303.5
39405.5
39002.4
38253.2
37030
36351.5
35526.4
34365.2
33758
32887.1
32061.9
31403.4
30337.5
29902.3
29245.7
28670.2
28252.7
27481.7
27422.6
27144.1
26506.2
26602.4
26390.5
26187.9
26235.8
25787.1
25955.9
25883.3
25752.3
25805.5
25867.3
25907.7
25686.1
25875
25967.4
26066.8
64659.6
63934.4
62730.8
62367
61634.6
60430.2
60020
59301.8
58111.4
57662.1
56966.5
55792
55289.4
54580.7
53480.5
52617.5
52095.1
51317.1
50172.7
49603.7
48821
47701.8
47138.4
46308.1
45495.1
44787.8
43716.5
43182.5
42666.3
41734.5
41312
40804.3
39924.9
39563.2
38846.3
37669.2
37036.5
36228.2
35116.5
34549.9
33680.2
32938.1
32263
31236.9
30845.4
30195.8
29626.9
29226.6
28482.4
28389.8
28103.7
27490.5
27566.7
27318.2
27113.5
27114.5
26664.8
26868.6
26807.3
26665.5
26647
26719.1
26757.2
26511.6
26687.9
26786.7
26869.2
64717.2
64013.7
62804.1
62438.4
61730.5
60524.9
60109.7
59412.4
58227.3
57777.2
57094.8
55929.5
55431.9
54736.2
53655.6
52799.3
52301.2
51529.5
50374.9
49848.4
49099.1
47989.1
47447.9
46660
45863.8
45183.4
44147.6
43644.6
43163.3
42265.8
41857.5
41387.2
40528.7
40172.3
39505.2
38359
37749.2
36993.1
35898.6
35347.3
34555
33833.6
33172.2
32172.5
31791.6
31183
30620
30221.4
29488.8
29369.5
29095.2
28468.5
28532.3
28287.5
28066.7
28028.1
27569
27750.6
27688.1
27570.9
27528.2
27590.1
27660.9
27353.6
27553.4
27639.4
27720.2
64795.1
64095.7
62883.7
62527.9
61825.9
60620.6
60221.2
59528.2
58343.1
57909
57230
56066.5
55590
54905.1
53833.4
53005.2
52509.6
51731.1
50620.6
50113.7
49371.5
48298.1
47781.9
47008.7
46250.9
45600.1
44592.4
44131
43667.4
42792.9
42417.7
41962
41123.1
40803.6
40159.6
39051
38478.5
37742.4
36695.2
36161.4
35429.8
34714
34063.7
33123.2
32762
32164.9
31616.2
31224.1
30507.1
30381.1
30098.3
29483.2
29531
29277.8
29058.9
28973.5
28534.9
28687.4
28609
28508.2
28440.8
28489.5
28612.3
28243.4
28461.6
28549.5
28629.9
64865.3
64187.7
62970.2
62614.6
61937.1
60727.3
60321.3
59654.4
58469.2
58026.2
57373.2
56215.9
55734.7
55077.3
54029
53185.2
52698.2
51960.8
50860.4
50377.8
49662.9
48600.1
48115.6
47372.5
46626.4
46012
45045.4
44596.8
44174.6
43322.7
42959.9
42542.7
41732.2
41434
40837.2
39753.5
39199.7
38506
37470.2
36978.2
36288.2
35572
34957
34044.3
33688.9
33120.6
32559.6
32187.9
31497.5
31347.9
31069.3
30456.4
30492.9
30238.6
30010.4
29898.6
29473.6
29605.3
29499.5
29407.1
29350.7
29356.7
29469.8
29134.7
29355.4
29439
29515.1
64949.5
64274.4
63061.1
62721.2
62043.6
60840.5
60454.4
59782.3
58603.7
58185.5
57525.7
56374.4
55927.2
55266.5
54233.1
53393.4
52924.3
52218.5
51143.1
50673.2
49982.7
48943.4
48480.7
47767.9
47063.2
46461.8
45519.8
45113.3
44709.5
43873.9
43559.5
43152.3
42365.2
42097.6
41506.4
40455
39938.7
39269.4
38262.6
37822.7
37155.6
36466.8
35869.1
34975.8
34648.7
34102.9
33557.7
33183.5
32495.5
32359.3
32076.1
31465.9
31499.3
31245.7
31019
30879.6
30456.1
30567.8
30455.9
30357.2
30334.7
30282.3
30382.3
30092.3
30273.6
30367.7
30443.3
65029.8
64370.9
63150.7
62810.3
62157.5
60950.9
60560
59914.6
58735.6
58310.8
57682.5
56533.7
56084
55464.6
54426.4
53589.1
53165.1
52463.5
51405.3
50966.1
50289.4
49270.1
48844.2
48145.3
47452.3
46904.3
45990.7
45593.8
45234.2
44431.3
44127.5
43751.2
42985.8
42728.9
42169.8
41151.5
40662.3
40018.8
39057.3
38643
37969.7
37294.5
36746.9
35882.9
35553.1
35029.9
34486.3
34131.5
33473.7
33311.6
33032
32440.1
32458.1
32192.7
31948.1
31814.7
31410.4
31496.3
31366.8
31259.4
31257.2
31163.4
31244.9
31029.2
31178.9
31258.2
31333.4
65124.2
64475.6
63259.1
62931
62278.8
61080.2
60710
60055.6
58886
58491.7
57852.9
56720.1
56315.6
55670.8
54628.5
53844.4
53430.2
52759.8
51712.8
51288.3
50650.5
49647.6
49241.7
48587.5
47932.4
47394.2
46493.4
46154.9
45795.4
45011.2
44738.1
44378.7
43634.5
43398.1
42864.5
41874.1
41418.7
40808.6
39871.1
39474.9
38842.8
38207.5
37663.1
36810.4
36509.6
36003
35500.1
35132.9