/*--------------------------------*- C++ -*----------------------------------*\
| =========                 |                                                 |
| \\      /  F ield         | OpenFOAM: The Open Source CFD Toolbox           |
|  \\    /   O peration     | Version:  v2012                                 |
|   \\  /    A nd           | Website:  www.openfoam.com                      |
|    \\/     M anipulation  |                                                 |
\*---------------------------------------------------------------------------*/
FoamFile
{
    version     2.0;
    format      ascii;
    class       surfaceScalarField;
    location    "1e-06";
    object      phi;
}
// * * * * * * * * * * * * * * * * * * * * * * * * * * * * * * * * * * * * * //

dimensions      [0 3 -1 0 0 0 0];
oriented        oriented;


internalField   nonuniform List<scalar> 
20367
(
1.82262e-06
-1.408e-09
1.83912e-06
-1.65029e-08
1.86807e-06
-2.89487e-08
1.8701e-06
-2.02749e-09
1.88698e-06
-1.6878e-08
1.92118e-06
-3.42027e-08
1.92802e-06
-6.84372e-09
1.94659e-06
-1.85673e-08
1.98102e-06
-3.44297e-08
1.98988e-06
-8.85997e-09
2.0089e-06
-1.90139e-08
2.04682e-06
-3.79289e-08
2.06168e-06
-1.48535e-08
2.07732e-06
-1.56426e-08
2.09422e-06
-1.68945e-08
2.08562e-06
8.5987e-09
2.08273e-06
2.89247e-09
2.26583e-06
-1.83107e-07
2.55966e-06
-2.93827e-07
2.61099e-06
-5.13255e-08
2.70363e-06
-9.26418e-08
2.85e-06
-1.46376e-07
3.02742e-06
-1.77419e-07
3.42848e-06
-4.01058e-07
3.35426e-06
2.13772e-07
2.92211e-06
4.65753e-07
2.73571e-06
1.13035e-07
2.55538e-06
1.06065e-07
2.43519e-06
-1.26508e-08
2.32539e-06
-3.03874e-08
2.20918e-06
-2.70252e-08
2.07082e-06
-7.28011e-08
1.87571e-06
-1.87062e-08
1.53685e-06
1.18875e-07
1.49828e-06
2.29084e-06
1.55664e-06
3.25977e-06
1.56407e-06
3.69309e-06
1.56141e-06
3.72389e-06
1.57765e-06
3.99753e-06
1.5922e-06
4.2436e-06
1.59361e-06
4.34675e-06
1.59024e-06
4.4665e-06
1.59209e-06
4.4827e-06
1.62126e-06
4.67497e-06
1.6373e-06
4.7711e-06
1.63858e-06
4.79691e-06
1.59073e-06
4.91291e-06
1.5898e-06
4.7814e-06
1.65732e-06
4.96521e-06
1.65863e-06
5.1467e-06
1.64821e-06
5.12791e-06
1.65869e-06
5.24355e-06
1.69081e-06
5.60974e-06
1.76073e-06
5.958e-06
1.88459e-06
6.58456e-06
2.00203e-06
6.16042e-06
2.00657e-06
6.16457e-06
5.91518e-06
2.0812e-06
-1.93446e-08
2.10238e-06
-3.76818e-08
2.113e-06
-3.95702e-08
2.13126e-06
-2.02901e-08
2.15679e-06
-4.24033e-08
2.16951e-06
-4.69257e-08
2.18979e-06
-2.71199e-08
2.21969e-06
-4.84668e-08
2.23424e-06
-4.898e-08
2.25415e-06
-2.87694e-08
2.28554e-06
-5.04094e-08
2.30514e-06
-5.75303e-08
2.33013e-06
-3.98375e-08
2.35594e-06
-4.145e-08
2.35073e-06
-1.16892e-08
2.34433e-06
1.4998e-08
2.33638e-06
1.08436e-08
2.47226e-06
-3.18981e-07
2.77544e-06
-5.97006e-07
2.86973e-06
-1.45615e-07
2.99597e-06
-2.18888e-07
3.17309e-06
-3.23491e-07
3.41992e-06
-4.2425e-07
3.80268e-06
-7.83812e-07
3.6757e-06
3.40748e-07
3.28209e-06
8.59353e-07
3.03912e-06
3.38564e-07
2.82566e-06
3.00233e-07
2.68914e-06
1.01886e-07
2.56816e-06
4.79721e-08
2.44172e-06
5.23984e-08
2.27805e-06
1.5267e-08
2.0927e-06
8.55793e-08
1.84452e-06
2.72948e-07
1.79329e-06
2.55131e-06
1.7972e-06
4.02064e-06
1.79044e-06
4.8727e-06
1.79589e-06
5.06492e-06
1.82445e-06
5.69504e-06
1.82337e-06
6.19726e-06
1.83248e-06
6.44274e-06
1.82669e-06
6.70899e-06
1.8297e-06
6.79359e-06
1.86631e-06
7.15209e-06
1.87119e-06
7.30288e-06
1.88086e-06
7.36455e-06
1.8709e-06
7.56975e-06
1.86983e-06
7.48892e-06
1.90907e-06
7.74795e-06
1.89784e-06
7.98855e-06
1.89044e-06
7.97763e-06
1.88607e-06
8.17798e-06
1.91851e-06
8.69484e-06
2.06981e-06
9.20638e-06
2.20618e-06
1.02494e-05
2.27337e-06
9.57768e-06
2.2752e-06
9.49574e-06
9.12618e-06
2.38753e-06
-4.18426e-08
2.40604e-06
-5.61936e-08
2.41912e-06
-5.26485e-08
2.44097e-06
-4.21388e-08
2.46447e-06
-6.5905e-08
2.47967e-06
-6.2128e-08
2.50434e-06
-5.17847e-08
2.53266e-06
-7.6791e-08
2.5494e-06
-6.57218e-08
2.57398e-06
-5.33419e-08
2.60384e-06
-8.02684e-08
2.62635e-06
-8.00434e-08
2.65587e-06
-6.9354e-08
2.6788e-06
-6.43868e-08
2.67378e-06
-6.66828e-09
2.66812e-06
2.06639e-08
2.66306e-06
1.59035e-08
2.80913e-06
-4.6505e-07
3.11266e-06
-9.00532e-07
3.20092e-06
-2.33879e-07
3.34102e-06
-3.58988e-07
3.52808e-06
-5.1055e-07
3.761e-06
-6.57169e-07
4.13626e-06
-1.15908e-06
4.02567e-06
4.51345e-07
3.61088e-06
1.27242e-06
3.342e-06
6.03894e-07
3.17031e-06
4.64256e-07
3.02102e-06
2.43741e-07
2.89026e-06
1.61754e-07
2.75e-06
1.74928e-07
2.57729e-06
1.67572e-07
2.39721e-06
2.33778e-07
2.15468e-06
4.82363e-07
2.10174e-06
2.57509e-06
2.09347e-06
4.12719e-06
2.09804e-06
5.1211e-06
2.10738e-06
5.39342e-06
2.13242e-06
6.10915e-06
2.13126e-06
6.57666e-06
2.14737e-06
6.93032e-06
2.13559e-06
7.37344e-06
2.14106e-06
7.68136e-06
2.18064e-06
8.17509e-06
2.1847e-06
8.43377e-06
2.20088e-06
8.58038e-06
2.18939e-06
8.89175e-06
2.19134e-06
8.94642e-06
2.22881e-06
9.26765e-06
2.21726e-06
9.55437e-06
2.21686e-06
9.60048e-06
2.20516e-06
9.85359e-06
2.23495e-06
1.04882e-05
2.37911e-06
1.10575e-05
2.52571e-06
1.22083e-05
2.60695e-06
1.13886e-05
2.61847e-06
1.11749e-05
1.07653e-05
2.52034e-06
-5.37463e-08
2.54475e-06
-8.06032e-08
2.56234e-06
-7.02459e-08
2.57798e-06
-5.77762e-08
2.60458e-06
-9.25014e-08
2.62607e-06
-8.36159e-08
2.64618e-06
-7.18962e-08
2.67569e-06
-1.06308e-07
2.7002e-06
-9.02241e-08
2.72084e-06
-7.39847e-08
2.75123e-06
-1.10661e-07
2.78175e-06
-1.1056e-07
2.80725e-06
-9.48533e-08
2.83337e-06
-9.05048e-08
2.83578e-06
-9.07954e-09
2.82724e-06
2.91985e-08
2.83271e-06
1.04423e-08
2.99199e-06
-6.24338e-07
3.28074e-06
-1.18927e-06
3.38786e-06
-3.41005e-07
3.53733e-06
-5.08449e-07
3.71461e-06
-6.87834e-07
3.97213e-06
-9.14692e-07
4.3388e-06
-1.52575e-06
4.20228e-06
5.87863e-07
3.81085e-06
1.66385e-06
3.53205e-06
8.81414e-07
3.34661e-06
6.44207e-07
3.18167e-06
4.03035e-07
3.0348e-06
2.98137e-07
2.89826e-06
2.98679e-07
2.72235e-06
3.30115e-07
2.52987e-06
4.05856e-07
2.29255e-06
6.97586e-07
2.23311e-06
2.61319e-06
2.23516e-06
4.10104e-06
2.25113e-06
5.09376e-06
2.25687e-06
5.39795e-06
2.28333e-06
6.11071e-06
2.2856e-06
6.58228e-06
2.28544e-06
6.96316e-06
2.30293e-06
7.40789e-06
2.30861e-06
7.76893e-06
2.33265e-06
8.27846e-06
2.34113e-06
8.5717e-06
2.34804e-06
8.73893e-06
2.36049e-06
9.06041e-06
2.36219e-06
9.15546e-06
2.38633e-06
9.57541e-06
2.3786e-06
9.89491e-06
2.36711e-06
1.00721e-05
2.37457e-06
1.03412e-05
2.40553e-06
1.10468e-05
2.54584e-06
1.16666e-05
2.69624e-06
1.26827e-05
2.76692e-06
1.18393e-05
2.79223e-06
1.16565e-05
1.12741e-05
2.82421e-06
-7.13839e-08
2.84733e-06
-1.03722e-07
2.86488e-06
-8.78016e-08
2.88468e-06
-7.75722e-08
2.91156e-06
-1.19386e-07
2.93242e-06
-1.04473e-07
2.95623e-06
-9.57084e-08
2.98691e-06
-1.36981e-07
3.0103e-06
-1.13612e-07
3.03517e-06
-9.8857e-08
3.06782e-06
-1.43313e-07
3.09732e-06
-1.40061e-07
3.12731e-06
-1.24835e-07
3.15651e-06
-1.19706e-07
3.16057e-06
-1.31452e-08
3.15858e-06
3.11882e-08
3.16784e-06
1.1873e-09
3.32896e-06
-7.85461e-07
3.60306e-06
-1.46337e-06
3.72942e-06
-4.6737e-07
3.88068e-06
-6.597e-07
4.07018e-06
-8.77333e-07
4.32337e-06
-1.16789e-06
4.67561e-06
-1.87798e-06
4.54317e-06
7.20299e-07
4.16148e-06
2.04554e-06
3.88984e-06
1.15304e-06
3.69041e-06
8.35768e-07
3.50355e-06
5.81856e-07
3.37237e-06
4.1953e-07
3.2158e-06
4.38347e-07
3.02102e-06
5.08674e-07
2.84417e-06
5.61973e-07
2.60465e-06
9.10611e-07
2.52008e-06
2.67298e-06
2.50724e-06
4.08786e-06
2.51511e-06
5.0541e-06
2.53601e-06
5.34498e-06
2.56008e-06
6.05566e-06
2.5621e-06
6.54866e-06
2.56397e-06
6.92971e-06
2.58137e-06
7.35277e-06
2.588e-06
7.72343e-06
2.61099e-06
8.21954e-06
2.62002e-06
8.53096e-06
2.62881e-06
8.70323e-06
2.6518e-06
9.01462e-06
2.65561e-06
9.13528e-06
2.66744e-06
9.58471e-06
2.66258e-06
9.92132e-06
2.65519e-06
1.01347e-05
2.66502e-06
1.04033e-05
2.69611e-06
1.11012e-05
2.81751e-06
1.16995e-05
2.96638e-06
1.2632e-05
3.0474e-06
1.18412e-05
3.07966e-06
1.17054e-05
1.13614e-05
3.1198e-06
-9.56101e-08
3.14013e-06
-1.24049e-07
3.15767e-06
-1.05343e-07
3.18279e-06
-1.02697e-07
3.20846e-06
-1.45056e-07
3.22887e-06
-1.24878e-07
3.25751e-06
-1.24356e-07
3.28785e-06
-1.67312e-07
3.31036e-06
-1.36127e-07
3.3406e-06
-1.29101e-07
3.37408e-06
-1.76789e-07
3.40294e-06
-1.68917e-07
3.43893e-06
-1.60831e-07
3.47129e-06
-1.52063e-07
3.48101e-06
-2.28688e-08
3.49002e-06
2.21866e-08
3.50188e-06
-1.06799e-08
3.66542e-06
-9.48998e-07
3.91097e-06
-1.70892e-06
4.05689e-06
-6.13293e-07
4.21442e-06
-8.17232e-07
4.41545e-06
-1.07836e-06
4.66197e-06
-1.41441e-06
4.99944e-06
-2.21545e-06
4.87856e-06
8.41171e-07
4.48878e-06
2.43532e-06
4.20489e-06
1.43693e-06
4.01766e-06
1.01813e-06
3.82146e-06
7.73238e-07
3.67965e-06
5.56043e-07
3.52461e-06
5.82813e-07
3.32484e-06
6.97581e-07
3.14245e-06
7.32718e-07
2.90684e-06
1.12914e-06
2.82638e-06
2.73592e-06
2.81702e-06
4.07849e-06
2.81638e-06
5.03448e-06
2.83758e-06
5.29898e-06
2.86253e-06
6.00628e-06
2.8647e-06
6.5227e-06
2.87741e-06
6.89267e-06
2.88171e-06
7.32388e-06
2.89118e-06
7.68873e-06
2.9217e-06
8.16254e-06
2.92884e-06
8.49849e-06
2.94627e-06
8.65925e-06
2.94954e-06
8.9848e-06
2.95576e-06
9.1038e-06
2.98258e-06
9.53113e-06
2.98006e-06
9.89823e-06
2.98547e-06
1.01028e-05
2.98619e-06
1.03781e-05
3.01148e-06
1.10495e-05
3.12343e-06
1.15743e-05
3.26974e-06
1.24662e-05
3.35614e-06
1.17392e-05
3.39332e-06
1.16532e-05
1.13354e-05
3.28585e-06
-1.10135e-07
3.3119e-06
-1.50101e-07
3.33456e-06
-1.28006e-07
3.35352e-06
-1.21649e-07
3.38214e-06
-1.73681e-07
3.40951e-06
-1.52244e-07
3.43352e-06
-1.48374e-07
3.46493e-06
-1.98716e-07
3.49582e-06
-1.6702e-07
3.52212e-06
-1.55396e-07
3.55615e-06
-2.10825e-07
3.59377e-06
-2.06536e-07
3.62628e-06
-1.93343e-07
3.66459e-06
-1.90369e-07
3.69078e-06
-4.90568e-08
3.70404e-06
8.92884e-09
3.7265e-06
-3.31435e-08
3.90599e-06
-1.12849e-06
4.1213e-06
-1.92422e-06
4.2795e-06
-7.71495e-07
4.44558e-06
-9.83302e-07
4.63974e-06
-1.27252e-06
4.89965e-06
-1.67432e-06
5.2238e-06
-2.5396e-06
5.08451e-06
9.80459e-07
4.7178e-06
2.80203e-06
4.43049e-06
1.72425e-06
4.21045e-06
1.23452e-06
4.03065e-06
9.49134e-07
3.88284e-06
6.99733e-07
3.71084e-06
7.47226e-07
3.51912e-06
8.80672e-07
3.32821e-06
9.1506e-07
3.12776e-06
1.31756e-06
3.02738e-06
2.82125e-06
2.99408e-06
4.09791e-06
2.99861e-06
5.01623e-06
3.01456e-06
5.26414e-06
3.04288e-06
5.95953e-06
3.04658e-06
6.50043e-06
3.05126e-06
6.87011e-06
3.0697e-06
7.28724e-06
3.07804e-06
7.66011e-06
3.10129e-06
8.12039e-06
3.11424e-06
8.46631e-06
3.12629e-06
8.6282e-06
3.13971e-06
8.95233e-06
3.14471e-06
9.07821e-06
3.16942e-06
9.48623e-06
3.16827e-06
9.87927e-06
3.16857e-06
1.00819e-05
3.17409e-06
1.03518e-05
3.21081e-06
1.09898e-05
3.31842e-06
1.14455e-05
3.467e-06
1.23004e-05
3.55067e-06
1.16426e-05
3.59336e-06
1.15983e-05
1.13132e-05
3.58273e-06
-1.31509e-07
3.60678e-06
-1.74147e-07
3.62824e-06
-1.49463e-07
3.6523e-06
-1.4571e-07
3.68081e-06
-2.02193e-07
3.70651e-06
-1.77943e-07
3.73507e-06
-1.76932e-07
3.76753e-06
-2.31183e-07
3.79638e-06
-1.95871e-07
3.8276e-06
-1.86611e-07
3.86392e-06
-2.47149e-07
3.90002e-06
-2.42634e-07
3.93841e-06
-2.31729e-07
3.9823e-06
-2.34263e-07
4.02079e-06
-8.75404e-08
4.05695e-06
-2.72319e-08
4.09828e-06
-7.44751e-08
4.25813e-06
-1.28834e-06
4.47033e-06
-2.13642e-06
4.61598e-06
-9.17147e-07
4.78229e-06
-1.14961e-06
4.98828e-06
-1.47851e-06
5.24673e-06
-1.93278e-06
5.55156e-06
-2.84443e-06
5.41544e-06
1.11658e-06
5.06546e-06
3.152e-06
4.77813e-06
2.01158e-06
4.54527e-06
1.46374e-06
4.35413e-06
1.13642e-06
4.19857e-06
8.51194e-07
4.03549e-06
9.04078e-07
3.83511e-06
1.07272e-06
3.62793e-06
1.11361e-06
3.41515e-06
1.52142e-06
3.3283e-06
2.89371e-06
3.2844e-06
4.12835e-06
3.2808e-06
5.00667e-06
3.29037e-06
5.24025e-06
3.31048e-06
5.92181e-06
3.32418e-06
6.46905e-06
3.33372e-06
6.84315e-06
3.35159e-06
7.25195e-06
3.36114e-06
7.63194e-06
3.38238e-06
8.08115e-06
3.39561e-06
8.43492e-06
3.41172e-06
8.59386e-06
3.4265e-06
8.91941e-06
3.43069e-06
9.05488e-06
3.45561e-06
9.44209e-06
3.45264e-06
9.86326e-06
3.45884e-06
1.0056e-05
3.46507e-06
1.0326e-05
3.51397e-06
1.09224e-05
3.61243e-06
1.1331e-05
3.75305e-06
1.21446e-05
3.82198e-06
1.15615e-05
3.87373e-06
1.15353e-05
1.12897e-05
3.76937e-06
-1.43135e-07
3.79811e-06
-2.02884e-07
3.82615e-06
-1.77505e-07
3.84429e-06
-1.63852e-07
3.87424e-06
-2.32139e-07
3.9085e-06
-2.12204e-07
3.93304e-06
-2.01475e-07
3.96489e-06
-2.63037e-07
4.0034e-06
-2.34376e-07
4.03141e-06
-2.14618e-07
4.0667e-06
-2.82443e-07
4.11282e-06
-2.88756e-07
4.14837e-06
-2.67272e-07
4.1953e-06
-2.81191e-07
4.25662e-06
-1.48861e-07
4.30991e-06
-8.05262e-08
4.37705e-06
-1.41616e-07
4.52429e-06
-1.43558e-06
4.71379e-06
-2.32592e-06
4.86278e-06
-1.06614e-06
5.03721e-06
-1.32404e-06
5.23604e-06
-1.67734e-06
5.50246e-06
-2.1992e-06
5.79268e-06
-3.13466e-06
5.64331e-06
1.26596e-06
5.30413e-06
3.49118e-06
5.02021e-06
2.2955e-06
4.77665e-06
1.70398e-06
4.58928e-06
1.32012e-06
4.41853e-06
1.01824e-06
4.25186e-06
1.06689e-06
4.05303e-06
1.26389e-06
3.83209e-06
1.32673e-06
3.63396e-06
1.71141e-06
3.53683e-06
2.97882e-06
3.48855e-06
4.16414e-06
3.48522e-06
4.99738e-06
3.49326e-06
5.21963e-06
3.52445e-06
5.87412e-06
3.53928e-06
6.43763e-06
3.53075e-06
6.83533e-06
3.55469e-06
7.21116e-06
3.56395e-06
7.60505e-06
3.58014e-06
8.04796e-06
3.60239e-06
8.39539e-06
3.61216e-06
8.56705e-06
3.63202e-06
8.88215e-06
3.63478e-06
9.03429e-06
3.65746e-06
9.40153e-06
3.66004e-06
9.84316e-06
3.66419e-06
1.00357e-05
3.68083e-06
1.02933e-05
3.73338e-06
1.08557e-05
3.82527e-06
1.12252e-05
3.97142e-06
1.19859e-05
4.04224e-06
1.14798e-05
4.09289e-06
1.14764e-05
1.12642e-05
4.09589e-06
-1.64955e-07
4.12285e-06
-2.29837e-07
4.147e-06
-2.01656e-07
4.17234e-06
-1.8919e-07
4.2035e-06
-2.63306e-07
4.23287e-06
-2.41571e-07
4.26321e-06
-2.31815e-07
4.2981e-06
-2.97929e-07
4.33173e-06
-2.68004e-07
4.36552e-06
-2.48407e-07
4.40528e-06
-3.22204e-07
4.4474e-06
-3.30878e-07
4.48956e-06
-3.09433e-07
4.54077e-06
-3.32394e-07
4.60503e-06
-2.1312e-07
4.67914e-06
-1.54642e-07
4.7622e-06
-2.2467e-07
4.90049e-06
-1.57387e-06
5.08449e-06
-2.50993e-06
5.22812e-06
-1.20977e-06
5.40261e-06
-1.49853e-06
5.61764e-06
-1.89236e-06
5.87437e-06
-2.45594e-06
6.13929e-06
-3.39958e-06
5.99881e-06
1.40644e-06
5.6641e-06
3.8259e-06
5.38811e-06
2.5715e-06
5.15013e-06
1.93651e-06
4.94976e-06
1.51495e-06
4.76024e-06
1.20255e-06
4.58045e-06
1.24069e-06
4.37085e-06
1.46311e-06
4.16116e-06
1.52489e-06
3.96371e-06
1.89692e-06
3.88434e-06
3.04413e-06
3.82761e-06
4.20267e-06
3.79478e-06
5.01275e-06
3.79802e-06
5.20041e-06
3.80999e-06
5.84319e-06
3.83598e-06
6.39122e-06
3.84816e-06
6.80081e-06
3.86673e-06
7.16972e-06
3.87919e-06
7.57161e-06
3.87523e-06
8.02863e-06
3.91192e-06
8.33695e-06
3.93025e-06
8.52633e-06
3.94561e-06
8.84341e-06
3.93806e-06
9.02088e-06
3.96095e-06
9.35668e-06
3.97418e-06
9.81072e-06
3.97851e-06
1.0013e-05
3.99678e-06
1.02567e-05
4.05048e-06
1.07862e-05
4.12699e-06
1.11323e-05
4.25902e-06
1.18403e-05
4.32996e-06
1.13954e-05
4.39008e-06
1.14077e-05
1.12271e-05
4.42767e-06
-1.96597e-07
4.45052e-06
-2.52689e-07
4.47214e-06
-2.23273e-07
4.50598e-06
-2.23027e-07
4.53556e-06
-2.92887e-07
4.56128e-06
-2.67289e-07
4.59919e-06
-2.6973e-07
4.63435e-06
-3.33082e-07
4.66388e-06
-2.97534e-07
4.70621e-06
-2.90738e-07
4.74784e-06
-3.63835e-07
4.78602e-06
-3.69061e-07
4.83773e-06
-3.61145e-07
4.89163e-06
-3.8629e-07
4.95411e-06
-2.75605e-07
5.03867e-06
-2.39194e-07
5.12375e-06
-3.09751e-07
5.2594e-06
-1.70952e-06
5.4514e-06
-2.70193e-06
5.59868e-06
-1.35705e-06
5.7753e-06
-1.67514e-06
6.00089e-06
-2.11796e-06
6.24831e-06
-2.70336e-06
6.48962e-06
-3.64088e-06
6.36434e-06
1.53172e-06
6.02742e-06
4.16282e-06
5.75669e-06
2.84222e-06
5.53124e-06
2.15848e-06
5.31574e-06
1.7271e-06
5.11871e-06
1.39603e-06
4.94148e-06
1.41413e-06
4.73177e-06
1.66591e-06
4.52775e-06
1.72094e-06
4.30749e-06
2.10946e-06
4.20263e-06
3.14123e-06
4.17899e-06
4.21342e-06
4.13463e-06
5.04493e-06
4.13395e-06
5.18896e-06
4.14719e-06
5.81708e-06
4.16085e-06
6.36338e-06
4.18521e-06
6.75966e-06
4.17459e-06
7.16411e-06
4.2164e-06
7.51379e-06
4.20873e-06
8.01895e-06
4.24886e-06
8.28052e-06
4.27662e-06
8.48378e-06
4.27968e-06
8.82608e-06
4.28267e-06
9.00453e-06
4.30483e-06
9.32061e-06
4.32254e-06
9.78011e-06
4.33e-06
9.99191e-06
4.34142e-06
1.0232e-05
4.39678e-06
1.07186e-05
4.4573e-06
1.1059e-05
4.56838e-06
1.17191e-05
4.64905e-06
1.13072e-05
4.71183e-06
1.1339e-05
1.11823e-05
4.65224e-06
-2.20206e-07
4.68108e-06
-2.81527e-07
4.70833e-06
-2.5053e-07
4.73591e-06
-2.50603e-07
4.76916e-06
-3.26138e-07
4.80231e-06
-3.00441e-07
4.83481e-06
-3.02233e-07
4.87196e-06
-3.70225e-07
4.91055e-06
-3.36129e-07
4.94813e-06
-3.28319e-07
4.99119e-06
-4.06891e-07
5.03898e-06
-4.16853e-07
5.08666e-06
-4.08827e-07
5.14366e-06
-4.43284e-07
5.21542e-06
-3.47366e-07
5.29649e-06
-3.2026e-07
5.38892e-06
-4.02183e-07
5.53388e-06
-1.85448e-06
5.72446e-06
-2.89251e-06
5.88359e-06
-1.51618e-06
6.06819e-06
-1.85974e-06
6.28956e-06
-2.33933e-06
6.54196e-06
-2.95575e-06
6.76109e-06
-3.86001e-06
6.62678e-06
1.66602e-06
6.31633e-06
4.47327e-06
6.04535e-06
3.11321e-06
5.79658e-06
2.40456e-06
5.58077e-06
1.94005e-06
5.37901e-06
1.59483e-06
5.19956e-06
1.59051e-06
5.00741e-06
1.85366e-06
4.79103e-06
1.93104e-06
4.56541e-06
2.32878e-06
4.45569e-06
3.24437e-06
4.41698e-06
4.24252e-06
4.39221e-06
5.05981e-06
4.37346e-06
5.19775e-06
4.38027e-06
5.80036e-06
4.39149e-06
6.34248e-06
4.41092e-06
6.73035e-06
4.41879e-06
7.14641e-06
4.46255e-06
7.45974e-06
4.45699e-06
8.01451e-06
4.49516e-06
8.23223e-06
4.51516e-06
8.45376e-06
4.52798e-06
8.80325e-06
4.53667e-06
8.98543e-06
4.54691e-06
9.30017e-06
4.57251e-06
9.74429e-06
4.57354e-06
9.98048e-06
4.59677e-06
1.01981e-05
4.63067e-06
1.06745e-05
4.6887e-06
1.09906e-05
4.81086e-06
1.15897e-05
4.89395e-06
1.12188e-05
4.96229e-06
1.12661e-05
1.11346e-05
4.9958e-06
-2.53033e-07
5.02118e-06
-3.06899e-07
5.04557e-06
-2.7492e-07
5.08193e-06
-2.86966e-07
5.11411e-06
-3.58314e-07
5.14292e-06
-3.29258e-07
5.18364e-06
-3.42951e-07
5.22143e-06
-4.08017e-07
5.25517e-06
-3.69866e-07
5.30164e-06
-3.74795e-07
5.34761e-06
-4.52855e-07
5.39141e-06
-4.60653e-07
5.44842e-06
-4.65841e-07
5.50878e-06
-5.03643e-07
5.57803e-06
-4.16618e-07
5.66918e-06
-4.11406e-07
5.76483e-06
-4.97835e-07
5.9092e-06
-1.99884e-06
6.10879e-06
-3.0921e-06
6.27179e-06
-1.67918e-06
6.45812e-06
-2.04607e-06
6.68779e-06
-2.569e-06
6.93308e-06
-3.20105e-06
7.12375e-06
-4.05067e-06
6.99843e-06
1.79134e-06
6.69265e-06
4.77905e-06
6.42905e-06
3.37681e-06
6.17521e-06
2.65555e-06
5.94268e-06
2.16978e-06
5.74829e-06
1.7862e-06
5.559e-06
1.77663e-06
5.34921e-06
2.06044e-06
5.13142e-06
2.14247e-06
4.92076e-06
2.53313e-06
4.80255e-06
3.35618e-06
4.74863e-06
4.28956e-06
4.74097e-06
5.05804e-06
4.71747e-06
5.21132e-06
4.71844e-06
5.78942e-06
4.72297e-06
6.3286e-06
4.74156e-06
6.70186e-06
4.74821e-06
7.13034e-06
4.79185e-06
7.40633e-06
4.80068e-06
7.99568e-06
4.82662e-06
8.19665e-06
4.84954e-06
8.42087e-06
4.86361e-06
8.7795e-06
4.87963e-06
8.95942e-06
4.89e-06
9.27953e-06
4.9204e-06
9.70401e-06
4.92055e-06
9.96986e-06
4.92408e-06
1.01843e-05
4.95356e-06
1.06354e-05
5.01858e-06
1.09157e-05
5.13437e-06
1.1468e-05
5.21623e-06
1.11317e-05
5.28866e-06
1.11893e-05
1.10967e-05
5.24807e-06
-2.79036e-07
5.27889e-06
-3.37718e-07
5.30932e-06
-3.0535e-07
5.33978e-06
-3.17433e-07
5.37526e-06
-3.93791e-07
5.4121e-06
-3.66098e-07
5.44743e-06
-3.78279e-07
5.48663e-06
-4.47219e-07
5.53004e-06
-4.1328e-07
5.57235e-06
-4.17101e-07
5.61945e-06
-4.99954e-07
5.67332e-06
-5.1452e-07
5.72705e-06
-5.19573e-07
5.79007e-06
-5.66664e-07
5.86978e-06
-4.96325e-07
5.95873e-06
-5.00356e-07
6.06114e-06
-6.00241e-07
6.21658e-06
-2.15429e-06
6.4134e-06
-3.28891e-06
6.58566e-06
-1.85144e-06
6.77887e-06
-2.23928e-06
7.00444e-06
-2.79457e-06
7.25055e-06
-3.44716e-06
7.41641e-06
-4.21653e-06
7.2863e-06
1.92146e-06
6.99916e-06
5.06619e-06
6.74442e-06
3.63155e-06
6.47149e-06
2.92606e-06
6.24288e-06
2.39578e-06
6.04133e-06
1.98506e-06
5.84e-06
1.97515e-06
5.63717e-06
2.2605e-06
5.41936e-06
2.35465e-06
5.21377e-06
2.73289e-06
5.08287e-06
3.48124e-06
5.02461e-06
4.34174e-06
5.0264e-06
5.04754e-06
5.00831e-06
5.22037e-06
4.98447e-06
5.80422e-06
4.98754e-06
6.31688e-06
4.99669e-06
6.68376e-06
5.0193e-06
7.09889e-06
5.0598e-06
7.35689e-06
5.07424e-06
7.97224e-06
5.09548e-06
8.16649e-06
5.11414e-06
8.39324e-06
5.13976e-06
8.7449e-06
5.16179e-06
8.92825e-06
5.15941e-06
9.27267e-06
5.17067e-06
9.68362e-06
5.18414e-06
9.94693e-06
5.18251e-06
1.01765e-05
5.22428e-06
1.05866e-05
5.28962e-06
1.08438e-05
5.40647e-06
1.13458e-05
5.49026e-06
1.10432e-05
5.55202e-06
1.11236e-05
1.10538e-05
5.6169e-06
-3.14466e-07
5.64443e-06
-3.65253e-07
5.67145e-06
-3.32362e-07
5.71159e-06
-3.5758e-07
5.74616e-06
-4.28358e-07
5.77735e-06
-3.97291e-07
5.82199e-06
-4.22923e-07
5.86288e-06
-4.88102e-07
5.90018e-06
-4.50586e-07
5.95193e-06
-4.68845e-07
6.00245e-06
-5.50477e-07
6.05115e-06
-5.63212e-07
6.11538e-06
-5.83806e-07
6.1827e-06
-6.33983e-07
6.25884e-06
-5.72464e-07
6.35888e-06
-6.00394e-07
6.466e-06
-7.07361e-07
6.6197e-06
-2.30799e-06
6.82453e-06
-3.49374e-06
7.00068e-06
-2.0276e-06
7.19465e-06
-2.43325e-06
7.42728e-06
-3.02719e-06
7.66719e-06
-3.68708e-06
7.79966e-06
-4.349e-06
7.68113e-06
2.03999e-06
7.40136e-06
5.34597e-06
7.15383e-06
3.87908e-06
6.88444e-06
3.19325e-06
6.64801e-06
2.62972e-06
6.44816e-06
2.18218e-06
6.23874e-06
2.18165e-06
6.03416e-06
2.46238e-06
5.83646e-06
2.54673e-06
5.63106e-06
2.93249e-06
5.47135e-06
3.63511e-06
5.40211e-06
4.40474e-06
5.36231e-06
5.08082e-06
5.37607e-06
5.19781e-06
5.36175e-06
5.80942e-06
5.35053e-06
6.31971e-06
5.35665e-06
6.66867e-06
5.37358e-06
7.07345e-06
5.41579e-06
7.3059e-06
5.44769e-06
7.93119e-06
5.45756e-06
8.14806e-06
5.4743e-06
8.36752e-06
5.49795e-06
8.71246e-06
5.50022e-06
8.9169e-06
5.51993e-06
9.24365e-06
5.5145e-06
9.68033e-06
5.54701e-06
9.90647e-06
5.54903e-06
1.01676e-05
5.59193e-06
1.05378e-05
5.65646e-06
1.07732e-05
5.76175e-06
1.12353e-05
5.85844e-06
1.09419e-05
5.90392e-06
1.10743e-05
1.10074e-05
5.89698e-06
-3.44139e-07
5.9292e-06
-3.97479e-07
5.96258e-06
-3.65742e-07
5.99751e-06
-3.92511e-07
6.03471e-06
-4.65556e-07
6.07441e-06
-4.36992e-07
6.1143e-06
-4.6281e-07
6.1562e-06
-5.30001e-07
6.20358e-06
-4.97966e-07
6.25163e-06
-5.16899e-07
6.30298e-06
-6.01828e-07
6.36222e-06
-6.22444e-07
6.42366e-06
-6.45249e-07
6.49311e-06
-7.03436e-07
6.58025e-06
-6.59598e-07
6.67902e-06
-6.99163e-07
6.7913e-06
-8.19641e-07
6.95581e-06
-2.4725e-06
7.16025e-06
-3.69818e-06
7.34371e-06
-2.21106e-06
7.544e-06
-2.63355e-06
7.77256e-06
-3.25575e-06
8.01022e-06
-3.92475e-06
8.11435e-06
-4.45312e-06
7.98918e-06
2.16515e-06
7.7364e-06
5.59875e-06
7.48451e-06
4.13097e-06
7.21877e-06
3.4589e-06
7.00644e-06
2.83993e-06
6.79252e-06
2.39372e-06
6.55382e-06
2.41783e-06
6.3438e-06
2.66995e-06
6.11563e-06
2.77188e-06
5.91628e-06
3.12676e-06
5.78125e-06
3.76502e-06
5.70133e-06
4.47922e-06
5.67492e-06
5.10197e-06
5.68033e-06
5.18468e-06
5.67328e-06
5.80845e-06
5.64787e-06
6.33751e-06
5.64552e-06
6.66301e-06
5.66937e-06
7.04167e-06
5.7036e-06
7.26383e-06
5.74857e-06
7.87813e-06
5.74342e-06
8.14535e-06
5.74629e-06
8.3566e-06
5.77911e-06
8.67156e-06
5.7745e-06
8.91349e-06
5.8059e-06
9.20439e-06
5.81492e-06
9.66501e-06
5.84336e-06
9.87246e-06
5.86105e-06
1.01444e-05
5.8991e-06
1.04946e-05
5.96494e-06
1.0702e-05
6.08033e-06
1.11151e-05
6.15867e-06
1.08593e-05
6.20939e-06
1.10202e-05
1.09586e-05
6.29234e-06
-3.83804e-07
6.32189e-06
-4.27024e-07
6.35081e-06
-3.94664e-07
6.39522e-06
-4.36925e-07
6.43257e-06
-5.02904e-07
6.46581e-06
-4.70237e-07
6.51519e-06
-5.12183e-07
6.55945e-06
-5.74265e-07
6.5995e-06
-5.38014e-07
6.65765e-06
-5.75055e-07
6.71336e-06
-6.57534e-07
6.76627e-06
-6.75351e-07
6.83889e-06
-7.17865e-07
6.91357e-06
-7.78122e-07
6.99601e-06
-7.4203e-07
7.1057e-06
-8.08856e-07
7.22348e-06
-9.37422e-07
7.38457e-06
-2.63359e-06
7.5968e-06
-3.91041e-06
7.78387e-06
-2.39813e-06
7.98466e-06
-2.83433e-06
8.21926e-06
-3.49035e-06
8.44511e-06
-4.15059e-06
8.5222e-06
-4.53021e-06
8.40455e-06
2.2828e-06
8.16118e-06
5.84211e-06
7.90315e-06
4.38901e-06
7.66115e-06
3.7009e-06
7.43784e-06
3.06131e-06
7.21585e-06
2.61328e-06
6.98217e-06
2.64896e-06
6.75572e-06
2.89409e-06
6.54904e-06
2.97597e-06
6.38578e-06
3.28525e-06
6.21692e-06
3.92877e-06
6.11625e-06
4.57447e-06
6.07411e-06
5.13924e-06
6.05245e-06
5.19953e-06
6.09077e-06
5.7624e-06
6.09311e-06
6.3279e-06
6.08277e-06
6.66552e-06
6.08728e-06
7.02985e-06
6.08149e-06
7.26217e-06
6.1235e-06
7.82813e-06
6.13653e-06
8.12501e-06
6.12442e-06
8.361e-06
6.15767e-06
8.63088e-06
6.15929e-06
8.90422e-06
6.20189e-06
9.15624e-06
6.22373e-06
9.63811e-06
6.2477e-06
9.84314e-06
6.26654e-06
1.01204e-05
6.3039e-06
1.04522e-05
6.36535e-06
1.06353e-05
6.45637e-06
1.10193e-05
6.52926e-06
1.07824e-05
6.59122e-06
1.09551e-05
1.09045e-05
6.59544e-06
-4.16975e-07
6.62934e-06
-4.60927e-07
6.66604e-06
-4.31365e-07
6.7049e-06
-4.75782e-07
6.74417e-06
-5.42183e-07
6.7873e-06
-5.13365e-07
6.83137e-06
-5.56249e-07
6.87602e-06
-6.18914e-07
6.92796e-06
-5.89953e-07
6.98185e-06
-6.28949e-07
7.03765e-06
-7.13332e-07
7.10287e-06
-7.40568e-07
7.17215e-06
-7.87149e-07
7.24828e-06
-8.54246e-07
7.34305e-06
-8.36807e-07
7.45179e-06
-9.17591e-07
7.57371e-06
-1.05934e-06
7.74422e-06
-2.8041e-06
7.9544e-06
-4.12059e-06
8.14792e-06
-2.59164e-06
8.35334e-06
-3.03975e-06
8.5788e-06
-3.71581e-06
8.79841e-06
-4.37021e-06
8.85543e-06
-4.58724e-06
8.73595e-06
2.40228e-06
8.52264e-06
6.05542e-06
8.25881e-06
4.65283e-06
8.01509e-06
3.94462e-06
7.77911e-06
3.29646e-06
7.53601e-06
2.8552e-06
7.32002e-06
2.86414e-06
7.09526e-06
3.11774e-06
6.89055e-06
3.17955e-06
6.70086e-06
3.47306e-06
6.55461e-06
4.07235e-06
6.44551e-06
4.68149e-06
6.40585e-06
5.17664e-06
6.38401e-06
5.21861e-06
6.38629e-06
5.75709e-06
6.4471e-06
6.2632e-06
6.44531e-06
6.66355e-06
6.44258e-06
7.02904e-06
6.40181e-06
7.29869e-06
6.43906e-06
7.78761e-06
6.45994e-06
8.1002e-06
6.44711e-06
8.37042e-06
6.48798e-06
8.58739e-06
6.50072e-06
8.88835e-06
6.52939e-06
9.12537e-06
6.55983e-06
9.60495e-06
6.58054e-06
9.81969e-06
6.60739e-06
1.00907e-05
6.64614e-06
1.04102e-05
6.71037e-06
1.05679e-05
6.78548e-06
1.09408e-05
6.85458e-06
1.07108e-05
6.92584e-06
1.08828e-05
1.08479e-05
6.91209e-06
-4.40542e-07
6.95138e-06
-5.00219e-07
6.99684e-06
-4.76823e-07
7.02797e-06
-5.06911e-07
7.0704e-06
-5.84613e-07
7.12307e-06
-5.66036e-07
7.16147e-06
-5.94654e-07
7.20866e-06
-6.66103e-07
7.27024e-06
-6.51535e-07
7.31966e-06
-6.78365e-07
7.37849e-06
-7.72162e-07
7.45385e-06
-8.15925e-07
7.51938e-06
-8.52682e-07
7.60041e-06
-9.35276e-07
7.70597e-06
-9.4236e-07
7.81116e-06
-1.02278e-06
7.94122e-06
-1.1894e-06
8.12383e-06
-2.98672e-06
8.32974e-06
-4.3265e-06
8.52942e-06
-2.79132e-06
8.74099e-06
-3.25132e-06
8.95594e-06
-3.93076e-06
9.16256e-06
-4.57682e-06
9.19793e-06
-4.62261e-06
9.07385e-06
2.52636e-06
8.87458e-06
6.25469e-06
8.61112e-06
4.9163e-06
8.37767e-06
4.17806e-06
8.13948e-06
3.53291e-06
7.87988e-06
3.11296e-06
7.67181e-06
3.07016e-06
7.45375e-06
3.33376e-06
7.24169e-06
3.38966e-06
7.03589e-06
3.67562e-06
6.88484e-06
4.21946e-06
6.78852e-06
4.77369e-06
6.74089e-06
5.2201e-06
6.71787e-06
5.23772e-06
6.71374e-06
5.75545e-06
6.76471e-06
6.20608e-06
6.77947e-06
6.64283e-06
6.77613e-06
7.02636e-06
6.7352e-06
7.33383e-06
6.76467e-06
7.75242e-06
6.79432e-06
8.06623e-06
6.79132e-06
8.36941e-06
6.81638e-06
8.55816e-06
6.83661e-06
8.86411e-06
6.8629e-06
9.09492e-06
6.89943e-06
9.56417e-06
6.91923e-06
9.79583e-06
6.95533e-06
1.00503e-05
7.00813e-06
1.03534e-05
7.05436e-06
1.05174e-05
7.1212e-06
1.08702e-05
7.19339e-06
1.06369e-05
7.26916e-06
1.08057e-05
1.0792e-05
7.3545e-06
-4.77987e-07
7.39114e-06
-5.36855e-07
7.42979e-06
-5.15474e-07
7.47298e-06
-5.50107e-07
7.5152e-06
-6.26827e-07
7.56059e-06
-6.11427e-07
7.60979e-06
-6.43859e-07
7.65858e-06
-7.14891e-07
7.71389e-06
-7.06843e-07
7.77426e-06
-7.3873e-07
7.83584e-06
-8.33747e-07
7.90607e-06
-8.86153e-07
7.98383e-06
-9.30437e-07
8.06801e-06
-1.01946e-06
8.1694e-06
-1.04375e-06
8.288e-06
-1.14138e-06
8.42146e-06
-1.32286e-06
8.59905e-06
-3.16431e-06
8.81479e-06
-4.54225e-06
9.01563e-06
-2.99216e-06
9.22341e-06
-3.4591e-06
9.44449e-06
-4.15185e-06
9.63329e-06
-4.76562e-06
9.6496e-06
-4.63892e-06
9.5328e-06
2.64316e-06
9.34164e-06
6.44585e-06
9.08267e-06
5.17527e-06
8.85955e-06
4.40119e-06
8.60484e-06
3.78591e-06
8.36004e-06
3.35574e-06
8.14501e-06
3.28302e-06
7.92413e-06
3.55266e-06
7.71434e-06
3.5973e-06
7.5132e-06
3.87448e-06
7.37835e-06
4.3503e-06
7.26477e-06
4.88281e-06
7.19304e-06
5.28751e-06
7.16609e-06
5.26042e-06
7.15694e-06
5.76011e-06
7.16752e-06
6.1895e-06
7.20398e-06
6.6001e-06
7.22525e-06
7.00024e-06
7.20914e-06
7.34565e-06
7.22481e-06
7.73212e-06
7.24394e-06
8.04285e-06
7.25014e-06
8.3588e-06
7.26877e-06
8.53502e-06
7.29859e-06
8.82986e-06
7.31876e-06
9.07024e-06
7.35967e-06
9.51897e-06
7.38554e-06
9.76558e-06
7.40536e-06
1.0026e-05
7.45078e-06
1.03039e-05
7.47899e-06
1.04849e-05
7.55644e-06
1.07891e-05
7.62852e-06
1.05632e-05
7.70305e-06
1.07299e-05
1.07321e-05
7.71211e-06
-5.10469e-07
7.75242e-06
-5.77171e-07
7.79843e-06
-5.61485e-07
7.83682e-06
-5.88493e-07
7.88159e-06
-6.71595e-07
7.93503e-06
-6.6487e-07
7.98052e-06
-6.89351e-07
8.03173e-06
-7.66103e-07
8.09541e-06
-7.70522e-07
8.15306e-06
-7.96376e-07
8.21752e-06
-8.98208e-07
8.29661e-06
-9.65244e-07
8.37255e-06
-1.00638e-06
8.4608e-06
-1.1077e-06
8.57194e-06
-1.15489e-06
8.68967e-06
-1.25912e-06
8.8283e-06
-1.46148e-06
9.01583e-06
-3.35184e-06
9.23099e-06
-4.75741e-06
9.43471e-06
-3.19587e-06
9.64476e-06
-3.66916e-06
9.8582e-06
-4.36528e-06
1.00251e-05
-4.93256e-06
1.00251e-05
-4.6389e-06
9.91229e-06
2.75599e-06
9.73327e-06
6.62487e-06
9.47395e-06
5.43459e-06
9.27515e-06
4.59999e-06
9.01091e-06
4.04868e-06
8.7674e-06
3.59761e-06
8.53784e-06
3.51075e-06
8.31441e-06
3.77432e-06
8.10137e-06
3.80855e-06
7.90955e-06
4.06451e-06
7.77188e-06
4.48458e-06
7.65514e-06
4.99572e-06
7.58159e-06
5.35733e-06
7.54048e-06
5.29802e-06
7.53095e-06
5.76599e-06
7.51296e-06
6.20377e-06
7.55756e-06
6.55172e-06
7.59274e-06
6.96141e-06
7.59766e-06
7.33719e-06
7.6111e-06
7.71479e-06
7.62694e-06
8.02326e-06
7.63883e-06
8.34315e-06
7.65373e-06
8.51633e-06
7.67862e-06
8.8012e-06
7.70524e-06
9.03976e-06
7.70759e-06
9.51284e-06
7.70641e-06
9.76311e-06
7.74777e-06
9.98096e-06
7.80746e-06
1.02409e-05