/*--------------------------------*- C++ -*----------------------------------*\
| =========                 |                                                 |
| \\      /  F ield         | OpenFOAM: The Open Source CFD Toolbox           |
|  \\    /   O peration     | Version:  v2012                                 |
|   \\  /    A nd           | Website:  www.openfoam.com                      |
|    \\/     M anipulation  |                                                 |
\*---------------------------------------------------------------------------*/
FoamFile
{
    version     2.0;
    format      ascii;
    class       volScalarField;
    location    "1e-06";
    object      pMean;
}
// * * * * * * * * * * * * * * * * * * * * * * * * * * * * * * * * * * * * * //

dimensions      [1 -1 -2 0 0 0 0];


internalField   nonuniform List<scalar> 
10295
(
1.34605e+07
1.32e+07
1.29432e+07
1.26807e+07
1.24124e+07
1.2148e+07
1.1876e+07
1.15979e+07
1.13234e+07
1.10401e+07
1.07466e+07
1.04541e+07
1.01507e+07
9.83502e+06
9.52492e+06
9.21649e+06
8.90156e+06
8.60316e+06
8.20909e+06
7.64108e+06
7.1339e+06
6.61896e+06
6.02912e+06
5.35165e+06
4.40593e+06
3.51132e+06
2.73812e+06
2.16982e+06
1.62074e+06
1.16112e+06
774388
409121
166065
-12250
-22668.1
-28234.7
-29503.1
-28210.3
-29322.3
-30089.4
-30070.9
-30551.9
-30183.7
-31598.8
-32028.9
-31763.5
-32028.6
-30903.6
-32664.5
-33404.7
-32836.2
-33673.1
-36446.4
-39068.2
-44460.1
-42336
-41834
-39279.2
1.34608e+07
1.32003e+07
1.29436e+07
1.26811e+07
1.24127e+07
1.21483e+07
1.18764e+07
1.15981e+07
1.13237e+07
1.10401e+07
1.07466e+07
1.04541e+07
1.01495e+07
9.83433e+06
9.52423e+06
9.21331e+06
8.89631e+06
8.58531e+06
8.18338e+06
7.62486e+06
7.13393e+06
6.62035e+06
6.03218e+06
5.35774e+06
4.4408e+06
3.56187e+06
2.79691e+06
2.21903e+06
1.68137e+06
1.21007e+06
824999
466410
216662
38353.4
6529.75
-3435.14
-6085.96
-6463.57
-8134.11
-8923.24
-9428.21
-9812.87
-9795.35
-10688.2
-10521.4
-10561.8
-10774.6
-10980.9
-11338.8
-11194.3
-11141.4
-11479
-12128.1
-13477.9
-15337.9
-14090.5
-13403
-12765.3
1.34608e+07
1.32003e+07
1.29436e+07
1.2681e+07
1.24127e+07
1.21483e+07
1.18764e+07
1.15981e+07
1.13238e+07
1.10401e+07
1.07466e+07
1.04541e+07
1.01495e+07
9.83433e+06
9.52312e+06
9.20951e+06
8.8876e+06
8.56764e+06
8.15939e+06
7.61285e+06
7.13472e+06
6.62152e+06
6.03475e+06
5.36227e+06
4.45953e+06
3.59641e+06
2.84044e+06
2.25019e+06
1.7222e+06
1.25329e+06
859281
509369
255157
75883.1
37573.8
19654.8
11420.6
7901.88
4767.89
954.774
-686.508
-1362
-2440.64
-2889.79
-2974.73
-3270.3
-3406.47
-4124.48
-4137.89
-4077.26
-4223.16
-4280.79
-4882.73
-5302.09
-5354.39
-4671.12
-3499.82
-3504.82
1.34609e+07
1.32004e+07
1.29437e+07
1.26811e+07
1.24128e+07
1.21484e+07
1.18764e+07
1.15983e+07
1.13239e+07
1.10401e+07
1.07467e+07
1.04542e+07
1.01495e+07
9.83433e+06
9.52173e+06
9.20511e+06
8.87661e+06
8.54894e+06
8.13497e+06
7.60536e+06
7.13562e+06
6.62333e+06
6.0386e+06
5.36935e+06
4.4876e+06
3.63925e+06
2.89423e+06
2.29364e+06
1.77151e+06
1.30612e+06
906709
563979
306752
120906
72379.5
48205.9
32264.1
25720.8
20923.3
15646.6
12003.7
9519.38
6350.91
4944.4
4256.07
3113
2286.38
730.881
483.503
624.724
-100.7
-210.07
-537.914
-939.621
-43.1653
1608.58
4733.01
4304.03
1.3461e+07
1.32005e+07
1.29438e+07
1.26812e+07
1.2413e+07
1.21486e+07
1.18765e+07
1.15985e+07
1.13241e+07
1.10402e+07
1.07469e+07
1.04543e+07
1.01496e+07
9.83438e+06
9.52039e+06
9.19956e+06
8.86449e+06
8.52966e+06
8.11081e+06
7.60526e+06
7.13681e+06
6.62553e+06
6.04342e+06
5.37856e+06
4.51529e+06
3.68343e+06
2.95039e+06
2.33978e+06
1.82025e+06
1.36213e+06
950593
616822
360350
167015
109824
80152.2
59956.6
46708.9
39487.7
33569.8
27834.6
24159.9
19542.7
16503.8
15256.9
13016.4
11423.9
9847.53
7533.87
8016.35
5608.41
5403.96
5327.67
4189.22
7718.74
10473.8
14409.6
13471.3
1.34611e+07
1.32008e+07
1.2944e+07
1.26813e+07
1.24132e+07
1.21488e+07
1.18767e+07
1.15987e+07
1.13243e+07
1.10403e+07
1.07471e+07
1.04545e+07
1.01497e+07
9.83447e+06
9.51879e+06
9.19304e+06
8.85115e+06
8.50954e+06
8.08655e+06
7.60673e+06
7.13834e+06
6.62844e+06
6.04938e+06
5.38982e+06
4.54722e+06
3.73302e+06
3.01132e+06
2.40114e+06
1.87514e+06
1.4241e+06
1.01649e+06
674023
420292
227813
152729
116916
93905
74705.8
63027.5
55411.5
48373.7
43928.3
37597.6
33694.6
31117.1
28066.2
25815.3
23662.6
19525.6
19834.9
16309.7
15975
15665.6
14917.5
20224.9
23804.4
27844.2
26676.5
1.34614e+07
1.3201e+07
1.29442e+07
1.26815e+07
1.24135e+07
1.2149e+07
1.18769e+07
1.15991e+07
1.13246e+07
1.10405e+07
1.07474e+07
1.04547e+07
1.01499e+07
9.83462e+06
9.51743e+06
9.18706e+06
8.83815e+06
8.48903e+06
8.06888e+06
7.60845e+06
7.14041e+06
6.63224e+06
6.0566e+06
5.40288e+06
4.58096e+06
3.78461e+06
3.07435e+06
2.46e+06
1.93257e+06
1.48775e+06
1.07952e+06
734263
481835
289851
198418
156535
130969
108804
89642.9
79937.7
71393.9
65801.7
58296.2
53659.3
49311
45549.9
42458.9
39570.5
34347.9
34402.3
30041.8
29459.2
30628.4
29637.3
35410.5
39335.4
43759.5
42436.6
1.34616e+07
1.32014e+07
1.29445e+07
1.26818e+07
1.24139e+07
1.21493e+07
1.18772e+07
1.15995e+07
1.13249e+07
1.10407e+07
1.07478e+07
1.0455e+07
1.01502e+07
9.83485e+06
9.51676e+06
9.18168e+06
8.82732e+06
8.4685e+06
8.06361e+06
7.61045e+06
7.14312e+06
6.63695e+06
6.06507e+06
5.41774e+06
4.61654e+06
3.83838e+06
3.14031e+06
2.52624e+06
1.99292e+06
1.5523e+06
1.14916e+06
797084
544958
355541
255191
199194
169810
146423
123584
107489
96947.6
89881.8
81127.9
75451.8
69793.7
65240.3
61269
57959.2
51636.7
51471
48261.1
47708.6
49003.2
47024.5
52922.7
56870.7
64084.2
62882.8
1.3462e+07
1.32018e+07
1.29449e+07
1.26822e+07
1.24144e+07
1.21497e+07
1.18776e+07
1.16e+07
1.13253e+07
1.10411e+07
1.07483e+07
1.04554e+07
1.01505e+07
9.83522e+06
9.51667e+06
9.17866e+06
8.82077e+06
8.45835e+06
8.06352e+06
7.61259e+06
7.14655e+06
6.64274e+06
6.07498e+06
5.4342e+06
4.65427e+06
3.89458e+06
3.20903e+06
2.59554e+06
2.05643e+06
1.61934e+06
1.22217e+06
869805
611041
424276
315786
245519
211215
187093
161817
138799
125462
116921
106758
99969.3
93177.7
87878.9
82897.6
79242.1
74627.3
74552.3
70082
69308.2
70191.2
66779.5
72968.7
77018.6
87240.5
86032.1
1.34624e+07
1.32024e+07
1.29454e+07
1.26826e+07
1.24149e+07
1.21503e+07
1.18781e+07
1.16007e+07
1.13259e+07
1.10415e+07
1.07488e+07
1.04559e+07
1.01509e+07
9.83574e+06
9.51686e+06
9.17849e+06
8.82125e+06
8.45831e+06
8.06389e+06
7.61521e+06
7.15076e+06
6.64967e+06
6.08655e+06
5.45245e+06
4.69368e+06
3.95258e+06
3.2798e+06
2.66763e+06
2.12233e+06
1.68959e+06
1.29887e+06
948342
679924
494348
380267
294381
255943
229400
203601
179428
162207
151106
135012
126917
123195
117156
110998
107415
100710
100505
94197.1
93106.9
93115.4
88776.1
95587.7
102796
112343
110826
1.34628e+07
1.3203e+07
1.29459e+07
1.2683e+07
1.24156e+07
1.21508e+07
1.18787e+07
1.16014e+07
1.13265e+07
1.1042e+07
1.07495e+07
1.04564e+07
1.01515e+07
9.83635e+06
9.5172e+06
9.17875e+06
8.82176e+06
8.45841e+06
8.06408e+06
7.61828e+06
7.15577e+06
6.65776e+06
6.09993e+06
5.4732e+06
4.73651e+06
4.01489e+06
3.35466e+06
2.7455e+06
2.19904e+06
1.76475e+06
1.38098e+06
1.03289e+06
753589
567334
450164
359778
305851
275100
249613
224325
204096
191320
173517
164721
158245
151412
144205
139771
131198
130097
121776
120156
119275
114705
125526
132356
139861
137743
1.34634e+07
1.32036e+07
1.29465e+07
1.26836e+07
1.24163e+07
1.21515e+07
1.18793e+07
1.16022e+07
1.13272e+07
1.10426e+07
1.07503e+07
1.04571e+07
1.01521e+07
9.83715e+06
9.51769e+06
9.17939e+06
8.82281e+06
8.45876e+06
8.06546e+06
7.62208e+06
7.16167e+06
6.66711e+06
6.11499e+06
5.49604e+06
4.78145e+06
4.07892e+06
3.43214e+06
2.82682e+06
2.28025e+06
1.84317e+06
1.46403e+06
1.12087e+06
834688
642675
522617
427512
360145
324304
296970
272463
249876
235013
215653
205414
196942
188462
179790
174357
163589
161211
151942
149670
148308
147761
157838
163953
169246
166645
1.3464e+07
1.32044e+07
1.29472e+07
1.26843e+07
1.24172e+07
1.21522e+07
1.18801e+07
1.16032e+07
1.1328e+07
1.10434e+07
1.07513e+07
1.0458e+07
1.01529e+07
9.83811e+06
9.51839e+06
9.18017e+06
8.82412e+06
8.46002e+06
8.06725e+06
7.62663e+06
7.1685e+06
6.67772e+06
6.13183e+06
5.52104e+06
4.82839e+06
4.14476e+06
3.51232e+06
2.91127e+06
2.367e+06
1.92477e+06
1.54859e+06
1.21245e+06
925136
721085
596209
499475
426945
377241
346522
322200
297945
280845
260171
247945
238037
226813
216458
210052
198139
194631
184709
181934
185360
183638
192305
196406
201124
198070
1.34648e+07
1.32053e+07
1.2948e+07
1.26852e+07
1.24182e+07
1.21531e+07
1.1881e+07
1.16043e+07
1.13289e+07
1.10443e+07
1.07524e+07
1.04589e+07
1.01539e+07
9.83926e+06
9.51926e+06
9.18118e+06
8.82555e+06
8.46139e+06
8.06956e+06
7.63193e+06
7.17628e+06
6.68963e+06
6.15034e+06
5.54844e+06
4.87768e+06
4.21243e+06
3.59575e+06
2.99926e+06
2.45921e+06
2.00983e+06
1.63683e+06
1.30819e+06
1.02026e+06
802976
672477
575068
497406
432761
400066
372998
347072
327659
305864
291450
280344
267654
255548
248214
235664
230929
226135
223932
225174
222699
228087
230807
235852
236673
1.34656e+07
1.32063e+07
1.29488e+07
1.26861e+07
1.24192e+07
1.2154e+07
1.1882e+07
1.16055e+07
1.133e+07
1.10454e+07
1.07536e+07
1.04601e+07
1.01551e+07
9.84061e+06
9.52038e+06
9.18243e+06
8.82721e+06
8.46307e+06
8.07241e+06
7.63795e+06
7.18505e+06
6.70275e+06
6.17029e+06
5.57721e+06
4.92909e+06
4.28159e+06
3.67884e+06
3.09023e+06
2.55618e+06
2.09807e+06
1.72892e+06
1.40705e+06
1.11935e+06
888317
752863
652545
572643
505531
457188
426465
398333
376790
354009
337249
325294
312127
297642
289251
282633
278393
270737
268279
267226
263957
265876
268366
277270
278050
1.34665e+07
1.32073e+07
1.29498e+07
1.26871e+07
1.24205e+07
1.21551e+07
1.18832e+07
1.16069e+07
1.13313e+07
1.10467e+07
1.07551e+07
1.04614e+07
1.01565e+07
9.84222e+06
9.52176e+06
9.18402e+06
8.82924e+06
8.46519e+06
8.07603e+06
7.64476e+06
7.19486e+06
6.71719e+06
6.19193e+06
5.60921e+06
4.98298e+06
4.3524e+06
3.75814e+06
3.18429e+06
2.65646e+06
2.18968e+06
1.82511e+06
1.50685e+06
1.22271e+06
989847
837022
731827
651861
580579
520549
484147
453911
430196
406684
386471
373167
360135
351184
343006
333060
328094
318389
314838
310525
306302
306734
308982
322373
322433
1.34675e+07
1.32085e+07
1.29509e+07
1.26882e+07
1.24218e+07
1.21563e+07
1.18845e+07
1.16085e+07
1.13327e+07
1.10481e+07
1.07568e+07
1.0463e+07
1.01582e+07
9.8441e+06
9.52346e+06
9.18597e+06
8.8317e+06
8.46787e+06
8.08038e+06
7.6525e+06
7.20588e+06
6.73307e+06
6.21528e+06
5.64438e+06
5.03906e+06
4.42488e+06
3.83819e+06
3.28136e+06
2.75985e+06
2.2912e+06
1.92459e+06
1.60807e+06
1.32974e+06
1.09479e+06
924517
814631
734203
660501
598913
544109
512115
486199
461801
448643
435196
421664
407982
398627
387071
380394
367614
362200
355934
350796
350997
359508
370357
368934
1.34686e+07
1.32098e+07
1.29521e+07
1.26896e+07
1.24233e+07
1.21577e+07
1.1886e+07
1.16102e+07
1.13342e+07
1.10498e+07
1.07587e+07
1.04648e+07
1.01602e+07
9.84631e+06
9.52549e+06
9.18837e+06
8.83464e+06
8.47111e+06
8.08552e+06
7.6612e+06
7.21823e+06
6.7508e+06
6.24063e+06
5.68266e+06
5.09773e+06
4.49946e+06
3.92312e+06
3.38235e+06
2.86685e+06
2.39887e+06
2.0277e+06
1.71306e+06
1.44124e+06
1.20491e+06
1.02155e+06
901953
817439
745054
680567
620594
587842
560764
536980
515253
499856
485277
469121
458095
444002
434125
419277
411812
405075
399492
402578
412487
421355
416854
1.34698e+07
1.32111e+07
1.29533e+07
1.26911e+07
1.24249e+07
1.21592e+07
1.18877e+07
1.16122e+07
1.1336e+07
1.10518e+07
1.0761e+07
1.04669e+07
1.01625e+07
9.8489e+06
9.52798e+06
9.19129e+06
8.83821e+06
8.47512e+06
8.0916e+06
7.67093e+06
7.2321e+06
6.77056e+06
6.26841e+06
5.72387e+06
5.15772e+06
4.5748e+06
4.01076e+06
3.48492e+06
2.97608e+06
2.51032e+06
2.1326e+06
1.82095e+06
1.55471e+06
1.31729e+06
1.12523e+06
991835
902186
832313
765424
703703
665727
635494
610072
585058
567562
551006
532034
518905
501066
488670
473496
464362
456487
450667
459698
468117
474030
465889
1.3471e+07
1.32126e+07
1.29548e+07
1.26926e+07
1.24268e+07
1.21609e+07
1.18896e+07
1.16144e+07
1.13381e+07
1.10539e+07
1.07635e+07
1.04694e+07
1.01651e+07
9.8519e+06
9.53099e+06
9.19475e+06
8.84245e+06
8.48005e+06
8.09861e+06
7.68182e+06
7.24748e+06
6.79226e+06
6.29844e+06
5.7681e+06
5.22012e+06
4.6526e+06
4.10163e+06
3.59104e+06
3.08917e+06
2.6267e+06
2.24105e+06
1.93293e+06
1.67013e+06
1.43389e+06
1.23767e+06
1.08557e+06
991731
920632
855020
791574
748197
714559
687036
659123
638032
618436
596085
580254
560742
547271
531424
520086
519992
515694
520131
526046
527507
517733
1.34725e+07
1.32142e+07
1.29563e+07
1.26944e+07
1.24288e+07
1.21628e+07
1.18917e+07
1.16168e+07
1.13404e+07
1.10564e+07
1.07663e+07
1.04722e+07
1.01682e+07
9.85538e+06
9.53457e+06
9.19887e+06
8.84746e+06
8.48592e+06
8.10673e+06
7.69399e+06
7.2644e+06
6.81604e+06
6.33086e+06
5.81527e+06
5.28504e+06
4.73281e+06
4.19536e+06
3.70121e+06
3.20592e+06
2.74827e+06
2.35328e+06
2.04887e+06
1.78717e+06
1.5553e+06
1.3552e+06
1.18776e+06
1.08575e+06
1.00984e+06
947734
883712
835311
796382
766106
735253
709259
686708
662534
644327
624937
609724
597975
590455
586697
581985
583944
585048
583030
573059
1.34739e+07
1.32159e+07
1.2958e+07
1.26963e+07
1.2431e+07
1.2165e+07
1.1894e+07
1.16194e+07
1.13431e+07
1.10592e+07
1.07695e+07
1.04755e+07
1.01717e+07
9.85937e+06
9.5388e+06
9.20369e+06
8.85332e+06
8.49286e+06
8.11609e+06
7.7075e+06
7.28278e+06
6.84159e+06
6.36555e+06
5.86532e+06
5.35231e+06
4.81519e+06
4.29096e+06
3.8112e+06
3.32577e+06
2.87439e+06
2.46544e+06
2.16852e+06
1.90638e+06
1.68048e+06
1.47715e+06
1.30265e+06
1.18387e+06
1.10232e+06
1.03959e+06
977516
924731
878609
844746
812064
782690
757868
733172
712409
691956
685600
672853
663203
657381
651562
649824
645908
642296
631931
1.34755e+07
1.32177e+07
1.29599e+07
1.26984e+07
1.24334e+07
1.21674e+07
1.18966e+07
1.16224e+07
1.13461e+07
1.10624e+07
1.07731e+07
1.04792e+07
1.01758e+07
9.86396e+06
9.54369e+06
9.20934e+06
8.86012e+06
8.50097e+06
8.12688e+06
7.72269e+06
7.30287e+06
6.86857e+06
6.40145e+06
5.91827e+06
5.42219e+06
4.9001e+06
4.38854e+06
3.91665e+06
3.44855e+06
3.00503e+06
2.59969e+06
2.2907e+06
2.02919e+06
1.80801e+06
1.60376e+06
1.42672e+06
1.28513e+06
1.19978e+06
1.1322e+06
1.06959e+06
1.01339e+06
962997
925790
891956
861071
832700
806840
791609
777064
765106
751614
739926
730890
722964
716196
710246
705375
696175
1.49712e+07
1.47274e+07
1.4483e+07
1.4234e+07
1.39825e+07
1.37313e+07
1.34767e+07
1.32196e+07
1.29619e+07
1.27007e+07
1.24361e+07
1.21701e+07
1.18995e+07
1.16257e+07
1.13494e+07
1.10659e+07
1.07771e+07
1.04835e+07
1.01804e+07
9.86917e+06
9.54937e+06
9.21584e+06
8.86792e+06
8.51034e+06
8.13923e+06
7.73974e+06
7.32532e+06
6.8983e+06
6.44093e+06
5.97415e+06
5.49442e+06
4.98728e+06
4.48781e+06
4.02304e+06
3.57447e+06
3.13818e+06
2.73533e+06
2.41549e+06
2.15575e+06
1.93686e+06
1.73494e+06
1.5555e+06
1.40083e+06
1.3014e+06
1.22889e+06
1.162e+06
1.10383e+06
1.05209e+06
1.01204e+06
976404
942033
923569
900020
879323
862808
849031
833487
818652
804876
794139
784535
778517
776044
771116
1.52152e+07
1.49725e+07
1.4729e+07
1.44841e+07
1.42357e+07
1.39845e+07
1.37331e+07
1.34785e+07
1.32217e+07
1.29641e+07
1.27032e+07
1.24389e+07
1.2173e+07
1.19027e+07
1.16292e+07
1.13531e+07
1.10699e+07
1.07815e+07
1.04881e+07
1.01856e+07
9.87506e+06
9.5558e+06
9.2233e+06
8.87679e+06
8.52097e+06
8.15321e+06
7.7588e+06
7.35026e+06
6.93094e+06
6.48385e+06
6.03304e+06
5.56937e+06
5.07691e+06
4.58958e+06
4.13503e+06
3.70403e+06
3.27473e+06
2.87725e+06
2.54314e+06
2.28627e+06
2.06822e+06
1.87123e+06
1.68977e+06
1.52917e+06
1.40815e+06
1.3317e+06
1.25905e+06
1.20001e+06
1.14666e+06
1.10408e+06
1.07156e+06
1.04459e+06
1.01923e+06
994329
971465
953335
935906
916780
897767
880930
868085
857102
850203
854630
848596
1.54569e+07
1.52159e+07
1.49737e+07
1.47303e+07
1.44853e+07
1.42372e+07
1.39865e+07
1.37349e+07
1.34807e+07
1.32241e+07
1.29666e+07
1.27061e+07
1.24421e+07
1.21763e+07
1.19063e+07
1.16333e+07
1.13572e+07
1.10744e+07
1.07865e+07
1.04935e+07
1.01915e+07
9.88174e+06
9.56315e+06
9.23182e+06
8.88689e+06
8.53306e+06
8.16888e+06
7.77975e+06
7.37766e+06
6.96626e+06
6.53048e+06
6.09505e+06
5.64637e+06
5.16814e+06
4.69304e+06
4.2497e+06
3.83682e+06
3.41427e+06
3.02101e+06
2.67321e+06
2.41969e+06
2.20172e+06
2.01206e+06
1.82845e+06
1.66407e+06
1.51128e+06
1.43528e+06
1.36177e+06
1.29773e+06
1.24658e+06
1.205e+06
1.17928e+06
1.14794e+06
1.11964e+06
1.09266e+06
1.06742e+06
1.04539e+06
1.02256e+06
1.00039e+06
979000
961259
946758
934915
935923
936736
929507
1.56953e+07
1.54577e+07
1.52167e+07
1.49748e+07
1.47315e+07
1.44865e+07
1.42387e+07
1.39884e+07
1.37368e+07
1.34832e+07
1.32269e+07
1.29694e+07
1.27092e+07
1.24457e+07
1.21799e+07
1.19103e+07
1.16377e+07
1.13619e+07
1.10794e+07
1.07921e+07
1.04995e+07
1.01981e+07
9.88924e+06
9.57152e+06
9.24145e+06
8.89834e+06
8.54679e+06
8.1863e+06
7.80258e+06
7.40703e+06
7.00405e+06
6.58047e+06
6.16e+06
5.72599e+06
5.26189e+06
4.79887e+06
4.36678e+06
3.96904e+06
3.55711e+06
3.16939e+06
2.79751e+06
2.55645e+06
2.3376e+06
2.15407e+06
1.97148e+06
1.80727e+06
1.67476e+06
1.56643e+06
1.45818e+06
1.42372e+06
1.37049e+06
1.32661e+06
1.29148e+06
1.25638e+06
1.22433e+06
1.19455e+06
1.16537e+06
1.13756e+06
1.11086e+06
1.08714e+06
1.06465e+06
1.04455e+06
1.02792e+06
1.01491e+06
1.02449e+06
1.02265e+06
1.01374e+06
1.56969e+07
1.54587e+07
1.52178e+07
1.49761e+07
1.47328e+07
1.44878e+07
1.42403e+07
1.39904e+07
1.3739e+07
1.34859e+07
1.323e+07
1.29726e+07
1.27128e+07
1.24495e+07
1.21839e+07
1.19147e+07
1.16426e+07
1.1367e+07
1.10849e+07
1.07983e+07
1.05061e+07
1.02055e+07
9.89765e+06
9.58093e+06
9.25235e+06
8.91124e+06
8.5622e+06
8.20571e+06
7.82771e+06
7.43885e+06
7.04399e+06
6.63383e+06
6.22797e+06
5.80849e+06
5.35825e+06
4.90747e+06
4.48569e+06
4.09506e+06
3.70317e+06
3.3242e+06
2.9703e+06
2.69409e+06
2.47622e+06
2.29307e+06
2.11939e+06
1.95367e+06
1.81411e+06
1.70584e+06
1.61783e+06
1.54963e+06
1.49422e+06
1.44769e+06
1.40758e+06
1.36883e+06
1.33137e+06
1.29756e+06
1.2631e+06
1.23202e+06
1.20377e+06
1.17887e+06
1.15437e+06
1.14341e+06
1.12779e+06
1.11617e+06
1.11691e+06
1.11239e+06
1.10196e+06
1.56983e+07
1.546e+07
1.52192e+07
1.49775e+07
1.47344e+07
1.44894e+07
1.42422e+07
1.39926e+07
1.37415e+07
1.34888e+07
1.32334e+07
1.29762e+07
1.27167e+07
1.24538e+07
1.21885e+07
1.19196e+07
1.1648e+07
1.13728e+07
1.10911e+07
1.08052e+07
1.05136e+07
1.02138e+07
9.90705e+06
9.5916e+06
9.26468e+06
8.9258e+06
8.57959e+06
8.22728e+06
7.85519e+06
7.47319e+06
7.086e+06
6.69045e+06
6.29894e+06
5.89365e+06
5.45707e+06
5.01832e+06
4.60631e+06
4.22163e+06
3.85276e+06
3.48051e+06
3.12973e+06
2.83526e+06
2.61798e+06
2.42996e+06
2.26671e+06
2.10418e+06
1.96278e+06
1.84819e+06
1.74932e+06
1.68199e+06
1.62334e+06
1.57357e+06
1.52587e+06
1.48247e+06
1.43819e+06
1.40048e+06
1.363e+06
1.33119e+06
1.3017e+06
1.27547e+06
1.26008e+06
1.24581e+06
1.22935e+06
1.21628e+06
1.21342e+06
1.2063e+06
1.19435e+06
1.56998e+07
1.54615e+07
1.52208e+07
1.49793e+07
1.47362e+07
1.44912e+07
1.42443e+07
1.39951e+07
1.37443e+07
1.3492e+07
1.32371e+07
1.29801e+07
1.2721e+07
1.24585e+07
1.21934e+07
1.1925e+07
1.16539e+07
1.1379e+07
1.1098e+07
1.08128e+07
1.05219e+07
1.0223e+07
9.91749e+06
9.60343e+06
9.2785e+06
8.94209e+06
8.59896e+06
8.25118e+06
7.88512e+06
7.51024e+06
7.13174e+06
6.7505e+06
6.37298e+06
5.98176e+06
5.55852e+06
5.13182e+06
4.72958e+06
4.35312e+06
4.00195e+06
3.6406e+06
3.29651e+06
2.96534e+06
2.7636e+06
2.57115e+06
2.4073e+06
2.25367e+06
2.11531e+06
1.99543e+06
1.89198e+06
1.81913e+06
1.75462e+06
1.70085e+06
1.64432e+06
1.59502e+06
1.54778e+06
1.50708e+06
1.46822e+06
1.43353e+06
1.40196e+06
1.38337e+06
1.3691e+06
1.35273e+06
1.33522e+06
1.32056e+06
1.31406e+06
1.30456e+06
1.29063e+06
1.57015e+07
1.54633e+07
1.52227e+07
1.49814e+07
1.47384e+07
1.44935e+07
1.4247e+07
1.39981e+07
1.37475e+07
1.34957e+07
1.32412e+07
1.29845e+07
1.27259e+07
1.24638e+07
1.21989e+07
1.19311e+07
1.16606e+07
1.13861e+07
1.11058e+07
1.08213e+07
1.05312e+07
1.02334e+07
9.92924e+06
9.61674e+06
9.29403e+06
8.96045e+06
8.62085e+06
8.27811e+06
7.91871e+06
7.55107e+06
7.18205e+06
6.81467e+06
6.45064e+06
6.07271e+06
5.66221e+06
5.24744e+06
4.85508e+06
4.48688e+06
4.14422e+06
3.80329e+06
3.46934e+06
3.16424e+06
2.90922e+06
2.7164e+06
2.54704e+06
2.39655e+06
2.26544e+06
2.14457e+06
2.03971e+06
1.95535e+06
1.88281e+06
1.82439e+06
1.76414e+06
1.7107e+06
1.66289e+06
1.6196e+06
1.57858e+06
1.55557e+06
1.52651e+06
1.50201e+06
1.48377e+06
1.46457e+06
1.44576e+06
1.42969e+06
1.41952e+06
1.40811e+06
1.39151e+06
1.57034e+07
1.54653e+07
1.52249e+07
1.49838e+07
1.4741e+07
1.44961e+07
1.425e+07
1.40014e+07
1.37511e+07
1.34997e+07
1.32457e+07
1.29893e+07
1.27312e+07
1.24697e+07
1.22051e+07
1.19378e+07
1.16679e+07
1.1394e+07
1.11143e+07
1.08308e+07
1.05416e+07
1.02448e+07
9.94219e+06
9.63144e+06
9.31111e+06
8.98067e+06
8.6449e+06
8.30718e+06
7.95426e+06
7.59406e+06
7.23619e+06
6.88235e+06
6.53151e+06
6.16661e+06
5.76916e+06
5.36556e+06
4.9832e+06
4.62302e+06
4.28873e+06
3.96985e+06
3.64251e+06
3.33486e+06
3.05713e+06
2.86683e+06
2.69291e+06
2.53927e+06
2.40813e+06
2.28818e+06
2.18511e+06
2.09035e+06
2.01039e+06
1.94888e+06
1.88868e+06
1.83222e+06
1.7819e+06
1.73774e+06
1.70622e+06
1.68043e+06
1.65043e+06
1.62444e+06
1.60248e+06
1.58096e+06
1.56062e+06
1.54195e+06
1.5293e+06
1.5164e+06
1.49757e+06
1.57054e+07
1.54675e+07
1.52272e+07
1.49865e+07
1.47438e+07
1.44991e+07
1.42533e+07
1.40051e+07
1.3755e+07
1.35042e+07
1.32505e+07
1.29945e+07
1.2737e+07
1.2476e+07
1.22118e+07
1.19451e+07
1.1676e+07
1.14028e+07
1.11239e+07
1.08413e+07
1.05531e+07
1.02577e+07
9.95656e+06
9.64764e+06
9.32985e+06
9.00275e+06
8.67122e+06
8.33908e+06
7.99246e+06
7.63935e+06
7.29404e+06
6.95352e+06
6.61558e+06
6.26352e+06
5.87847e+06
5.48719e+06
5.11487e+06
4.76319e+06
4.43592e+06
4.13462e+06
3.82002e+06
3.51943e+06
3.25595e+06
3.00453e+06
2.84428e+06
2.68707e+06
2.55105e+06
2.42987e+06
2.32494e+06
2.22782e+06
2.14401e+06
2.07916e+06
2.01808e+06
1.95813e+06
1.91908e+06
1.86653e+06
1.83953e+06
1.81099e+06
1.7794e+06
1.751e+06
1.72579e+06
1.70224e+06
1.68011e+06
1.65876e+06
1.64323e+06
1.62801e+06
1.60664e+06
1.57079e+07
1.547e+07
1.523e+07
1.49896e+07
1.47472e+07
1.45026e+07
1.42573e+07
1.40095e+07
1.37596e+07
1.35092e+07
1.32561e+07
1.30004e+07
1.27435e+07
1.24831e+07
1.22194e+07
1.19534e+07
1.1685e+07
1.14125e+07
1.11345e+07
1.08531e+07
1.05659e+07
1.02719e+07
9.97258e+06
9.66561e+06
9.35035e+06
9.02653e+06
8.69948e+06
8.37359e+06
8.0343e+06
7.68878e+06
7.35657e+06
7.02896e+06
6.70361e+06
6.36355e+06
5.99037e+06
5.61047e+06
5.24811e+06
4.90483e+06
4.58449e+06
4.28877e+06
3.99531e+06
3.70466e+06
3.44132e+06
3.21308e+06
2.99687e+06
2.8399e+06
2.70007e+06
2.57581e+06
2.46705e+06
2.37111e+06
2.2853e+06
2.21865e+06
2.15819e+06
2.10895e+06
2.06157e+06
2.01712e+06
1.97972e+06
1.94738e+06
1.91379e+06
1.88315e+06
1.85548e+06
1.82975e+06
1.80568e+06
1.78198e+06
1.76215e+06
1.74197e+06
1.71548e+06
1.57105e+07
1.54729e+07
1.5233e+07
1.4993e+07
1.47509e+07
1.45065e+07
1.42616e+07
1.40142e+07
1.37647e+07
1.35148e+07
1.32622e+07
1.30069e+07
1.27505e+07
1.24908e+07
1.22277e+07
1.19624e+07
1.1695e+07
1.14232e+07
1.11463e+07
1.08661e+07
1.05802e+07
1.02878e+07
9.99045e+06
9.68574e+06
9.3733e+06
9.05303e+06
8.73028e+06
8.41031e+06
8.0782e+06
7.74257e+06
7.42307e+06
7.108e+06
6.79486e+06
6.46661e+06
6.10518e+06
5.7364e+06
5.38403e+06
5.04915e+06
4.73503e+06
4.44163e+06
4.16279e+06
3.89216e+06
3.63272e+06
3.39809e+06
3.19307e+06
2.99418e+06
2.85409e+06
2.72888e+06
2.61702e+06
2.5155e+06
2.42651e+06
2.35506e+06
2.31766e+06
2.26288e+06
2.21238e+06
2.16531e+06
2.12432e+06
2.08901e+06
2.05343e+06
2.02052e+06
1.99045e+06
1.96231e+06
1.93628e+06
1.91013e+06
1.88562e+06
1.85916e+06
1.8267e+06
1.57134e+07
1.54761e+07
1.52364e+07
1.49968e+07
1.4755e+07
1.45109e+07
1.42665e+07
1.40196e+07
1.37704e+07
1.35209e+07
1.32688e+07
1.3014e+07
1.27583e+07
1.24993e+07
1.22368e+07
1.19723e+07
1.17058e+07
1.1435e+07
1.11591e+07
1.08803e+07
1.0596e+07
1.03053e+07
1.00102e+07
9.70809e+06
9.39878e+06
9.08242e+06
8.76435e+06
8.45029e+06
8.12504e+06
7.80081e+06
7.49373e+06
7.19105e+06
6.88975e+06
6.57287e+06
6.22304e+06
5.86525e+06
5.52273e+06
5.19628e+06
4.8885e+06
4.5999e+06
4.3287e+06
4.07734e+06
3.82727e+06
3.59348e+06
3.3844e+06
3.19766e+06
3.01049e+06
2.87082e+06
2.76364e+06
2.69441e+06
2.61062e+06
2.54085e+06
2.48169e+06
2.42339e+06
2.3688e+06
2.31812e+06
2.27443e+06
2.23659e+06
2.19887e+06
2.16348e+06
2.13103e+06
2.10027e+06
2.07219e+06
2.04349e+06
2.01499e+06
1.98194e+06
1.94423e+06
1.57167e+07
1.54796e+07
1.52402e+07
1.50009e+07
1.47596e+07
1.45159e+07
1.42718e+07
1.40254e+07
1.37767e+07
1.35277e+07
1.32762e+07
1.3022e+07
1.27668e+07
1.25085e+07
1.22468e+07
1.19831e+07
1.17177e+07
1.1448e+07
1.11733e+07
1.0896e+07
1.06134e+07
1.03246e+07
1.0032e+07
9.73279e+06
9.42692e+06
9.11479e+06
8.80194e+06
8.49424e+06
8.17554e+06
7.86352e+06
7.56854e+06
7.27778e+06
6.98802e+06
6.68228e+06
6.34378e+06
5.9968e+06
5.66404e+06
5.34602e+06
5.04486e+06
4.76218e+06
4.49689e+06
4.25165e+06
4.01847e+06
3.79169e+06
3.58252e+06
3.39371e+06
3.23495e+06
3.09407e+06
2.97313e+06
2.87535e+06
2.78808e+06
2.7145e+06
2.6527e+06
2.58914e+06
2.53099e+06
2.47745e+06
2.43034e+06
2.39013e+06
2.35007e+06
2.31213e+06
2.27721e+06
2.24381e+06
2.21388e+06
2.18318e+06
2.15225e+06
2.10999e+06
2.06712e+06
1.57202e+07
1.54834e+07
1.52443e+07
1.50055e+07
1.47645e+07
1.45211e+07
1.42777e+07
1.40317e+07
1.37835e+07
1.35351e+07
1.32842e+07
1.30305e+07
1.27761e+07
1.25185e+07
1.22576e+07
1.19949e+07
1.17306e+07
1.14621e+07
1.11888e+07
1.0913e+07
1.06323e+07
1.03457e+07
1.00555e+07
9.75935e+06
9.45717e+06
9.14946e+06
8.84209e+06
8.54123e+06
8.23067e+06
7.93044e+06
7.6473e+06
7.36802e+06
7.08944e+06
6.79486e+06
6.46746e+06
6.13115e+06
5.80812e+06
5.49842e+06
5.20419e+06
4.92762e+06
4.66712e+06
4.42333e+06
4.19936e+06
3.98765e+06
3.78525e+06
3.59455e+06
3.42717e+06
3.28402e+06
3.16057e+06
3.06181e+06
2.97404e+06
2.89667e+06
2.82668e+06
2.76055e+06
2.69929e+06
2.64291e+06
2.59187e+06
2.54944e+06
2.50673e+06
2.46625e+06
2.42832e+06
2.39166e+06
2.35868e+06
2.32491e+06
2.29144e+06
2.24158e+06
2.19466e+06
1.57243e+07
1.54878e+07
1.5249e+07
1.50106e+07
1.47701e+07
1.45271e+07
1.42842e+07
1.40389e+07
1.37911e+07
1.35434e+07
1.32932e+07
1.30401e+07
1.27865e+07
1.25298e+07
1.22697e+07
1.20081e+07
1.17449e+07
1.14777e+07
1.12059e+07
1.0932e+07
1.06533e+07
1.03691e+07
1.00819e+07
9.78904e+06
9.49084e+06
9.18787e+06
8.88623e+06
8.59228e+06
8.29169e+06
8.00302e+06
7.73124e+06
7.4632e+06
7.19539e+06
6.91124e+06
6.59456e+06
6.2687e+06
5.95521e+06
5.65395e+06
5.3668e+06
5.09645e+06
4.84062e+06
4.60022e+06
4.37818e+06
4.17437e+06
3.9864e+06
3.80019e+06
3.63329e+06
3.48834e+06
3.35784e+06
3.255e+06
3.16592e+06
3.08481e+06
3.00882e+06
2.93974e+06
2.87533e+06
2.81614e+06
2.7613e+06
2.71628e+06
2.671e+06
2.6278e+06
2.58707e+06
2.54574e+06
2.50569e+06
2.46513e+06
2.42603e+06
2.37708e+06
2.32882e+06
1.57287e+07
1.54926e+07
1.52541e+07
1.50163e+07
1.47762e+07
1.45336e+07
1.42914e+07
1.40467e+07
1.37995e+07
1.35525e+07
1.3303e+07
1.30506e+07
1.27979e+07
1.25421e+07
1.22831e+07
1.20225e+07
1.17607e+07
1.14948e+07
1.12246e+07
1.09525e+07
1.06758e+07
1.03941e+07
1.01099e+07
9.82047e+06
9.52639e+06
9.22833e+06
8.93279e+06
8.64613e+06
8.35679e+06
8.07969e+06
7.81907e+06
7.56187e+06
7.3046e+06
7.03079e+06
6.72462e+06
6.40902e+06
6.10499e+06
5.81211e+06
5.53212e+06
5.26804e+06
5.017e+06
4.78036e+06
4.56096e+06
4.35816e+06
4.17658e+06
4.00459e+06
3.84295e+06
3.69533e+06
3.55781e+06
3.45335e+06
3.36179e+06
3.27647e+06
3.1973e+06
3.1241e+06
3.05814e+06
2.99583e+06
2.93657e+06
2.88922e+06
2.84161e+06
2.7957e+06
2.75246e+06
2.70693e+06
2.65546e+06
2.60701e+06
2.56221e+06
2.5157e+06
2.46736e+06
1.57336e+07
1.54977e+07
1.52597e+07
1.50224e+07
1.47827e+07
1.45407e+07
1.42991e+07
1.4055e+07
1.38085e+07
1.35624e+07
1.33136e+07
1.30621e+07
1.28104e+07
1.25556e+07
1.22976e+07
1.20384e+07
1.17779e+07
1.15136e+07
1.12451e+07
1.09748e+07
1.07003e+07
1.04212e+07
1.01399e+07
9.85415e+06
9.56439e+06
9.27128e+06
8.98208e+06
8.7028e+06
8.42606e+06
8.16038e+06
7.9107e+06
7.66409e+06
7.41705e+06
7.15352e+06
6.85771e+06
6.55219e+06
6.2575e+06
5.97288e+06
5.70015e+06
5.44232e+06
5.19619e+06
4.96356e+06
4.74694e+06
4.54594e+06
4.3635e+06
4.19778e+06
4.04824e+06
3.9034e+06
3.76734e+06
3.65089e+06
3.55727e+06
3.47173e+06
3.38797e+06
3.31036e+06
3.2413e+06
3.17803e+06
3.11788e+06
3.0646e+06
3.01337e+06
2.9642e+06
2.91792e+06
2.86948e+06
2.80893e+06
2.75438e+06
2.70649e+06
2.65907e+06
2.6103e+06
1.57392e+07
1.55038e+07
1.52661e+07
1.50294e+07
1.47902e+07
1.45487e+07
1.43079e+07
1.40645e+07
1.38188e+07
1.35735e+07
1.33256e+07
1.30749e+07
1.28243e+07
1.25706e+07
1.23137e+07
1.20559e+07
1.1797e+07
1.15344e+07
1.12678e+07
1.09999e+07
1.07279e+07
1.04516e+07
1.01737e+07
9.89161e+06
9.60619e+06
9.31813e+06
9.03554e+06
8.76601e+06
8.5017e+06
8.24718e+06
8.00807e+06
7.77175e+06
7.53457e+06
7.28063e+06
6.99478e+06
6.6991e+06
6.41355e+06
6.13727e+06
5.87181e+06
5.62026e+06
5.3793e+06
5.15084e+06
4.93727e+06
4.73835e+06
4.5555e+06
4.38929e+06
4.24095e+06
4.10255e+06
3.97575e+06
3.84855e+06
3.7469e+06
3.66547e+06
3.57555e+06
3.49389e+06
3.42127e+06
3.35744e+06
3.30114e+06
3.2384e+06
3.18106e+06
3.12858e+06
3.07766e+06
3.0256e+06
2.96586e+06
2.90939e+06
2.85918e+06
2.81029e+06
2.76078e+06
1.57454e+07
1.55104e+07
1.52732e+07
1.50371e+07
1.47986e+07
1.45577e+07
1.43177e+07
1.40751e+07
1.38301e+07
1.35859e+07
1.33389e+07
1.30892e+07
1.28397e+07
1.25873e+07
1.23317e+07
1.20754e+07
1.18182e+07
1.15574e+07
1.12929e+07
1.10274e+07
1.0758e+07
1.04848e+07
1.02104e+07
9.93233e+06
9.65156e+06
9.36861e+06
9.09406e+06
8.83564e+06
8.58322e+06
8.33965e+06
8.11098e+06
7.88469e+06
7.65721e+06
7.41292e+06
7.13697e+06
6.85108e+06
6.57471e+06
6.30672e+06
6.04863e+06
5.80352e+06
5.56786e+06
5.3438e+06
5.13341e+06
4.93671e+06
4.7536e+06
4.58707e+06
4.43566e+06
4.2991e+06
4.17206e+06
4.04705e+06
3.93715e+06
3.84963e+06
3.76161e+06
3.67863e+06
3.60415e+06
3.53717e+06
3.47612e+06
3.41199e+06
3.35131e+06
3.29503e+06
3.24014e+06
3.18479e+06
3.12791e+06
3.07124e+06
3.01955e+06
2.96916e+06
2.91876e+06
1.5752e+07
1.55176e+07
1.5281e+07
1.50456e+07
1.48077e+07
1.45676e+07
1.43284e+07
1.40867e+07
1.38425e+07
1.35992e+07
1.33533e+07
1.31047e+07
1.28565e+07