/*--------------------------------*- C++ -*----------------------------------*\
| =========                 |                                                 |
| \\      /  F ield         | OpenFOAM: The Open Source CFD Toolbox           |
|  \\    /   O peration     | Version:  v2012                                 |
|   \\  /    A nd           | Website:  www.openfoam.com                      |
|    \\/     M anipulation  |                                                 |
\*---------------------------------------------------------------------------*/
FoamFile
{
    version     2.0;
    format      ascii;
    class       volScalarField;
    location    "1e-06";
    object      pPrime2Mean;
}
// * * * * * * * * * * * * * * * * * * * * * * * * * * * * * * * * * * * * * //

dimensions      [2 -2 -4 0 0 0 0];


internalField   nonuniform List<scalar> 
10295
(
8.92911e+14
8.51013e+14
8.10365e+14
7.70013e+14
7.3e+14
6.91238e+14
6.52654e+14
6.14458e+14
5.77523e+14
5.40725e+14
5.04092e+14
4.68516e+14
4.33166e+14
3.98043e+14
3.64741e+14
3.33074e+14
3.02551e+14
2.7383e+14
2.39303e+14
1.96382e+14
1.59823e+14
1.27301e+14
9.52362e+13
6.42968e+13
3.46895e+13
1.80907e+13
1.8602e+13
1.00296e+13
6.59551e+12
4.92374e+12
1.6174e+12
9.06302e+11
1.41403e+11
3.41588e+08
1.07666e+08
5.49414e+07
4.00256e+07
3.02227e+07
2.57599e+07
2.18823e+07
1.96071e+07
1.93452e+07
1.77735e+07
1.88128e+07
1.94118e+07
1.86315e+07
1.88661e+07
1.66243e+07
1.87058e+07
1.97909e+07
1.87486e+07
1.97558e+07
2.30351e+07
2.53128e+07
3.37233e+07
3.3464e+07
3.59285e+07
3.07469e+07
8.92907e+14
8.51011e+14
8.10361e+14
7.7001e+14
7.29997e+14
6.91235e+14
6.52651e+14
6.14458e+14
5.77522e+14
5.40726e+14
5.04093e+14
4.68517e+14
4.33041e+14
3.9798e+14
3.64677e+14
3.32782e+14
3.02079e+14
2.72395e+14
2.37397e+14
1.952e+14
1.59824e+14
1.27308e+14
9.52593e+13
6.43927e+13
3.52226e+13
1.85713e+13
1.75882e+13
1.04555e+13
6.51938e+12
5.1283e+12
1.78987e+12
8.53577e+11
1.88699e+11
4.34821e+09
5.33981e+08
2.09864e+07
1.33994e+07
6.81751e+06
2.9114e+06
1.56206e+06
1.71679e+06
1.97571e+06
2.38564e+06
2.55302e+06
2.96805e+06
3.00947e+06
3.10267e+06
2.91292e+06
3.4114e+06
3.86763e+06
3.73177e+06
3.91109e+06
5.10053e+06
5.43078e+06
7.00115e+06
6.44567e+06
5.43721e+06
4.56168e+06
8.92911e+14
8.51018e+14
8.10367e+14
7.70014e+14
7.30005e+14
6.91242e+14
6.52656e+14
6.14467e+14
5.77531e+14
5.40729e+14
5.04102e+14
4.68524e+14
4.33043e+14
3.9798e+14
3.64565e+14
3.32421e+14
3.01298e+14
2.70874e+14
2.35478e+14
1.94244e+14
1.59824e+14
1.27339e+14
9.53344e+13
6.45656e+13
3.58111e+13
1.90116e+13
1.66152e+13
1.09657e+13
6.47099e+12
4.91788e+12
2.03607e+12
8.08312e+11
2.31416e+11
2.4995e+10
7.17731e+09
1.39513e+09
7.71546e+08
4.36269e+08
2.0092e+08
2.89893e+07
6.34395e+06
2.6837e+06
1.00561e+06
594327
563445
598495
861387
962706
1.48877e+06
1.42818e+06
1.71631e+06
1.91546e+06
2.08192e+06
2.92514e+06
3.98607e+06
2.37661e+06
2.23587e+06
1.77086e+06
8.92922e+14
8.51033e+14
8.1038e+14
7.70023e+14
7.30021e+14
6.91257e+14
6.52667e+14
6.14486e+14
5.77548e+14
5.40737e+14
5.04117e+14
4.68536e+14
4.33055e+14
3.97987e+14
3.64429e+14
3.32005e+14
3.00301e+14
2.69296e+14
2.33583e+14
1.93615e+14
1.59843e+14
1.27406e+14
9.54688e+13
6.48247e+13
3.64324e+13
1.94927e+13
1.58637e+13
1.14899e+13
6.51153e+12
4.67582e+12
2.33091e+12
8.30524e+11
2.60454e+11
6.99588e+10
2.69104e+10
9.61396e+09
4.19682e+09
3.14723e+09
2.07943e+09
1.1102e+09
6.3888e+08
2.87511e+08
1.18024e+08
6.14019e+07
5.38803e+07
2.87833e+07
1.61739e+07
5.81894e+06
3.64541e+06
4.93252e+06
1.43004e+06
1.33786e+06
1.20714e+06
596990
1.44009e+06
9.15984e+06
1.4677e+08
1.27565e+08
8.92943e+14
8.51058e+14
8.10402e+14
7.70042e+14
7.30047e+14
6.91281e+14
6.52688e+14
6.14514e+14
5.77573e+14
5.40752e+14
5.04141e+14
4.68555e+14
4.33074e+14
3.97999e+14
3.64292e+14
3.31484e+14
2.99201e+14
2.67669e+14
2.31721e+14
1.93504e+14
1.59892e+14
1.27513e+14
9.56645e+13
6.51707e+13
3.71274e+13
2.00414e+13
1.53221e+13
1.16272e+13
6.66364e+12
4.52899e+12
2.63171e+12
9.27077e+11
3.13211e+11
1.36609e+11
6.44961e+10
2.95674e+10
8.31991e+09
9.7434e+09
7.45173e+09
5.18566e+09
3.55917e+09
2.34771e+09
1.42627e+09
1.00057e+09
8.99905e+08
6.71983e+08
5.2575e+08
4.04087e+08
2.72906e+08
2.98674e+08
1.62912e+08
1.54063e+08
1.39956e+08
7.55755e+07
1.53161e+08
4.76342e+08
1.17795e+09
1.08275e+09
8.92974e+14
8.51094e+14
8.10434e+14
7.7007e+14
7.30083e+14
6.91313e+14
6.52718e+14
6.14553e+14
5.77606e+14
5.40774e+14
5.04172e+14
4.6858e+14
4.33099e+14
3.98018e+14
3.64135e+14
3.30876e+14
2.98002e+14
2.65982e+14
2.29872e+14
1.93514e+14
1.59975e+14
1.27663e+14
9.59205e+13
6.55995e+13
3.79273e+13
2.06886e+13
1.49744e+13
1.14532e+13
6.93609e+12
4.47673e+12
2.66929e+12
1.0989e+12
4.04116e+11
1.6799e+11
1.26259e+11
6.58938e+10
2.41986e+10
1.60728e+10
1.83635e+10
1.39727e+10
1.05235e+10
8.04894e+09
5.67882e+09
4.49262e+09
3.90654e+09
3.20747e+09
2.70703e+09
2.31546e+09
1.63631e+09
1.69311e+09
1.13528e+09
1.09446e+09
9.11904e+08
4.84326e+08
1.52212e+09
2.75816e+09
4.28231e+09
4.0929e+09
8.93014e+14
8.51141e+14
8.10475e+14
7.70107e+14
7.3013e+14
6.91355e+14
6.52758e+14
6.14603e+14
5.77648e+14
5.40806e+14
5.04214e+14
4.68614e+14
4.33132e+14
3.98045e+14
3.64003e+14
3.30312e+14
2.96816e+14
2.6427e+14
2.28539e+14
1.93554e+14
1.60093e+14
1.27862e+14
9.62381e+13
6.6109e+13
3.88029e+13
2.14139e+13
1.48099e+13
1.1227e+13
7.32812e+12
4.52426e+12
2.66334e+12
1.3506e+12
5.39665e+11
2.19385e+11
2.09485e+11
1.22859e+11
5.75049e+10
2.68789e+10
3.52586e+10
2.92989e+10
2.31231e+10
1.87933e+10
1.43957e+10
1.20788e+10
1.02818e+10
8.82652e+09
7.66795e+09
6.78323e+09
5.11865e+09
5.16061e+09
3.59368e+09
3.44543e+09
1.98013e+09
2.7462e+09
5.58866e+09
8.11196e+09
1.01811e+10
9.84217e+09
8.93065e+14
8.51199e+14
8.10529e+14
7.70156e+14
7.30188e+14
6.91407e+14
6.52809e+14
6.14664e+14
5.777e+14
5.40847e+14
5.04265e+14
4.68657e+14
4.33174e+14
3.98081e+14
3.63941e+14
3.29817e+14
2.95821e+14
2.62566e+14
2.28172e+14
1.93631e+14
1.60253e+14
1.28113e+14
9.66183e+13
6.6697e+13
3.9751e+13
2.22227e+13
1.48221e+13
1.11375e+13
7.84152e+12
4.67229e+12
2.7216e+12
1.6665e+12
7.24897e+11
3.09705e+11
2.37986e+11
2.05416e+11
1.10931e+11
5.52069e+10
4.11649e+10
5.29389e+10
4.31128e+10
3.60272e+10
2.88704e+10
2.492e+10
2.1269e+10
1.87197e+10
1.64989e+10
1.49377e+10
1.12406e+10
1.11019e+10
5.32204e+09
5.0659e+09
6.39317e+09
8.66209e+09
1.36901e+10
1.77708e+10
1.27933e+10
1.1879e+10
8.93126e+14
8.5127e+14
8.10594e+14
7.70215e+14
7.3026e+14
6.91471e+14
6.52871e+14
6.14739e+14
5.77764e+14
5.409e+14
5.04327e+14
4.68711e+14
4.33226e+14
3.9813e+14
3.63939e+14
3.29537e+14
2.95205e+14
2.61741e+14
2.28204e+14
1.93746e+14
1.60458e+14
1.28425e+14
9.7068e+13
6.73564e+13
4.07807e+13
2.31232e+13
1.50029e+13
1.11377e+13
8.47988e+12
4.9274e+12
2.84519e+12
1.8206e+12
9.69225e+11
4.46788e+11
2.84106e+11
3.18496e+11
1.88865e+11
1.06269e+11
5.98627e+10
7.83055e+10
6.99753e+10
5.99494e+10
5.09936e+10
4.47447e+10
3.7214e+10
3.31997e+10
2.95052e+10
2.70435e+10
1.38977e+10
1.32152e+10
1.14135e+10
1.19921e+10
1.64955e+10
1.97732e+10
2.74847e+10
3.21782e+10
1.95218e+10
1.93007e+10
8.932e+14
8.51356e+14
8.10671e+14
7.70288e+14
7.30345e+14
6.91548e+14
6.52946e+14
6.14826e+14
5.77841e+14
5.40965e+14
5.04403e+14
4.68779e+14
4.3329e+14
3.98193e+14
3.63964e+14
3.29527e+14
2.95224e+14
2.61765e+14
2.28265e+14
1.93899e+14
1.60713e+14
1.28801e+14
9.76008e+13
6.80949e+13
4.18889e+13
2.41178e+13
1.5343e+13
1.12234e+13
9.21574e+12
5.30017e+12
3.04591e+12
1.91299e+12
1.28195e+12
6.35457e+11
3.68946e+11
4.44475e+11
2.98348e+11
1.83137e+11
1.03843e+11
8.24831e+10
7.35878e+10
6.60995e+10
8.00488e+10
7.09315e+10
4.1319e+10
3.64419e+10
3.23835e+10
2.93788e+10
2.3001e+10
2.34538e+10
2.49673e+10
2.70295e+10
3.39426e+10
3.79705e+10
4.74098e+10
3.49066e+10
3.26562e+10
3.42812e+10
8.93285e+14
8.51456e+14
8.10763e+14
7.70375e+14
7.30446e+14
6.9164e+14
6.53035e+14
6.1493e+14
5.77931e+14
5.41045e+14
5.04494e+14
4.6886e+14
4.33367e+14
3.98273e+14
3.64008e+14
3.29565e+14
2.9526e+14
2.61807e+14
2.28323e+14
1.94091e+14
1.61021e+14
1.29247e+14
9.82266e+13
6.89442e+13
4.31161e+13
2.524e+13
1.58502e+13
1.13971e+13
9.6169e+12
5.80545e+12
3.33914e+12
2.04418e+12
1.66728e+12
8.83919e+11
5.04668e+11
4.59052e+11
4.46325e+11
2.92199e+11
1.8003e+11
1.15835e+11
9.56401e+10
8.41109e+10
8.22094e+10
7.23764e+10
5.62496e+10
5.15708e+10
4.67123e+10
4.43088e+10
4.38134e+10
4.61652e+10
4.89461e+10
5.28032e+10
6.16653e+10
6.46515e+10
5.05437e+10
4.5731e+10
5.42527e+10
5.84413e+10
8.93383e+14
8.51572e+14
8.10869e+14
7.70476e+14
7.30562e+14
6.91745e+14
6.53139e+14
6.1505e+14
5.78036e+14
5.41139e+14
5.04601e+14
4.68957e+14
4.3346e+14
3.98368e+14
3.64072e+14
3.29633e+14
2.95344e+14
2.61871e+14
2.28472e+14
1.94337e+14
1.61387e+14
1.29767e+14
9.89442e+13
6.98919e+13
4.44404e+13
2.64659e+13
1.65154e+13
1.16657e+13
9.95643e+12
6.44679e+12
3.72528e+12
2.24427e+12
1.93917e+12
1.20128e+12
6.98121e+11
5.09979e+11
5.89027e+11
4.41301e+11
2.90863e+11
1.89867e+11
1.50442e+11
1.29528e+11
1.05274e+11
9.57403e+10
9.11345e+10
8.61459e+10
7.93811e+10
7.75371e+10
7.91006e+10
8.32196e+10
8.62943e+10
9.20163e+10
9.99047e+10
6.92336e+10
6.36622e+10
6.88298e+10
8.63367e+10
9.37169e+10
8.93495e+14
8.51701e+14
8.10989e+14
7.70593e+14
7.30695e+14
6.91866e+14
6.5326e+14
6.15186e+14
5.78157e+14
5.41252e+14
5.04726e+14
4.69071e+14
4.3357e+14
3.98482e+14
3.64156e+14
3.29721e+14
2.95456e+14
2.62011e+14
2.28652e+14
1.9464e+14
1.61816e+14
1.30363e+14
9.97572e+13
7.094e+13
4.58607e+13
2.77976e+13
1.73374e+13
1.20358e+13
1.02529e+13
7.23095e+12
4.21119e+12
2.52497e+12
2.05139e+12
1.59889e+12
9.52564e+11
6.25198e+11
6.0823e+11
6.36864e+11
4.42205e+11
3.06744e+11
2.42924e+11
2.07262e+11
1.61888e+11
1.48852e+11
1.50426e+11
1.42431e+11
1.32196e+11
1.30547e+11
1.32126e+11
1.37912e+11
1.37146e+11
1.44217e+11
1.03165e+11
8.46043e+10
9.11962e+10
1.05125e+11
1.31981e+11
1.40331e+11
8.93621e+14
8.51847e+14
8.11124e+14
7.70728e+14
7.30845e+14
6.92002e+14
6.53399e+14
6.15341e+14
5.78296e+14
5.41385e+14
5.04872e+14
4.69205e+14
4.33702e+14
3.98617e+14
3.64261e+14
3.29831e+14
2.95587e+14
2.62163e+14
2.28875e+14
1.94998e+14
1.62309e+14
1.31036e+14
1.00662e+14
7.21017e+13
4.73883e+13
2.92368e+13
1.83185e+13
1.25161e+13
1.04903e+13
8.16785e+12
4.81582e+12
2.90176e+12
2.19232e+12
2.08514e+12
1.27998e+12
8.14781e+11
6.65777e+11
8.54387e+11
6.45029e+11
4.67669e+11
3.74731e+11
3.19383e+11
2.54115e+11
2.33101e+11
2.36583e+11
2.25222e+11
2.09445e+11
2.07489e+11
2.03423e+11
2.11359e+11
1.44209e+11
1.44189e+11
1.21545e+11
1.18113e+11
1.34832e+11
1.5742e+11
1.92094e+11
1.47774e+11
8.93764e+14
8.52008e+14
8.11277e+14
7.70884e+14
7.31014e+14
6.92158e+14
6.53559e+14
6.15517e+14
5.78455e+14
5.41541e+14
5.0504e+14
4.69361e+14
4.33857e+14
3.98776e+14
3.64392e+14
3.29967e+14
2.95744e+14
2.62342e+14
2.29141e+14
1.95413e+14
1.62871e+14
1.31787e+14
1.01655e+14
7.33348e+13
4.90236e+13
3.07812e+13
1.94192e+13
1.31145e+13
1.07068e+13
9.26058e+12
5.5547e+12
3.38501e+12
2.41328e+12
2.57205e+12
1.69773e+12
1.08311e+12
7.94245e+11
8.53808e+11
9.01965e+11
6.8088e+11
5.52513e+11
4.72836e+11
3.8804e+11
3.53788e+11
3.55715e+11
3.41301e+11
3.11103e+11
3.07002e+11
2.11979e+11
2.08686e+11
1.66214e+11
1.66304e+11
1.62548e+11
1.73059e+11
1.97749e+11
2.30431e+11
2.09929e+11
1.64639e+11
8.93923e+14
8.52186e+14
8.11446e+14
7.7106e+14
7.31204e+14
6.92332e+14
6.53741e+14
6.15715e+14
5.78635e+14
5.41722e+14
5.05234e+14
4.69541e+14
4.3404e+14
3.98963e+14
3.64552e+14
3.30136e+14
2.95936e+14
2.62559e+14
2.29457e+14
1.95891e+14
1.63507e+14
1.32625e+14
1.02748e+14
7.4722e+13
5.07799e+13
3.24341e+13
2.05924e+13
1.38416e+13
1.10182e+13
1.04018e+13
6.44307e+12
3.97545e+12
2.72545e+12
2.66987e+12
2.21702e+12
1.43646e+12
1.00838e+12
8.9567e+11
1.10188e+12
9.58206e+11
7.89021e+11
6.79574e+11
5.74804e+11
5.11251e+11
5.0575e+11
4.72871e+11
3.19915e+11
3.02054e+11
2.38886e+11
2.34333e+11
2.14751e+11
2.19563e+11
2.28411e+11
2.51005e+11
2.85232e+11
3.23657e+11
2.27175e+11
2.00378e+11
8.941e+14
8.52382e+14
8.11633e+14
7.71259e+14
7.31416e+14
6.92527e+14
6.53948e+14
6.15938e+14
5.7884e+14
5.41931e+14
5.05457e+14
4.6975e+14
4.34255e+14
3.99182e+14
3.64748e+14
3.30345e+14
2.9617e+14
2.62823e+14
2.2983e+14
1.9644e+14
1.64229e+14
1.33557e+14
1.03943e+14
7.62606e+13
5.26558e+13
3.42023e+13
2.18795e+13
1.4706e+13
1.14506e+13
1.09983e+13
7.48852e+12
4.68324e+12
3.14662e+12
2.77709e+12
2.8366e+12
1.89123e+12
1.31885e+12
1.0328e+12
1.08694e+12
1.28397e+12
1.07315e+12
9.29443e+11
8.03309e+11
5.31916e+11
5.00846e+11
4.61789e+11
3.53238e+11
3.33065e+11
3.0049e+11
3.00131e+11
2.94064e+11
3.04602e+11
3.23648e+11
3.56904e+11
3.99735e+11
3.25024e+11
2.64976e+11
2.58066e+11
8.94295e+14
8.52598e+14
8.11839e+14
7.71481e+14
7.31652e+14
6.92745e+14
6.54181e+14
6.16189e+14
5.7907e+14
5.42171e+14
5.05712e+14
4.6999e+14
4.34504e+14
3.99439e+14
3.64983e+14
3.30599e+14
2.96454e+14
2.6314e+14
2.30269e+14
1.97069e+14
1.65048e+14
1.34602e+14
1.05256e+14
7.79527e+13
5.46641e+13
3.60959e+13
2.33362e+13
1.57218e+13
1.20074e+13
1.15036e+13
8.70481e+12
5.53341e+12
3.6963e+12
2.99711e+12
3.22612e+12
2.46472e+12
1.72601e+12
1.28273e+12
1.14628e+12
1.29017e+12
1.07368e+12
9.15597e+11
7.80211e+11
5.74307e+11
5.3583e+11
4.99886e+11
4.3292e+11
4.17616e+11
4.04377e+11
4.07497e+11
4.10001e+11
4.26182e+11
4.55978e+11
4.99737e+11
4.52083e+11
3.49976e+11
3.28762e+11
3.39409e+11
8.94506e+14
8.5283e+14
8.12066e+14
7.71725e+14
7.31912e+14
6.92989e+14
6.54441e+14
6.16467e+14
5.79332e+14
5.42442e+14
5.06e+14
4.70267e+14
4.34792e+14
3.99737e+14
3.65265e+14
3.30905e+14
2.96793e+14
2.63522e+14
2.30782e+14
1.97784e+14
1.65974e+14
1.35776e+14
1.06711e+14
7.9795e+13
5.67787e+13
3.8099e+13
2.49497e+13
1.68834e+13
1.26878e+13
1.21205e+13
1.00916e+13
6.53855e+12
4.38249e+12
3.33615e+12
3.49628e+12
3.16201e+12
2.24221e+12
1.6555e+12
1.33417e+12
1.27469e+12
1.09354e+12
9.46771e+11
8.21194e+11
6.7873e+11
6.39611e+11
6.08154e+11
5.66245e+11
5.57458e+11
5.51765e+11
5.5872e+11
5.69293e+11
5.91079e+11
6.21761e+11
6.66506e+11
4.68857e+11
4.08085e+11
4.21298e+11
4.46208e+11
8.94735e+14
8.53083e+14
8.12316e+14
7.71993e+14
7.32199e+14
6.93265e+14
6.54731e+14
6.16778e+14
5.79629e+14
5.42748e+14
5.06326e+14
4.70586e+14
4.3512e+14
4.00082e+14
3.65602e+14
3.31267e+14
2.972e+14
2.63979e+14
2.31374e+14
1.98588e+14
1.67008e+14
1.3708e+14
1.08304e+14
8.17938e+13
5.90299e+13
4.02452e+13
2.67306e+13
1.82142e+13
1.35002e+13
1.27245e+13
1.16764e+13
7.72294e+12
5.21591e+12
3.81087e+12
3.64687e+12
3.99276e+12
2.89582e+12
2.15254e+12
1.67049e+12
1.41675e+12
1.23055e+12
1.0838e+12
9.67144e+11
8.6151e+11
8.19822e+11
7.89056e+11
7.57726e+11
7.52935e+11
7.5232e+11
7.65513e+11
7.77614e+11
7.97117e+11
6.29376e+11
6.37053e+11
5.17882e+11
5.03185e+11
5.43826e+11
5.8512e+11
8.94981e+14
8.53357e+14
8.12591e+14
7.72287e+14
7.32517e+14
6.93573e+14
6.55053e+14
6.17125e+14
5.79967e+14
5.43093e+14
5.06696e+14
4.70953e+14
4.35498e+14
4.00481e+14
3.66e+14
3.31697e+14
2.97682e+14
2.64521e+14
2.32058e+14
1.99489e+14
1.68152e+14
1.38519e+14
1.10044e+14
8.39532e+13
6.1432e+13
4.25454e+13
2.86805e+13
1.97306e+13
1.44528e+13
1.32658e+13
1.34739e+13
9.10502e+12
6.20785e+12
4.44685e+12
3.89143e+12
4.6212e+12
3.7042e+12
2.77832e+12
2.16535e+12
1.7466e+12
1.5103e+12
1.33942e+12
1.22232e+12
1.13153e+12
1.07836e+12
1.04398e+12
1.01746e+12
1.01426e+12
1.02042e+12
1.02782e+12
8.8876e+11
7.82072e+11
6.6451e+11
6.60493e+11
6.13809e+11
6.37128e+11
7.022e+11
7.6325e+11
8.95247e+14
8.5365e+14
8.1289e+14
7.7261e+14
7.32867e+14
6.93917e+14
6.55411e+14
6.17511e+14
5.80348e+14
5.43482e+14
5.07112e+14
4.71372e+14
4.35929e+14
4.00939e+14
3.66467e+14
3.32199e+14
2.98245e+14
2.65158e+14
2.32844e+14
2.00497e+14
1.69404e+14
1.40079e+14
1.11933e+14
8.62778e+13
6.39879e+13
4.50033e+13
3.07886e+13
2.13925e+13
1.55557e+13
1.37922e+13
1.53989e+13
1.07023e+13
7.37745e+12
5.26362e+12
4.28513e+12
4.80414e+12
4.6819e+12
3.5567e+12
2.8064e+12
2.25746e+12
1.94163e+12
1.71543e+12
1.58293e+12
1.49369e+12
1.42603e+12
1.38467e+12
1.36176e+12
1.34869e+12
1.34848e+12
1.04548e+12
9.02284e+11
8.16564e+11
7.51923e+11
7.55533e+11
7.61974e+11
8.1514e+11
9.06678e+11
9.85794e+11
8.95531e+14
8.53962e+14
8.13215e+14
7.72964e+14
7.33252e+14
6.94301e+14
6.55811e+14
6.17941e+14
5.80776e+14
5.43922e+14
5.07581e+14
4.71848e+14
4.36422e+14
4.01463e+14
3.67007e+14
3.32783e+14
2.989e+14
2.65899e+14
2.33751e+14
2.01635e+14
1.70781e+14
1.41743e+14
1.13914e+14
8.87743e+13
6.67118e+13
4.76338e+13
3.30596e+13
2.31444e+13
1.68264e+13
1.44237e+13
1.57597e+13
1.2518e+13
8.75504e+12
6.27378e+12
4.85724e+12
4.8835e+12
5.81683e+12
4.51615e+12
3.60275e+12
2.92592e+12
2.51665e+12
2.22546e+12
2.06384e+12
1.96602e+12
1.88465e+12
1.81271e+12
1.78336e+12
1.48187e+12
1.31042e+12
1.08376e+12
9.788e+11
9.24859e+11
9.01619e+11
9.21713e+11
9.63235e+11
1.0477e+12
1.16207e+12
1.17959e+12
1.1569e+15
1.11177e+15
1.06783e+15
1.0237e+15
9.80382e+14
9.37779e+14
8.95776e+14
8.54292e+14
8.13569e+14
7.73353e+14
7.33674e+14
6.94726e+14
6.56257e+14
6.18416e+14
5.81255e+14
5.44416e+14
5.08107e+14
4.72386e+14
4.36983e+14
4.0206e+14
3.67629e+14
3.33456e+14
2.99651e+14
2.66751e+14
2.34788e+14
2.02925e+14
1.72331e+14
1.43598e+14
1.16118e+14
9.14532e+13
6.96076e+13
5.04399e+13
3.54994e+13
2.50524e+13
1.82843e+13
1.52228e+13
1.61144e+13
1.45681e+13
1.03659e+13
7.48846e+12
5.64022e+12
5.13812e+12
6.27995e+12
5.66883e+12
4.58892e+12
3.75567e+12
3.25153e+12
2.89672e+12
2.69391e+12
2.56422e+12
2.43988e+12
1.86872e+12
1.74413e+12
1.49345e+12
1.34416e+12
1.20147e+12
1.1361e+12
1.11148e+12
1.11609e+12
1.15433e+12
1.22551e+12
1.34459e+12
1.31395e+12
1.15713e+12
1.2025e+15
1.1571e+15
1.11212e+15
1.06805e+15
1.02406e+15
9.80762e+14
9.38141e+14
8.96105e+14
8.54662e+14
8.1396e+14
7.73785e+14
7.3414e+14
6.95195e+14
6.56754e+14
6.18945e+14
5.81787e+14
5.44972e+14
5.08696e+14
4.72991e+14
4.3762e+14
4.02738e+14
3.68339e+14
3.3423e+14
3.00511e+14
2.67724e+14
2.35965e+14
2.04377e+14
1.7407e+14
1.45657e+14
1.18545e+14
9.43274e+13
7.26923e+13
5.34328e+13
3.81326e+13
2.71968e+13
1.99548e+13
1.62037e+13
1.65281e+13
1.68718e+13
1.2235e+13
8.93516e+12
6.67151e+12
5.623e+12
6.30449e+12
7.02358e+12
5.79929e+12
4.78211e+12
4.18357e+12
3.74873e+12
3.48843e+12
2.93996e+12
2.40619e+12
1.93336e+12
1.78003e+12
1.59929e+12
1.49234e+12
1.41094e+12
1.37873e+12
1.3766e+12
1.40467e+12
1.46436e+12
1.56457e+12
1.70509e+12
1.33505e+12
1.1894e+12
1.24861e+15
1.20267e+15
1.15733e+15
1.11241e+15
1.0683e+15
1.02438e+15
9.81128e+14
9.385e+14
8.96517e+14
8.55092e+14
8.14396e+14
7.7426e+14
7.34649e+14
6.9571e+14
6.57301e+14
6.19527e+14
5.82378e+14
5.45589e+14
5.09351e+14
4.73667e+14
4.38335e+14
4.03503e+14
3.69145e+14
3.35109e+14
3.01486e+14
2.68826e+14
2.37284e+14
2.05983e+14
1.7599e+14
1.4791e+14
1.21211e+14
9.74098e+13
7.59559e+13
5.66029e+13
4.09578e+13
2.9561e+13
2.1855e+13
1.73806e+13
1.71363e+13
1.94252e+13
1.4374e+13
1.06338e+13
7.98436e+12
6.37484e+12
6.36368e+12
8.20294e+12
7.17313e+12
6.02122e+12
5.27189e+12
4.51767e+12
4.00017e+12
2.95315e+12
2.45557e+12
2.10077e+12
1.95312e+12
1.82619e+12
1.75619e+12
1.71354e+12
1.70855e+12
1.72951e+12
1.7838e+12
1.86638e+12
1.99574e+12
1.71502e+12
1.40175e+12
1.28938e+12
1.29501e+15
1.24879e+15
1.20287e+15
1.15756e+15
1.1127e+15
1.06856e+15
1.02471e+15
9.81499e+14
9.38897e+14
8.96969e+14
8.55583e+14
8.14893e+14
7.74787e+14
7.35213e+14
6.96285e+14
6.57904e+14
6.2017e+14
5.83037e+14
5.46276e+14
5.10082e+14
4.74428e+14
4.39138e+14
4.04366e+14
3.70064e+14
3.36109e+14
3.02597e+14
2.70078e+14
2.3876e+14
2.07748e+14
1.78073e+14
1.50358e+14
1.24105e+14
1.00706e+14
7.94266e+13
5.99849e+13
4.40021e+13
3.2148e+13
2.39513e+13
1.87747e+13
1.77332e+13
2.20345e+13
1.68115e+13
1.26061e+13
9.57739e+12
7.42943e+12
6.67592e+12
7.69625e+12
7.09033e+12
7.32256e+12
5.23586e+12
4.40935e+12
3.85212e+12
3.07513e+12
2.66286e+12
2.39815e+12
2.27203e+12
2.18244e+12
2.135e+12
2.11971e+12
2.14228e+12
2.1886e+12
2.25173e+12
2.35042e+12
2.50206e+12
1.76265e+12
1.5281e+12
1.46224e+12
1.29537e+15
1.24903e+15
1.20313e+15
1.15783e+15
1.11301e+15
1.06885e+15
1.02507e+15
9.81896e+14
9.39338e+14
8.97461e+14
8.56127e+14
8.1545e+14
7.75376e+14
7.35836e+14
6.96923e+14
6.58574e+14
6.20882e+14
5.8377e+14
5.47041e+14
5.10895e+14
4.75277e+14
4.40037e+14
4.05335e+14
3.71101e+14
3.37241e+14
3.03852e+14
2.71489e+14
2.40411e+14
2.09701e+14
1.80348e+14
1.52984e+14
1.27235e+14
1.04228e+14
8.31238e+13
6.35976e+13
4.72907e+13
3.49595e+13
2.61782e+13
2.04158e+13
1.84471e+13
2.15065e+13
1.95365e+13
1.48785e+13
1.14186e+13
8.84412e+12
7.38536e+12
7.30885e+12
6.81303e+12
6.8857e+12
5.20996e+12
4.44315e+12
3.91831e+12
3.36836e+12
3.04615e+12
2.8427e+12
2.73781e+12
2.6671e+12
2.641e+12
2.65341e+12
2.70206e+12
2.75603e+12
2.30007e+12
2.29493e+12
2.34387e+12
1.87019e+12
1.72625e+12
1.71685e+12
1.2957e+15
1.24934e+15
1.20344e+15
1.15815e+15
1.11336e+15
1.06919e+15
1.02547e+15
9.82339e+14
9.39829e+14
8.98001e+14
8.56721e+14
8.1607e+14
7.7603e+14
7.36525e+14
6.97632e+14
6.59318e+14
6.2167e+14
5.84587e+14
5.47893e+14
5.11799e+14
4.76228e+14
4.41045e+14
4.06422e+14
3.72274e+14
3.38524e+14
3.05273e+14
2.73083e+14
2.42253e+14
2.11856e+14
1.82825e+14
1.55783e+14
1.30607e+14
1.07991e+14
8.70568e+13
6.74519e+13
5.08298e+13
3.80121e+13
2.86246e+13
2.23414e+13
1.93958e+13
2.10278e+13
2.25532e+13
1.74861e+13
1.35249e+13
1.05998e+13
8.54582e+12
7.63851e+12
6.93665e+12
6.52966e+12
5.43602e+12
4.7591e+12
4.28738e+12
3.86712e+12
3.61327e+12
3.43886e+12
3.35033e+12
3.29665e+12
3.29757e+12
3.3334e+12
3.39805e+12
2.81149e+12
2.38823e+12
2.32196e+12
2.30716e+12
2.06077e+12
2.01074e+12
2.06369e+12
1.29605e+15
1.2497e+15
1.20381e+15
1.15853e+15
1.11376e+15
1.0696e+15
1.02593e+15
9.82841e+14
9.40375e+14
8.98601e+14
8.57372e+14
8.16751e+14
7.76758e+14
7.37288e+14
6.98417e+14
6.60146e+14
6.22542e+14
5.8549e+14
5.48844e+14
5.12804e+14
4.77282e+14
4.4217e+14
4.07632e+14
3.73582e+14
3.39965e+14
3.0687e+14
2.74873e+14
2.44307e+14
2.14224e+14
1.85536e+14
1.58869e+14
1.3424e+14
1.12007e+14
9.12486e+13
7.15678e+13
5.46433e+13
4.13458e+13
3.13813e+13
2.45377e+13
2.06559e+13
2.09089e+13
2.55386e+13
2.04743e+13
1.59914e+13
1.26314e+13
1.0137e+13
8.60784e+12
7.57277e+12
6.83342e+12
5.99585e+12
5.37967e+12
4.95214e+12
4.58789e+12
4.36278e+12
4.21344e+12
4.13808e+12
4.10394e+12
4.10116e+12
4.14482e+12
3.71076e+12
2.89197e+12
2.55098e+12
2.46993e+12
2.4479e+12
2.35714e+12
2.39788e+12
2.51337e+12
1.29643e+15
1.25009e+15
1.20422e+15
1.15897e+15
1.11423e+15
1.07007e+15
1.02646e+15
9.8341e+14
9.40982e+14
8.99264e+14
8.58083e+14
8.17498e+14
7.77557e+14
7.38129e+14
6.99283e+14
6.61061e+14
6.23509e+14
5.86493e+14
5.49901e+14
5.13923e+14
4.78456e+14
4.43422e+14
4.08982e+14
3.75043e+14
3.41577e+14
3.08664e+14
2.76887e+14
2.46621e+14
2.16891e+14
1.88551e+14
1.62292e+14
1.38182e+14
1.16309e+14
9.57064e+13
7.59498e+13
5.87379e+13
4.4979e+13
3.44415e+13
2.69441e+13
2.22685e+13
2.115e+13
2.44388e+13
2.37897e+13
1.88562e+13
1.49991e+13
1.20897e+13
1.01183e+13
8.73815e+12
7.73456e+12
6.91228e+12
6.29235e+12
5.88193e+12
5.54521e+12
5.33216e+12
5.20599e+12
5.13747e+12
5.09722e+12
4.18735e+12
3.99838e+12
3.59599e+12
3.05781e+12
2.81319e+12
2.7523e+12
2.75351e+12
2.7811e+12
2.90836e+12
3.08156e+12
1.29686e+15
1.25054e+15
1.20469e+15
1.15948e+15
1.11476e+15
1.07062e+15
1.02706e+15
9.84059e+14
9.41668e+14
9.00002e+14
8.5887e+14
8.18323e+14
7.78438e+14
7.39058e+14
7.00244e+14
6.62073e+14
6.24578e+14
5.87609e+14
5.51074e+14
5.15165e+14
4.79765e+14
4.44814e+14
4.10477e+14
3.7666e+14
3.43359e+14
3.1065e+14
2.79115e+14
2.49146e+14
2.19755e+14
1.91779e+14
1.66023e+14
1.42419e+14
1.20899e+14
1.00455e+14
8.06377e+13
6.31445e+13
4.89432e+13
3.78319e+13
2.96892e+13
2.43058e+13
2.18492e+13
2.30851e+13
2.58662e+13
2.21432e+13
1.78216e+13
1.44467e+13
1.20551e+13
1.03583e+13
9.14519e+12
8.19883e+12
7.51124e+12
7.09927e+12
6.78348e+12
6.56722e+12
6.41915e+12
6.36537e+12
5.2625e+12
4.32347e+12
4.01615e+12
3.68832e+12
3.34966e+12
3.20151e+12
3.18466e+12
3.22849e+12
3.35001e+12
3.55831e+12
3.7861e+12
1.29733e+15
1.25103e+15
1.20522e+15
1.16005e+15
1.11537e+15
1.07125e+15
1.02775e+15
9.8479e+14
9.42436e+14
9.00827e+14
8.59743e+14
8.19237e+14
7.79412e+14
7.40083e+14
7.0131e+14
6.63197e+14
6.25762e+14
5.88847e+14
5.52381e+14
5.16549e+14
4.81225e+14
4.46369e+14
4.12143e+14
3.78453e+14
3.45323e+14
3.12835e+14
2.81571e+14
2.51931e+14
2.2287e+14
1.95235e+14
1.70069e+14
1.46969e+14
1.25796e+14
1.05519e+14
8.5646e+13
6.79021e+13
5.32785e+13
4.16117e+13
3.28091e+13
2.67446e+13
2.31133e+13
2.25703e+13
2.43439e+13
2.54837e+13
2.11272e+13
1.72921e+13
1.44451e+13
1.24211e+13
1.09785e+13
9.8984e+12
9.11204e+12
8.66368e+12
8.33189e+12
8.06457e+12
6.65356e+12
6.96248e+12
5.34747e+12
4.56455e+12
4.24259e+12
3.99251e+12
3.79909e+12
3.74417e+12
3.78588e+12
3.88401e+12
4.07975e+12
4.35484e+12
4.62686e+12
1.29786e+15
1.25159e+15
1.2058e+15
1.16069e+15
1.11605e+15
1.07195e+15
1.02851e+15
9.85605e+14
9.43288e+14
9.01736e+14
8.60702e+14
8.20236e+14
7.80474e+14
7.41205e+14
7.02476e+14
6.64429e+14
6.27064e+14
5.90209e+14
5.5382e+14
5.18077e+14
4.8284e+14
4.4809e+14
4.13987e+14
3.8043e+14
3.47467e+14
3.15185e+14
2.84208e+14
2.54954e+14
2.26308e+14
1.99041e+14
1.74493e+14
1.51882e+14
1.31045e+14
1.10918e+14
9.09916e+13
7.30069e+13
5.79823e+13
4.57801e+13
3.63258e+13
2.94836e+13
2.49419e+13
2.29038e+13
2.30472e+13
2.41799e+13
2.3842e+13
2.06412e+13
1.7365e+13
1.49855e+13
1.32792e+13
1.20648e+13
1.11522e+13
1.06431e+13
9.56721e+12
8.05942e+12
6.80785e+12
6.57357e+12
5.54387e+12
4.95723e+12
4.68453e+12
4.5187e+12
4.44184e+12
4.47516e+12
4.58379e+12
4.74269e+12
4.99112e+12
5.30245e+12
5.58823e+12
1.29845e+15
1.25221e+15
1.20645e+15
1.1614e+15
1.11681e+15
1.07274e+15
1.02937e+15
9.86516e+14
9.44241e+14
9.02742e+14
8.61767e+14
8.21344e+14
7.81641e+14
7.4244e+14
7.03766e+14
6.65783e+14
6.28502e+14
5.9172e+14
5.55412e+14
5.19775e+14
4.84642e+14
4.50009e+14
4.16053e+14
3.82655e+14
3.49878e+14
3.1782e+14
2.87109e+14
2.58211e+14
2.29975e+14
2.03231e+14
1.7928e+14
1.57147e+14
1.3664e+14
1.16674e+14
9.67086e+13
7.84993e+13
6.31003e+13
5.03855e+13
4.02805e+13
3.26323e+13
2.72745e+13
2.40875e+13
2.27901e+13
2.26873e+13
2.26661e+13
2.33263e+13
2.07898e+13
1.80795e+13
1.61152e+13
1.46392e+13
1.35509e+13
1.28964e+13
9.61358e+12
8.10747e+12
7.07779e+12
6.62853e+12
5.95681e+12
5.55146e+12
5.36215e+12
5.28516e+12
5.30604e+12
5.4202e+12
5.59872e+12
5.81788e+12
6.10175e+12
6.42059e+12
6.69716e+12
1.29909e+15
1.2529e+15
1.20717e+15
1.16218e+15
1.11765e+15
1.07363e+15
1.03032e+15
9.87527e+14
9.45298e+14
9.03853e+14
8.62938e+14
8.22566e+14
7.82922e+14
7.43792e+14
7.05181e+14
6.67269e+14
6.30076e+14
5.9338e+14
5.57162e+14
5.21638e+14
4.86625e+14
4.52127e+14
4.18336e+14
3.85123e+14
3.52557e+14
3.20755e+14
2.90338e+14
2.61786e+14
2.33934e+14
2.0781e+14
1.84448e+14
1.62789e+14
1.42612e+14
1.22812e+14
1.02827e+14
8.44138e+13
6.86641e+13
5.54625e+13
4.4733e+13
3.63405e+13
3.01619e+13
2.60598e+13
2.35551e+13
2.23146e+13
2.16707e+13
2.20257e+13
2.27907e+13
2.13943e+13
1.93152e+13
1.46924e+13
1.31626e+13
1.22246e+13
9.75243e+12
8.42413e+12
7.57303e+12
7.08742e+12
6.645e+12
6.3983e+12
6.30609e+12
6.31744e+12
6.42337e+12
6.60994e+12
6.85728e+12
7.13344e+12
7.4456e+12
7.74827e+12
8.00514e+12
1.29981e+15
1.25366e+15
1.20798e+15
1.16304e+15
1.11858e+15
1.07461e+15
1.03136e+15
9.88639e+14
9.46468e+14
9.0508e+14
8.64225e+14
8.23914e+14
7.84336e+14
7.45276e+14
7.06741e+14
6.68908e+14
6.31808e+14
5.95213e+14
5.59097e+14
5.23696e+14
4.88823e+14
4.54473e+14
4.20864e+14
3.87859e+14
3.55531e+14
3.24008e+14
2.93924e+14
2.65752e+14
2.38258e+14
2.12803e+14
1.90018e+14
1.68821e+14
1.48979e+14
1.29355e+14
1.09364e+14
9.07705e+13
7.46983e+13
6.10401e+13
4.97246e+13
4.0649e+13
3.36764e+13
2.86749e+13
2.52513e+13
2.29981e+13
2.15827e+13
2.10287e+13
2.13269e+13
2.02646e+13
1.82992e+13
1.4617e+13
1.29391e+13
1.18605e+13
1.01581e+13
9.06566e+12
8.37396e+12
7.94988e+12
7.6589e+12
7.54635e+12
7.55107e+12
7.64627e+12
7.82545e+12
8.07504e+12
8.38843e+12
8.72062e+12
9.0641e+12
9.30426e+12
9.52843e+12
1.3006e+15
1.2545e+15
1.20887e+15
1.164e+15
1.1196e+15
1.07568e+15
1.03252e+15
9.89858e+14
9.47748e+14
9.06431e+14
8.65639e+14
8.2539e+14
7.85892e+14
7.46906e+14
7.08448e+14
6.70709e+14
6.33706e+14
5.97214e+14
5.61219e+14
5.25951e+14
4.91224e+14
4.57045e+14
4.23623e+14
3.90838e+14
3.58768e+14
3.27541e+14
2.97809e+14
2.70061e+14
2.43042e+14
2.18227e+14
1.96009e+14
1.75266e+14
1.55759e+14
1.36331e+14
1.1635e+14
9.76019e+13
8.12378e+13
6.71532e+13
5.52955e+13
4.55835e+13
3.78527e+13
3.19668e+13
2.7724e+13
2.46795e+13
2.24943e+13
2.10503e+13
2.02253e+13
1.8993e+13
1.72538e+13
1.47961e+13
1.32583e+13
1.21623e+13
1.0929e+13
1.00965e+13
9.55297e+12
9.22091e+12
9.04377e+12
9.04304e+12
9.135e+12
9.30462e+12
9.54538e+12
9.83588e+12
1.01916e+13
1.0555e+13
1.09136e+13
1.10896e+13
1.12827e+13
1.30147e+15
1.25543e+15
1.20984e+15
1.16505e+15
1.12071e+15
1.07686e+15
1.03377e+15
9.91189e+14
9.49143e+14
9.07904e+14
8.67189e+14
8.27011e+14
7.87599e+14
7.48702e+14
7.10329e+14
6.72691e+14
6.35801e+14
5.99421e+14
5.63556e+14
5.28439e+14
4.93878e+14
4.59892e+14
4.26699e+14
3.9416e+14
3.6237e+14
3.31457e+14
3.02088e+14
2.74777e+14
2.48356e+14
2.24175e+14
2.02506e+14
1.82214e+14
1.63034e+14
1.43789e+14
1.23828e+14
1.04946e+14
8.83186e+13
7.38466e+13
6.14874e+13
5.11827e+13
4.27438e+13
3.60586e+13
3.09857e+13
2.72165e+13
2.44064e+13
2.2188e+13
2.05931e+13
1.90576e+13
1.73549e+13
1.5552e+13
1.42115e+13
1.31793e+13
1.22482e+13
1.16087e+13
1.11905e+13
1.09516e+13
1.08611e+13
1.09527e+13
1.11191e+13
1.1351e+13
1.16417e+13
1.19416e+13
1.22708e+13
1.25966e+13
1.29202e+13
1.31228e+13
1.3312e+13
1.30245e+15
1.25645e+15
1.21093e+15
1.16621e+15
1.12194e+15
1.07815e+15
1.03516e+15
9.92651e+14
9.50682e+14
9.09529e+14
8.68895e+14
8.28799e+14
7.89481e+14
7.50678e+14
7.12401e+14
6.74873e+14
6.38103e+14
6.01846e+14
5.66115e+14
5.31154e+14
4.96766e+14
4.62977e+14
4.30009e+14
3.97727e+14
3.66226e+14
3.35645e+14
3.06677e+14
2.79843e+14
2.54125e+14
2.30597e+14
2.09474e+14
1.89625e+14
1.7078e+14
1.51733e+14
1.3181e+14
1.12821e+14
9.59628e+13
8.11394e+13
6.83218e+13
5.74694e+13
4.83775e+13
4.09636e+13
3.51224e+13
3.06025e+13
2.7182e+13
2.44429e+13
2.22738e+13
2.03893e+13
1.85852e+13
1.70729e+13
1.58833e+13
1.49378e+13