/*--------------------------------*- C++ -*----------------------------------*\
| =========                 |                                                 |
| \\      /  F ield         | OpenFOAM: The Open Source CFD Toolbox           |
|  \\    /   O peration     | Version:  v2012                                 |
|   \\  /    A nd           | Website:  www.openfoam.com                      |
|    \\/     M anipulation  |                                                 |
\*---------------------------------------------------------------------------*/
FoamFile
{
    version     2.0;
    format      ascii;
    class       volScalarField;
    location    "1e-06";
    object      totalP;
}
// * * * * * * * * * * * * * * * * * * * * * * * * * * * * * * * * * * * * * //

dimensions      [1 -1 -2 0 0 0 0];


internalField   nonuniform List<scalar> 
10295
(
75226.8
73360
74269.6
73639
71432
72517.2
71808.5
69550.9
70719.9
70199.1
67785.2
68995.3
68529
65919.7
65866.4
64661.9
59451.7
67422.4
75683
59059.8
64052.7
63884.9
61774.5
77124.6
63730.5
53809.5
57049.3
50720.7
50224.2
47231.3
44059.1
41352
34172.3
16147.2
-1830.92
-7293.42
-9244.06
-9087.81
-10921.4
-11755.8
-12274
-12715.2
-12890.7
-13978.5
-13773.4
-13753.9
-13912.7
-14601.1
-14758.4
-14746.3
-14898.5
-15399.8
-17584.5
-19088.9
-22325.7
-17871.1
-16316.8
-14820.5
78337.8
77188.1
77634.9
76782.7
75497.8
76100.2
75027.9
73740.3
74526
73507.6
72118.5
72984.4
72001.9
70424
69922.1
68090.6
63743
70110.7
77456
63417.1
68562.7
69392
68838.5
87667.4
74124.3
63885.2
68316.3
61729.7
61390
61472.3
57146.4
53432.5
50084.4
33574.7
15625.5
12231
10442.7
8967.77
7638.83
6681.84
5709.43
5571.06
4538.97
4235.55
4615.17
4200.99
4496.38
3324.43
3630.16
4064.07
3284.77
3442.24
1894.19
2255.51
3718.14
6061.34
7933.91
7857.69
82648.6
81564.6
81961.6
81265.6
80055.7
80642
79697.3
78547.3
79295.1
78423.3
77164.5
78007.9
77179.5
75753.2
75171.3
73443.5
69069.6
75550.2
83400.6
70013
74685.8
76150.2
76082.2
93220.6
76982.4
66538.7
68730.1
61427.4
59469.3
54573.7
51607.1
47789.9
42774.2
26841.4
21505.1
19986.7
19854.7
19043.5
19675.1
20054.2
19562.1
19496
17319.1
17777.7
17700.2
17194.7
17587.3
15706.6
16536.7
16757.7
15867.4
16351.5
14870.3
16379.8
19718.4
22827.5
24605.6
24157.4
83228.7
82039.3
82765
81928.5
80557.7
81405.8
80465.5
79073
80075.4
79289.6
77723
78839.6
78032
76316.9
76224.9
74494.5
70015.1
76885
84060.5
71115.5
76483.1
77132.8
77190.6
95136.3
79413
68410.9
72549.3
66564.8
64281.1
61427.2
57601.5
54025.1
45083.9
30053.2
23762.9
21775.6
21999.7
21940.4
22524
23238.7
22781
23355.7
23296.1
23478.2
24114.6
23748.2
24358.2
24084.4
23881
24601.3
23088
23582.6
23270.3
24212
29391.7
31150.2
32224.5
31503.9
87090.3
86018.2
86662.2
85906.2
84687.1
85497.4
84574.3
83386.5
84339.1
83540
82229
83306.1
82477.7
81028.4
80986.8
79301.7
75161.6
81942.7
88615.4
76994.6
81913.6
82967.1
83634.1
100304
84223.5
73414.4
77557.5
71112.1
67627.6
65396.9
61364.8
55968.5
48101
34061.2
28184.1
25736.2
25567.9
25601.2
26151.8
27049.7
26551.7
27253.5
27357.4
27383.7
28071.8
27710.3
28358.6
28625.3
28563.6
29222.6
28291.1
28891.7
29010.1
30325.5
34663.3
36421.9
37469.6
36960.1
90555.1
89595.4
90089.6
89464.4
88385
89091
88227.3
87229.9
88079.4
87315
86241.3
87208.1
86418.5
85223.6
85267.1
83758.1
79984.9
86620.9
92452.1
81951.7
86538.6
88037.6
89273.6
104435
88965.4
78866.8
81192.4
75239.3
72207.5
69401.8
64333
59478.1
52262.5
37761.2
32779.2
30425.6
30138.3
29775.8
30608.9
31101.3
31001.7
31941.1
31601.4
32139.6
32520.3
32273.7
32998.3
32333
32983.7
33241
32750.4
33311
33127.1
34714
38329
40531.8
41512.5
41269.5
91153.4
90074.2
90882.3
90151.8
88886.8
89850.1
89017.3
87751.5
88853.9
88190
86791.6
88019.8
87268.3
85787.2
86467.9
85203.1
81446.3
88376.7
93365.6
83140.5
88079.7
89057.1
90430.4
105366
89139.4
79473.7
82586.6
75665.2
72735.6
70572
64735
60422.3
53071.9
39181.8
35530.6
32304.6
32034.7
31669.9
32129.4
32942.6
32463.5
33368.3
33775.7
33579
34276.5
33753
34376.5
34033.1
34248.9
34853.4
34152.9
34458.2
35038.5
35847.4
39967.9
41513.7
42992.7
42407.6
94107
93159.6
93808.2
93154.1
92057.4
92905.9
92080
91030.5
92024.9
91328.8
90196.1
91308.9
90541
89331.2
90172.1
89254.5
86544.3
92899.1
97223.2
88013.4
91920.7
93304.9
95192.5
108683
92769.6
83636.7
86539.5
79647.7
76183.5
73426.1
68703.9
63748.5
55878.2
42632.3
38999.2
35939.2
35446.6
35019.9
35241.3
36112
35715.8
36571.2
37019.5
36682.4
37442.1
36861.8
37554.2
37094.1
37383.5
37833.9
37255.1
37442.4
38412.8
38988.1
42900.8
44137.1
45678.9
45088.9
94704.4
93606
94533.4
93849.2
92528.7
93590.3
92877.5
91536.5
92717.2
92203.9
90727.6
92023.4
91407.9
89860.7
91208.7
90794.6
88590
94913.6
98230
89282.9
93379.1
94334.7
96266.2
108965
93156.7
84293.2
87351.9
80347
76997.9
74199.2
69193.3
64632.9
56620
44358.5
40964.5
37951.9
37014.7
37028.8
36657.1
38153.8
37357.3
37893.3
38821.6
37846.7
39053.8
38215.5
38775.2
38570.9
38391
39199.2
38510.8
38612.1
40140.7
39921
44192.8
45202
46984.1
46331.7
97654.8
96784.1
97470.7
96835.6
95795
96670.5
95940.2
94896.9
95912.6
95269.1
94196.3
95324.9
94600
93499.8
94705.8
94507.1
93258.3
99006.5
101961
93973.5
97097.7
98559.7
101066
111522
96720.4
87987.2
90481.7
83920.5
80550.1
77010.1
72121
66851.6
59132.1
47940.8
44543.1
41895.1
40464.8
40099.3
39749.8
40607.8
40280.6
40862.3
42147.9
40667.2
41830
41099.6
41725
41355.1
41115
41992.8
41405.1
41475.6
42978.6
42636.7
46478.1
47437.8
49316.7
48879.8
100400
99706.5
100110
99600.7
98796.6
99425.2
98721.1
97990.7
98764
98095.8
97412.6
98265.9
97537.2
96835.4
97806.7
97636.6
96974.3
101998
104800
98102.3
100570
102372
105279
113688
100106
92222.9
93240.7
87812.2
84108.1
80014.8
75872.4
70107.2
62753.7
52047.2
47950.5
45092.5
44581.8
43500.5
43780.2
43846.1
43711.4
44128.9
45006.8
44111.5
45049.4
44561.3
45400.6
44450.3
44833.4
45368.3
44811.9
44877.9
46019
45989.9
48891.9
50174.1
51877.9
51638.5
100950
100131
100820
100232
99250.3
100117
99436
98449.9
99463.6
98878.8
97886.9
98970.7
98263.5
97345.1
98568.2
98442.9
97636.7
102584
105094
99074.8
101765
103290
106262
113587
100404
92953.2
94458.4
88314.4
84588.1
80733.1
76256.2
71306.7
63976.3
53676.3
50043
46326.7
46429.1
45386.7
45079.4
45582.5
45145
45463.9
46792
45452
46668.7
45943.8
46705.9
46185.9
45855.7
46658
46017
46060.7
47381.3
46677.8
49829.9
51129.1
52797.1
52674.7
103310
102677
103082
102596
101874
102473
101796
101152
101890
101271
100686
101495
100757
100294
101254
101203
100827
105120
107513
102617
104795
106568
109812
115291
103063
96186.5
96793.7
91119.1
87116.7
82943
78640.4
73525.6
65983.2
56822.6
52901.7
49498.8
49190.4
48763
48117.4
48538.5
48058.2
48359.9
49331
48512.6
49355.2
48372.9
49292
48588.5
48626.6
49287.2
48871.4
48679.4
49495.2
49089.1
51933.3
53216.8
54862.5
54815.2
103874
103135
103766
103241
102336
103148
102520
101617
102563
102053
101172
102173
101578
100820
102037
102033
101510
105742
107877
103524
105878
107448
110646
114894
103384
96834.4
97983.3
91636.7
87734.7
83737.4
78975.8
74476.2
66956.6
58730.7
54533.9
51370.4
50735.8
50939.2
49756.2
49897.4
49161.3
49437.6
50535.4
49692
50407.2
49343.6
50388.6
50031.5
49864.7
50241.2
49774.1
49396.8
50603.7
50152
52798.9
54065.5
55706.1
55551.3
106067
105523
105857
105418
104807
105316
104677
104155
104813
104233
103792
104483
103840
103576
104505
104545
104462
108098
110031
106720
108636
110392
113763
116279
105791
99827.5
100307
94380.4
90334.3
86043.1
81590.6
77092.5
69893.7
62673.4
57711.5
54682.6
53580.5
52745.8
53125.4
52657.3
51683
51988.5
52506.5
52558.6
52909.5
51892.2
53052.2
52083.4
52284.3
52177.1
52124.2
51903
52991
52864.7
54752.8
56454.5
57842.2
57602.1
106601
105952
106461
106029
105237
105915
105361
104584
105413
104966
104236
105081
104605
104063
105210
105314
105078
108624
110593
107530
109573
111175
114373
115714
106054
100377
100323
94937.2
91270.8
87388.4
82230.5
77830.2
70648.7
63161
59137
56007.9
55467.1
54163.7
54721.4
54554.9
53244.8
53509.9
53961.1
53888.8
54106.4
52758.8
53683.8
52704.9
52994.7
53110.1
53290.6
53102.6
54151.4
53829.8
55875.2
57585.6
58709.7
58708.4
108627
108164
108379
107996
107506
107914
107300
106923
107453
106906
106637
107164
106609
106581
107432
107539
107721
110736
112733
110342
111996
113767
116925
116776
108294
102963
101282
97488.6
93575.4
89213.2
84658.8
79738.1
73140.8
66527.3
62611.5
59157.1
58647.3
56783.8
56902.4
58067.1
56814.8
56896
56194.4
56152.5
56015.5
54620.4
55766.7
54502.7
55518.3
55624.7
55675
55561.8
56287.8
56263.2
57868.2
59342.4
60544.6
60779
108970
108372
108805
108391
107754
108317
107751
107156
107849
107395
106876
107546
107138
106847
107840
108105
108065
111001
113030
110763
112602
114184
116843
116089
108411
103488
101688
98205.7
93925.5
89388.5
84969.4
80400.9
74533.6
67945.9
64256.1
60714.2
60030.1
58952.5
57909.2
59327.5
58389.9
58139.2
56727.6
56997.6
56938.1
55601.4
56836.4
56239.7
56766.7
56793
56727.1
56602.3
57739.4
57603.7
59011.2
60111.9
61506
61749.3
109392
108601
109267
108862
107996
108740
108249
107430
108263
107914
107159
107998
107668
107159
108363
108627
108412
111371
113438
111156
113227
114662
116691
115337
108294
103517
101289
98402.5
93991.3
89522.5
85010.4
80919
75577.7
68905.9
65282.8
61817.4
61049.6
60765
59084.4
59997.9
59058.7
58657.2
57113.3
57639
57927.4
56811.5
57738.7
57350.2
57317.7
57547.1
57517.2
57628.8
58987.7
58664.4
59833.7
60903.4
62387.1
62377.9
111147
110656
110957
110622
110079
110481
109990
109538
110068
109664
109312
109851
109563
109403
110259
110589
110718
113217
115265
113552
115157
116745
118474
116252
110267
105636
102743
100671
95722.5
91414.5
87261.1
82935.1
78057.7
71761.6
68261.5
65117.1
63819.7
63649.6
62328.3
62080.1
61194.6
61100.5
60007.8
60444.8
60441.5
59446.2
59849.4
59589.1
59602.9
59883.7
60065.1
60114
61028.3
60412.3
61630.7
62934.6
64064
64254.7
111616
110990
111405
111128
110423
110912
110515
109900
110496
110199
109684
110319
110101
109802
110767
111124
111109
113594
115638
114056
115644
117167
118156
115483
110290
105912
102635
101480
96223.7
92102
88162.9
83631.2
78844.7
73314.2
69726.6
66740.6
65318.4
65061.1
64395.8
63482.7
62469.1
62352.1
61665.5
61642.1
61358.2
60554.8
60699.4
60530.4
60915.5
60932.7
60499.4
60272.8
61395.1
61010.8
62506.3
63721.1
64750.6
65244
113201
112815
112965
112677
112264
112501
112033
111784
112121
111749
111600
111987
111750
111784
112469
112814
113090
115248
117184
116082
117389
118919
119342
116262
111838
107524
104059
103479
97773.4
94162.4
91006.8
85877.6
80797.7
76201.9
72136.5
69091.3
67894
67611.4
67021.7
66447.5
64766.2
63989.5
63715.5
63670
63310.3
62921.8
63120.2
63017.2
63237.1
62506.8
62283.1
62172.3
63292
63267.1
64578.9
65401.6
66467.7
67296.8
113654
113130
113316
113128
112578
112841
112505
112097
112518
112234
111919
112396
112236
112125
112861
113271
113400
115513
117461
116446
117676
119141
118725
115566
111685
107618
104011
102641
98271.9
94328
90065.7
86407.8
81641.3
77641
73414.9
70486
69794.7
69624.4
68039.3
67703
65541.7
64597.4
64546.4
64298
64321.9
64304.5
64015.4
63128.6
62891.3
62910.1
63233.1
63298.8
64327.3
64325.6
65196.1
66257.1
67502
68316.3
116204
116062
115964
115771
115375
115306
115052
114708
114711
114507
114179
114267
113859
113763
113972
113594
113608
113884
113623
113870
114372
114699
115097
116959
118745
118137
119103
120436
119524
116157
112864
108925
105082
103197
99918.5
95290.3
90957.4
88156.6
83483.6
79801.4
75692.6
72880.9
72133.6
72393.1
70239.2
69968
67377.8
66472
66224.3
66201.3
65913.6
65228.1
64652
64382
64475.9
64783.3
65310.6
65313.6
65753.6
66006.1
66644.1
68017.4
68923.8
69394.6
116785
116373
116164
116220
115888
115460
115506
115266
114881
114923
114781
114372
114465
114150
113925
114161
113881
113772
114084
114004
114042
114633
115047
115252
117065
118829
118174
119138
120264
118649
115703
112626
108945
105358
102929
100432
95553.1
91654.8
89291
84501.4
80791.4
77347.1
74044.9
73018.8
76226.2
72199.1
71731.3
69079
67893
67144.8
66039.1
65377.6
65488.4
65015.8
65247.5
65539.2
65914.8
66305.7
65940
66516.4
66692
67628.6
69163.9
69666.5
70136.2
117235
117065
116632
116394
116522
116158
115684
115831
115564
115084
115243
115093
114568
114784
114459
114144
114475
114180
113994
114403
114301
114270
114931
115318
115430
117246
118943
118247
119208
120035
117925
115120
112243
108724
105176
102408
101025
95655.3
92011.6
91138
85534.3
81558.9
78878.7
74996.7
74197.8
78820.2
73818.9
75496.9
70792.6
68627.7
67318.2
66295.7
65761.3
66008.7
65801.6
66106.9
66403.1
66397.6
66888.7
66546.8
67356.4
67776.9
68443.6
69477.6
70178.2
70835.3
118403
118452
118158
117908
117708
117645
117397
117061
116989
116802
116481
116443
116324
115988
116009
115696
115588
115726
115425
115441
115665
115562
115751
116212
116595
116876
118432
120013
119593
120328
120765
118496
115781
113173
109788
106195
103463
102631
96752.5
94312.7
94421.1
88038.7
83608.3
81591.1
77217.2
74423.6
69929.7
73613.4
78192.5
70914.2
68882.4
68015.2
67928.2
67600.9
67834
67902.4
67988.8
67891.4
67850.9
68470.5
68442.3
69529
70323.8
70851.1
71141.7
71540.3
72170.4
118613
118687
118364
118164
117962
117837
117680
117310
117186
117111
116730
116706
116648
116234
116284
116022
115832
116008
115742
115686
115930
115860
115986
116432
116850
117045
118487
120042
119657
120260
120239
117815
115230
112849
109671
106162
103192
101543
97200.6
93373.6
88846.8
88125.1
84287
82035.2
79043.4
75273.1
69558.2
71320.7
68057.1
69954.9
69131.2
68347.6
68853.1
68818.9
68909.6
68989.3
68668
68702.6
68708.9
69543
69557.9
70107.9
70615.7
70671.1
71653.3
72218.9
72959.1
119787
119791
119339
119299
119118
118870
118782
118505
118259
118182
117944
117798
117694
117454
117400
117058
117108
117150
116784
116975
117084
116912
117284
117575
117904
118275
119534
120888
120757
121189
120583
118274
115709
113530
110517
106920
104112
101628
98727.7
94303.3
89026
91611.7
86396.4
83420.5
81655.6
77571.2
73113.3
72841.4
68465.2
71336.6
71196.1
70639.1
70836.1
70447.5
70138
70475.8
69996.2
70599.3
70728.8
71212.1
70746.6
71026.8
71271.3
71337.8
72777.7
73414.9
74207.1
119933
119878
119583
119413
119202
119046
118912
118580
118391
118351
118055
117903
117887
117594
117488
117260
117217
117234
117044
117090
117255
117177
117376
117700
118092
118293
119469
120772
120570
120906
119881
117589
115179
113178
110332
106994
104149
101496
99592.6
94261.4
91299.6
94928.3
87809.1
84386.9
82112.3
79343
75675.3
74287.8
72534.2
73910.6
73153.7
72524.1
71604.2
71205.7
71061.3
71301.8
71104.9
72093.1
72233.9
72114.8
71381.3
71797.8
71952.9
72236.2
73481.9
74071.1
75028.5
120128
120090
119763
119625
119411
119246
119137
118782
118615
118585
118248
118128
118112
117766
117709
117466
117386
117454
117232
117267
117467
117360
117543
117867
118217
118392
119499
120718
120524
120613
119254
117099
114686
112764
110038
106752
103998
101005
98508.6
94560.5
89773.9
84890.3
88553.4
85377
82203.8
79906.6
78212
76367.9
74539.5
74694.9
73896.5
73406.3
72666.3
71978.8
72209.4
72533.6
72039.2
71979.2
71647.3
72218.7
72185.8
72539
72828.2
73218.3
74266.7
74835.4
75762.8
121184
121089
120719
120652
120459
120225
120149
119876
119615
119578
119351
119128
119110
118885
118731
118468
118517
118483
118231
118398
118491
118361
118674
118880
119187
119442
120375
121477
121415
121069
119539
117553
115158
113345
110738
107525
104862
101727
98680.1
96389.4
90690.6
85199.4
90503.9
88802.6
84103.2
81316.6
79879
78428.7
76757.5
75379
75058.6
74866.8
74699.2
74148.1
74309.9
74298.9
73032.6
73057.6
72642
73402.3
73495.3
73874
74174.6
74533.1
75531.1
76162.2
77275.2
121260
121148
120818
120740
120520
120271
120239
119925
119653
119682
119401
119152
119212
118931
118744
118553
118611
118597
118397
118495
118588
118504
118733
118918
119259
119402
120197
121276
121166
120387
118789
116948
114576
112956
110472
107444
104841
101689
98916.5
97382.2
91587.7
86222.9
84855.3
90414.7
86029.8
82735.7
81147.8
79509.6
77663.3
75835.1
75621
75589.6
76165.7
75275.5
74439.6
74525.4
73593.5
73832.9
73465.6
74135.6
74173.4
74600.2
74946.5
75249.1
76326.1
77048.7
78373.4
121458
121368
121048
120959
120738
120529
120464
120129
119917
119908
119590
119408
119431
119099
118988
118753
118789
118835
118582
118665
118805
118665
118888
119100
119387
119477
120235
121241
121010
119869
118283
116508
114254
112608
110194
107263
104700
101681
98586.6
96416.3
92537.6
87151.3
82315.1
80885.6
85438.2
84728
83007.5
81115.9
78715
77088.4
77280.6
77010.8
75663.9
74443
74783.9
74647.6
74371.7
74686.1
74413.5
74992.8
75113.8
75513.6
75863
76234.2
77197.3
77691.2
78828.7
122421
122283
121934
121919
121710
121438
121417
121144
120833
120850
120611
120318
120368
120136
119918
119694
119804
119745
119503
119666
119705
119571
119853
119947
120214
120342
120904
121897
121472
120082
118602
116867
114677
113133
110781
107948
105470
102464
99468.4
96548.2
92953.4
89332.3
84680.5
79957.8
82561.4
86402.1
87111.8
86047.2
82868.8
79954.3
79691.5
79060.1
76707.6
75611.8
75795.4
75350
75499.9
76028.7
75834.1
76366.5
76510.5
76853.7
77164.9
77540.4
78431
78710.9
79532.6
122610
122478
122083
122115
121907
121577
121613
121337
120991
121055
120807
120485
120565
120313
120084
119870
119969
119894
119647
119805
119819
119675
119933
119974
120228
120313
120729
121748
120932
119396
118087
116400
114245
112801
110565
107820
105450
102536
99664.1
96778.1
93222.9
90998.9
86410.6
82153.9
81070.9
81357.6
87404
88666.1
84137.3
78703
77202.7
76118.2
76824.4
76513.2
76565.5
76384
76284.5
76913.8
76736
77259.8
77451.5
77752.9
78036.8
78314.4
79344
79497.4
80313.5
123517
123369
122908
122996
122827
122438
122472
122271
121877
121900
121745
121383
121404
121244
120983
120686
120908
120779
120451
120716
120674
120445
120802
120787
120949
121052
121344
122293
121158
119606
118319
116713
114636
113230
111100
108396
106139
103352
100481
97776.8
94248.3
91718.8
88831.6
84834.5
82857.6
79868.5
77021.2
76936.2
77666.1
78501.6
77244.4
76035.6
77778
77805.9
77936.2
77856.7
77670.1
78360.3
78160.6
78628.1
78851.3
79194.5
79465.8
79839.1
81293.8
80743.3
81368.2
123540
123354
122985
123043
122807
122475
122530
122251
121889
121971
121718
121367
121473
121235
120960
120821
120947
120860
120596
120740
120723
120543
120758
120745
120927
120868
121059
121945
120538
118993
117781
116147
114186
112887
110851
108329
106132
103445
100703
98019.4
94837.5
91722.4
89205.7
86752.4
84165.6
80693.9
76498.4
75240.2
75593.6
78396.7
78039.2
77775.4
78598.5
78456.7
78721.9
78706.1
78464
79116.1
78937.5
79392.4
79649.8
80161.5
80468.7
81075.9
82986.1
81730.7
82206
123742
123565
123132
123236
123018
122630
122721
122459
122064
122160
121918
121548
121650
121414
121140
120965
121120
121012
120717
120905
120861
120649
120902
120856
120993
120889
121007
121591
120071
118625
117443
115882
113949
112666
110686
108219
106148
103598
100903
98396.8
95424.1
92623.5
89575.8
87323.5
85736.8
82735.7
79844.7
78494.6
78855.1
79841.4
79357.2
79219.2
79500.8
79361
79668.4
79773.8
79520
80160.3
79944.7
80358.4
80641.9
81105.7
81109.7
81433.9
83273.3
82889.8
83402.1
124562
124378
123924
124039
123840
123425
123507
123289
122869
122942
122750
122355
122429
122231
121941
121722
121928
121786
121454
121683
121608
121360
121650
121556
121647
121467
121509
121678
120184
118810
117653
116158
114309
113095
111205
108818
106858
104424
101775
99476
96662.3
94030.7
91297.4
88399.9
86968.4
85660.9
83025
81227.5
81528.8
82466.5
81831.8
81110.8
81371.3
81165.5
81477.4
81609.8
81043.9
81802.9
81777.6
82189.3
82500.2
83342.3
82412.6
82461.2
83733.8
83948.9
84579.7
124540
124311
123912
124030
123772
123375
123496
123218
122795
122932
122672
122265
122420
122221
121925
121794
121935
121801
121514
121661
121577
121352
121536
121408
121508
121177
121128
121009
119495
118149
117086
115620
113859
112758
110963
108732
106857
104508
102007
99826
97180.8
94761.3
92173.4
89591.2
87559.9
86221
85722.5
83719.8
83112.2
83769.8
83606.7
83218
83216.1
82730.4
82844.5
82817.2
82681.4
83116.5
83193
83618.5
84091
85306.5
83619.8
83556.6
84624.2
84845.1
85376.3
124745
124525
124063
124225
123978
123538
123680
123413
122974
123115
122860
122454
122607
122390
122104
121943
122119
121967
121644
121831
121732
121469
121679
121533
121579
121148
120938
120485
119197
117867
116850
115475
113759
112665
110923
108747
106995
104789
102370
100375
97875.6
95620.6
93224.9
90693
89008.6
86999.4
85967.1
85175.2
85527.6
84386.8
84709
85730.5
84498.5
83806.6
83603.2
83849.8
84868.2
83909
83679
84140.4
84555.3
85579.2
84966
84943.3
85885.2
86174.6
86694.2
125441
125208
124738
124910
124670
124215
124360
124115
123655
123795
123563
123135
123282
123074
122763
122588
122779
122603
122272
122463
122332
122047
122258
122051
122079
121546
121061
120450
119311
117985
117026
115707
114073
113062
111401
109326
107680
105577
103263
101422
99051.2
96957.6
94720.1
92224.2
90746.6
88901.5
87387.3
86245.6
86091.3
85155.9
85328
86301.5
85866.7
85218.5
85007.6
84702.5
85252
85073.3
84755.9
85159.6
85514.6
85993.5
86111.7
86169.5
87048.2
87400.8
87936.5
125356
125105
124624
124823
124562
124082
124268
124002
123519
123707
123483
123026
123233
123074
122749
122585
122750
122567
122241
122388
122236
121942
122092
121853
121809
121199
120515
119831
118728
117386
116488
115231
113646
112741
111197
109221
107677
105674
103490
101768
99530.8
97613.7
95537.3
93189
91816.7
90080.3
88713.8
87695.3
86537.7
86071.6
86061.7
86434
86822.8
86416.1
86319.8
86155.9
85723.4
86082
85836.2
86324.1
86609.4
86954.8
87144.5
87045
87839.3
88187.1
88743.9
125585
125322
124849
125050
124765
124311
124497
124201
123756
123946
123674
123262
123479
123251
122954
122794
122965
122781
122439
122597
122447
122126
122273
121991
121769
121108
120318
119627
118585
117306
116448
115235
113748
112840
111313
109428
107984
106106
104033
102459
100363
98584.1
96619.6
94518.3
93251.5
91598.5
90362.6
89353.5
88198.7
87885.6
87374.6
87574
88196.4
87962.9
88078.1
88046.3
87499.5
87928
87602.8
87989.5
88139.5
88480.2
88645.2
88520.3
89259.3
89566.7
90113
126140
125853
125360
125579
125297
124804
125007
124739
124246
124453
124222
123754
123978
123789
123428
123269
123451
123227
122889
123041
122849
122513
122670
122221
121878
121254
120317
119620
118661
117388
116586
115440
114005
113183
111733
109940
108596
106799
104846
103380
101393
99743.5
97912.1
95976.3
94776.8
93181
92049.4
91085.2
89866.7
89618.9
89030.5
88651.6
89156.9
89015
89408.3
89615.5
89153.2
89452
89193.7
89462.9
89538.2
89826.8
90014.7
89830.4
90438.1
90725.3
91180.8
126261
125996
125453
125680
125414
124886
125093
124839
124329
124525
124301
123831
124038
123856
123502
123310
123502
123281
122902
123059
122857
122489
122575
122018
121603
120953
119962
119274
118376
117138
116376
115303
113920
113156
111805
110074
108834
107161
105288
103960
102102
100572
98798.6
96995.8
95924.9
94429.1
93377.8
92420.2
91226.2
90990.3
90422.8
89672.1
89975
89870.1
90243.3
90397.9
90138.7
90602.9
90517.4
90776.8
90818.7
91059.3
91227.6
91046.2
91585.3
91721.1
92073.1
126737
126471
125929
126155
125891
125358
125557
125307
124791
124976
124749
124271
124469
124286
123924
123719
123909
123680
123285
123435
123217
122821
122776
122155
121711
121025
120005
119340
118472
117280
116568
115536
114227
113517
112222
110581
109424
107844
106073
104841
103097
101682
99950.5
98298.9
97313.8
95877.6
94901
93935.5
92787.1
92558.5
91935.4
91142.2
91211.9
90908.7
91166.8
91329.7
91186.7
91593.4
91501.1
91810.5
91878.5
92137.7
92231.2
92006
92458.7
92568.6
92913.4
126817
126567
126002
126245
125999
125437
125649
125412
124867
125057
124838
124334
124531
124360
123971
123753
123939
123694
123286
123430
123196
122689
122566
121915
121449
120762
119710
119076
118266
117090
116423
115460
114188
113541
112332
110761
109696
108209
106535
105402
103756
102433
100908
99342.1
98409.7
97030.9
96095.5
95190.8
94052.9
93831.9
93192.1
92390.5
92421
91962
91987.3
92104.2
92019.7
92446.9
92333.1
92618.1
92704.2
92942.3
93043.6
92877.4
93327.5
93428.4
93769.2
127223
126982
126402
126637
126403
125840
126036
125809
125273
125445
125213
124721
124913
124714
124339
124106
124309
124047
123618
123780
123465
122843
122714
122039
121549
120817
119786
119177
118373
117260
116638
115703
114507
113917
112762
111272
110295
108894
107297
106278
104726
103425
102040
100551
99701.4
98381.9
97507.5
96563.1
95476
95264.6
94604
93796.2
93821.3
93328
93217.9
93120
92962.7
93404.2
93296.4
93514.8
93583.6
93818.8
93863.5
93748.3
94186.2
94284.7
94592.7
127086
126808
126260
126506
126230
125676
125906
125659
125119
125351
125171
124663
124862
124649
124244
124014
124150
123898
123487
123571
123187
122522
122310
121628
121145
120416
119378
118790
118010
116918
116340
115446
114300
113762
112672
111271
110339
109003
107518
106523
105069
103852
102586
101160
100352
99103.8
98286.9
97396.4
96340.4
96085.4
95431.2
94669.8
94626.3
94131.7
93983
93864.2
93596.1
93912.2
93822.4
93978.2
94031.3
94318.6
94384.1
94306.5
94682.7
94786.8
95101.1
127328
127041
126476
126744
126457
125909
126151
125886
125368
125603
125381
124897
125100
124869
124480
124245
124412
124154
123700
123738
123293
122592
122409
121718
121216
120480
119482
118931
118190
117155
116618
115771
114676
114161
113100
111737
110894
109653
108227
107349
105951
104891
103713
102332
101609
100436
99671.5
98791.6
97789.7
97551
96908
96135.1
96137.1
95642.5
95480.6
95320.5
94885.6
95146.5
95059.5
95160.5
95159.3
95478.5
95535.3
95489.1
95870.6
95955.6
96273.7
127617
127333
126770
127038
126759
126202
126442
126192
125656
125882
125671
125160
125350
125140
124722
124476
124627
124363
123848
123804
123323
122626
122416
121705
121210
120504
119506
118980
118278
117273
116774
115966
114916
114456
113458
112173
111384
110206
108870
108036
106694
105756
104636
103326
102650
101529
100794
99971.1
98997.9
98722.4
98095.8
97348.8
97297.9
96801
96614.1
96410.7
95953.1
96172.3
96038.1
96038
95937.5
96219
96309.1
96234.4
96584.2
96694.3
96995.4
127685
127418
126824
127100
126840
126259
126498
126264
125716
125932
125728
125208
125385
125180
124763
124498
124676
124353
123742
123708
123209
122480
122284
121574
121067
120380
119405
118906
118251
117283
116817
116073
115056
114636
113716
112476
111759
110659
109363
108613
107389
106514
105443
104189
103580
102535
101828
101045
100108
99835.1
99243
98489.8
98466
97963.7
97770.9
97534.9
97054.5
97267.3
97115.4
97147.7
97010.6
97234.2
97362.5
97200.9
97555.9
97694.8
98044.9
127959
127689
127097
127364
127100
126524
126758
126515
125966
126181
125962
125438
125618
125396
124978
124724
124857
124463
123836
123773
123259
122535
122323
121614
121126
120447
119501
119037
118396
117470
117046
116338
115378
114996
114113
112938
112265
111216
110002
109281
108178
107346
106312
105144
104569
103570
102899
102136
101237
100958
100370
99636.3
99580.2
99087.8
98881.7
98601.4
98140.2
98287.6
98115.7
98154.3
98009.6
98195.1
98341.1
98103.5
98460
98616.1
98944.1
128026
127769
127156
127429
127183
126581
126815
126591
126017
126222
126022
125475
125642
125442
125013
124726
124812
124381
123735
123674
123148
122412
122215
121509
121025
120387
119466
119029
118448
117543
117162
116519
115588
115245
114424
113284
112664
111684
110516
109883
108846
108060
107102
105983
105458
104520
103863
103171
102301
102028
101468
100743
100699
100212
100009
99716.1
99268.9
99402.4
99185.4
99233.5
99118.1
99246.1
99384.5
99195.4
99567.8
99700.3
100011
128239
127976
127365
127638
127380
126787
127020
126774
126209
126416
126184
125644
125819
125583
125177
124831
124868
124434
123777
123702
123173
122432
122238
121548
121088
120435
119559
119172
118610
117751
117422
116781
115886
115580
114778
113696
113130
112207
111090
110538
109561
108817
107884
106825
106347
105451
104830
104131
103299
103046
102485
101778
101735
101251
101046
100717
100277
100391
100149
100163
100072
100137
100217
100080
100423
100550
100848
128298
128044
127419
127689
127450
126835
127066
126841
126251
126451
126246
125675
125843
125647
125170
124779
124808
124350
123693
123614
123079
122347
122164
121478
121029
120446
119579
119219
118730
117903
117587
116984
116110
115837
115093
114061
113551
112676
111630
111128
110189
109490
108648
107636
107184
106349
105751
105125
104319
104061
103532
102851
102796
102325
102107
101811
101387
101470
101227
101219
101151
101175
101236
101141
101448
101562
101846
128459
128202
127574
127847
127593
126986
127220
126965
126386
126593
126350
125797
125983
125711
125198
124798
124829
124369
123689
123617
123091
122348
122185
121517
121092
120495
119667
119366
118857
118071
117795
117211
116390
116152
115439
114457
113998
113157
112164
111734
110834
110187
109354
108389
107993
107181
106646
105989
105208
104988
104455
103790
103759
103284
103084
102751
102323
102424
102172
102149
102049
102060
102042
101937
102271
102367
102635
128508
128261
127624
127895
127658
127031
127261
127025
126420
126624
126411
125829
126001
125715
125140
124755
124764
124288
123632
123550
123016
122307
122138
121480
121079
120560
119744
119467
119002
118231
117967
117455
116668
116439
115793
114856
114409
113634
112718
112283
111426
110822
110074
109159
108771
108013
107500
106925
106174
105941
105449
104821
104760
104314
104092
103802
103397
103456
103217
103191
103086
103092
103093
102953
103269
103354
103608
128660
128399
127759
128044
127779
127166
127413
127118
126542
126768
126510
125963
126102
125730
125175
124790
124820
124341
123666
123607
123080
122361
122227
121592
121223
120673
119905
119664
119180
118447
118238
117731
117013
116851
116214
115296
114921
114203
113298
112933
112129
111567
110817
109940
109613
108880
108416
107797
107074
106892
106392
105767
105743
105291
105091
104766
104350
104439
104194
104175
104004
104039
103991
103797
104134
104203
104441
128406
128124
127526
127797
127538
126945
127185
126984
126422
126628
126407
125823
125898
125551
124972
124571
124536
124083
123430
123303
122809
122115
121925
121328
120974
120462
119715
119478
119039
118323
118125
117651
116943
116759
116137
115296
114933
114245
113409
113012
112259
111734
111052
110239
109897
109208
108763
108224
107542
107334
106881
106323
106221
105806
105617
105324
104949
104991
104764
104728
104589
104605
104612
104411
104694
104770
104985
128736
128439
127824
128137
127867