/*--------------------------------*- C++ -*----------------------------------*\
| =========                 |                                                 |
| \\      /  F ield         | OpenFOAM: The Open Source CFD Toolbox           |
|  \\    /   O peration     | Version:  v2012                                 |
|   \\  /    A nd           | Website:  www.openfoam.com                      |
|    \\/     M anipulation  |                                                 |
\*---------------------------------------------------------------------------*/
FoamFile
{
    version     2.0;
    format      ascii;
    class       volScalarField;
    location    "1e-06";
    object      totalPPrime2Mean;
}
// * * * * * * * * * * * * * * * * * * * * * * * * * * * * * * * * * * * * * //

dimensions      [2 -2 -4 0 0 0 0];


internalField   nonuniform List<scalar> 
10295
(
8.92919e+14
8.51021e+14
8.10374e+14
7.70021e+14
7.30008e+14
6.91248e+14
6.52663e+14
6.14468e+14
5.77534e+14
5.40736e+14
5.04103e+14
4.68528e+14
4.33177e+14
3.98055e+14
3.64754e+14
3.33086e+14
3.02565e+14
2.73847e+14
2.39317e+14
1.96398e+14
1.59843e+14
1.27318e+14
9.52568e+13
6.43132e+13
3.47112e+13
1.81159e+13
1.86157e+13
1.00545e+13
6.6046e+12
4.93299e+12
1.62413e+12
9.08417e+11
1.42068e+11
3.55407e+08
9.41102e+07
4.36449e+07
3.03351e+07
2.22677e+07
1.85811e+07
1.4972e+07
1.32664e+07
1.29117e+07
1.18141e+07
1.2387e+07
1.25129e+07
1.20311e+07
1.20822e+07
1.11385e+07
1.19097e+07
1.24087e+07
1.19607e+07
1.25284e+07
1.42042e+07
1.49755e+07
1.87777e+07
1.82703e+07
1.9972e+07
1.7532e+07
8.92911e+14
8.51017e+14
8.10366e+14
7.70015e+14
7.30003e+14
6.91241e+14
6.52656e+14
6.14465e+14
5.77529e+14
5.40733e+14
5.04102e+14
4.68526e+14
4.33049e+14
3.97989e+14
3.64686e+14
3.32791e+14
3.0209e+14
2.72407e+14
2.37405e+14
1.95211e+14
1.59839e+14
1.27322e+14
9.52775e+13
6.44104e+13
3.52389e+13
1.85923e+13
1.76002e+13
1.04792e+13
6.53009e+12
5.13784e+12
1.79677e+12
8.55722e+11
1.8944e+11
4.3578e+09
5.14523e+08
1.55021e+07
9.93355e+06
5.14204e+06
2.57659e+06
2.69328e+06
3.26889e+06
3.98569e+06
4.47846e+06
5.1648e+06
5.77818e+06
5.74151e+06
6.16753e+06
5.80269e+06
6.74928e+06
7.38507e+06
6.94942e+06
7.57491e+06
9.43219e+06
1.12794e+07
1.73428e+07
1.42288e+07
1.27576e+07
1.02266e+07
8.9292e+14
8.51028e+14
8.10377e+14
7.70023e+14
7.30016e+14
6.91253e+14
6.52666e+14
6.14479e+14
5.77543e+14
5.4074e+14
5.04115e+14
4.68537e+14
4.33055e+14
3.97993e+14
3.64579e+14
3.32434e+14
3.01313e+14
2.70892e+14
2.35493e+14
1.94259e+14
1.59843e+14
1.27357e+14
9.53564e+13
6.45833e+13
3.58291e+13
1.90327e+13
1.6626e+13
1.09896e+13
6.48251e+12
4.9265e+12
2.04313e+12
8.10314e+11
2.31956e+11
2.49361e+10
7.10612e+09
1.36961e+09
7.42805e+08
4.18596e+08
1.90465e+08
2.46015e+07
4.30344e+06
1.7994e+06
888774
1.27981e+06
1.45277e+06
1.79784e+06
2.4112e+06
2.4087e+06
3.58903e+06
3.44893e+06
3.84123e+06
4.25657e+06
4.72214e+06
6.61526e+06
8.94108e+06
6.73017e+06
5.81415e+06
4.68112e+06
8.92926e+14
8.51038e+14
8.10385e+14
7.70028e+14
7.30027e+14
6.91263e+14
6.52673e+14
6.14492e+14
5.77555e+14
5.40744e+14
5.04125e+14
4.68545e+14
4.33063e+14
3.97996e+14
3.64438e+14
3.32014e+14
3.00312e+14
2.69312e+14
2.33592e+14
1.93626e+14
1.59858e+14
1.2742e+14
9.5487e+13
6.48407e+13
3.6447e+13
1.95104e+13
1.58735e+13
1.15123e+13
6.52287e+12
4.68285e+12
2.33763e+12
8.32438e+11
2.60676e+11
6.98551e+10
2.6776e+10
9.56676e+09
4.13375e+09
3.09563e+09
2.04114e+09
1.08249e+09
6.20932e+08
2.74722e+08
1.09306e+08
5.56999e+07
4.88521e+07
2.5423e+07
1.36731e+07
3.99113e+06
2.74611e+06
3.8118e+06
966784
892269
785374
531953
1.13866e+06
7.80509e+06
1.43193e+08
1.2479e+08
8.9295e+14
8.51066e+14
8.1041e+14
7.70049e+14
7.30055e+14
6.91289e+14
6.52696e+14
6.14523e+14
5.77583e+14
5.40761e+14
5.04151e+14
4.68566e+14
4.33084e+14
3.98011e+14
3.64304e+14
3.31495e+14
2.99216e+14
2.67687e+14
2.31733e+14
1.93518e+14
1.5991e+14
1.2753e+14
9.56853e+13
6.51878e+13
3.71434e+13
2.00593e+13
1.53317e+13
1.16488e+13
6.67538e+12
4.53557e+12
2.63919e+12
9.29008e+11
3.13236e+11
1.36526e+11
6.42793e+10
2.94561e+10
8.21219e+09
9.62694e+09
7.35249e+09
5.10651e+09
3.49727e+09
2.29565e+09
1.38825e+09
9.67825e+08
8.71912e+08
6.48634e+08
5.05456e+08
3.87513e+08
2.60079e+08
2.85552e+08
1.53768e+08
1.44961e+08
1.31309e+08
6.87149e+07
1.43689e+08
4.61618e+08
1.15882e+09
1.0668e+09
8.92984e+14
8.51104e+14
8.10444e+14
7.7008e+14
7.30094e+14
6.91324e+14
6.52729e+14
6.14565e+14
5.77619e+14
5.40786e+14
5.04186e+14
4.68594e+14
4.33112e+14
3.98032e+14
3.6415e+14
3.3089e+14
2.98018e+14
2.66002e+14
2.29887e+14
1.93531e+14
1.59995e+14
1.27683e+14
9.59442e+13
6.56179e+13
3.79445e+13
2.07057e+13
1.49826e+13
1.14714e+13
6.94797e+12
4.4825e+12
2.67564e+12
1.10084e+12
4.03913e+11
1.67797e+11
1.25948e+11
6.57193e+10
2.40608e+10
1.59147e+10
1.81849e+10
1.38239e+10
1.04005e+10
7.94081e+09
5.5935e+09
4.41604e+09
3.83964e+09
3.1488e+09
2.65455e+09
2.26967e+09
1.59857e+09
1.65571e+09
1.10678e+09
1.06606e+09
8.85946e+08
4.61777e+08
1.48832e+09
2.71671e+09
4.23828e+09
4.05602e+09
8.93019e+14
8.51146e+14
8.10482e+14
7.70113e+14
7.30136e+14
6.91362e+14
6.52765e+14
6.14611e+14
5.77657e+14
5.40814e+14
5.04222e+14
4.68624e+14
4.33141e+14
3.98055e+14
3.64014e+14
3.30322e+14
2.96829e+14
2.64287e+14
2.2855e+14
1.93567e+14
1.60111e+14
1.27878e+14
9.62578e+13
6.6125e+13
3.88164e+13
2.14281e+13
1.48161e+13
1.12401e+13
7.33892e+12
4.52922e+12
2.66794e+12
1.35239e+12
5.39355e+11
2.1922e+11
2.09237e+11
1.22645e+11
5.73338e+10
2.67059e+10
3.5031e+10
2.90768e+10
2.29375e+10
1.86261e+10
1.4253e+10
1.1951e+10
1.01657e+10
8.72635e+09
7.57725e+09
6.69744e+09
5.0504e+09
5.09048e+09
3.54481e+09
3.39521e+09
1.92379e+09
2.68887e+09
5.51278e+09
8.03016e+09
1.01138e+10
9.7861e+09
8.93075e+14
8.5121e+14
8.1054e+14
7.70166e+14
7.302e+14
6.91419e+14
6.5282e+14
6.14677e+14
5.77713e+14
5.4086e+14
5.04279e+14
4.68671e+14
4.33188e+14
3.98097e+14
3.63956e+14
3.29832e+14
2.95839e+14
2.62585e+14
2.28188e+14
1.93649e+14
1.60273e+14
1.28134e+14
9.66419e+13
6.67151e+13
3.97668e+13
2.22373e+13
1.4828e+13
1.1148e+13
7.85198e+12
4.67704e+12
2.72549e+12
1.66864e+12
7.24558e+11
3.09476e+11
2.3772e+11
2.05101e+11
1.10696e+11
5.49919e+10
4.08794e+10
5.25911e+10
4.28193e+10
3.57587e+10
2.86363e+10
2.46992e+10
2.10778e+10
1.85474e+10
1.63403e+10
1.47893e+10
1.11264e+10
1.09939e+10
5.22863e+09
4.96607e+09
6.27689e+09
8.55173e+09
1.35555e+10
1.76386e+10
1.27054e+10
1.17921e+10
8.93132e+14
8.51277e+14
8.10601e+14
7.70222e+14
7.30267e+14
6.91479e+14
6.52879e+14
6.14747e+14
5.77774e+14
5.40909e+14
5.04337e+14
4.68722e+14
4.33236e+14
3.98142e+14
3.63952e+14
3.29549e+14
2.95221e+14
2.61759e+14
2.28217e+14
1.9376e+14
1.60476e+14
1.28442e+14
9.70878e+13
6.73723e+13
4.07929e+13
2.31349e+13
1.50068e+13
1.11446e+13
8.48902e+12
4.93156e+12
2.84809e+12
1.82237e+12
9.68819e+11
4.46587e+11
2.83969e+11
3.18092e+11
1.88593e+11
1.0603e+11
5.96152e+10
7.79451e+10
6.96606e+10
5.96435e+10
5.06791e+10
4.44544e+10
3.69799e+10
3.29926e+10
2.93152e+10
2.68643e+10
1.37383e+10
1.3046e+10
1.12545e+10
1.18297e+10
1.63094e+10
1.95974e+10
2.72847e+10
3.20256e+10
1.93668e+10
1.91584e+10
8.93208e+14
8.51364e+14
8.10681e+14
7.70297e+14
7.30354e+14
6.91559e+14
6.52955e+14
6.14837e+14
5.77852e+14
5.40976e+14
5.04415e+14
4.68791e+14
4.33302e+14
3.98207e+14
3.63979e+14
3.29542e+14
2.95242e+14
2.61784e+14
2.2828e+14
1.93916e+14
1.60732e+14
1.2882e+14
9.7622e+13
6.81108e+13
4.1902e+13
2.41295e+13
1.53464e+13
1.12286e+13
9.22511e+12
5.30422e+12
3.04815e+12
1.91402e+12
1.28141e+12
6.35294e+11
3.69112e+11
4.442e+11
2.98028e+11
1.82826e+11
1.03513e+11
8.20127e+10
7.31661e+10
6.57217e+10
7.96638e+10
7.05745e+10
4.09905e+10
3.61663e+10
3.21219e+10
2.90929e+10
2.27153e+10
2.31811e+10
2.47138e+10
2.67668e+10
3.3663e+10
3.77128e+10
4.71718e+10
3.46831e+10
3.24161e+10
3.40756e+10
8.93296e+14
8.51468e+14
8.10774e+14
7.70386e+14
7.30458e+14
6.91652e+14
6.53046e+14
6.14943e+14
5.77944e+14
5.41057e+14
5.04509e+14
4.68875e+14
4.33381e+14
3.98289e+14
3.64024e+14
3.29581e+14
2.9528e+14
2.61827e+14
2.28341e+14
1.9411e+14
1.61042e+14
1.29269e+14
9.82499e+13
6.89609e+13
4.31302e+13
2.5251e+13
1.58528e+13
1.14007e+13
9.62509e+12
5.80921e+12
3.341e+12
2.04484e+12
1.66692e+12
8.83852e+11
5.04926e+11
4.5887e+11
4.45951e+11
2.91838e+11
1.79642e+11
1.15239e+11
9.50396e+10
8.35766e+10
8.17374e+10
7.18666e+10
5.574e+10
5.11711e+10
4.63348e+10
4.3894e+10
4.34037e+10
4.57679e+10
4.85803e+10
5.24287e+10
6.12931e+10
6.43618e+10
5.02428e+10
4.5381e+10
5.39134e+10
5.8157e+10
8.93389e+14
8.51579e+14
8.10876e+14
7.70483e+14
7.3057e+14
6.91754e+14
6.53147e+14
6.15059e+14
5.78046e+14
5.41149e+14
5.04612e+14
4.68969e+14
4.33471e+14
3.9838e+14
3.64086e+14
3.29647e+14
2.9536e+14
2.61889e+14
2.28487e+14
1.94352e+14
1.61406e+14
1.29785e+14
9.89638e+13
6.99063e+13
4.44511e+13
2.64745e+13
1.65169e+13
1.16672e+13
9.96192e+12
6.44978e+12
3.72659e+12
2.24479e+12
1.93913e+12
1.20132e+12
6.98561e+11
5.10084e+11
5.8877e+11
4.40896e+11
2.90408e+11
1.8916e+11
1.49676e+11
1.28858e+11
1.04654e+11
9.50668e+10
9.04786e+10
8.56184e+10
7.88771e+10
7.69782e+10
7.85619e+10
8.26989e+10
8.58236e+10
9.15404e+10
9.9499e+10
6.88507e+10
6.32191e+10
6.83362e+10
8.58816e+10
9.3348e+10
8.93506e+14
8.51713e+14
8.11e+14
7.70604e+14
7.30707e+14
6.91878e+14
6.53272e+14
6.152e+14
5.78171e+14
5.41266e+14
5.04741e+14
4.69086e+14
4.33585e+14
3.98498e+14
3.64172e+14
3.29738e+14
2.95476e+14
2.62031e+14
2.28671e+14
1.94659e+14
1.61837e+14
1.30384e+14
9.97797e+13
7.09557e+13
4.58736e+13
2.78067e+13
1.73388e+13
1.20369e+13
1.02565e+13
7.23352e+12
4.21253e+12
2.5254e+12
2.05109e+12
1.5988e+12
9.53167e+11
6.25498e+11
6.08064e+11
6.3635e+11
4.41657e+11
3.0589e+11
2.41938e+11
2.06382e+11
1.61063e+11
1.47943e+11
1.4955e+11
1.417e+11
1.31521e+11
1.29826e+11
1.3144e+11
1.37264e+11
1.36634e+11
1.43718e+11
1.02651e+11
8.40582e+10
9.06041e+10
1.04494e+11
1.31428e+11
1.3999e+11
8.93628e+14
8.51854e+14
8.11133e+14
7.70736e+14
7.30853e+14
6.92012e+14
6.53408e+14
6.15351e+14
5.78307e+14
5.41396e+14
5.04883e+14
4.69217e+14
4.33714e+14
3.9863e+14
3.64275e+14
3.29845e+14
2.95604e+14
2.62181e+14
2.28891e+14
1.95014e+14
1.62328e+14
1.31054e+14
1.00681e+14
7.21154e+13
4.73982e+13
2.92441e+13
1.83191e+13
1.25157e+13
1.04913e+13
8.1695e+12
4.81691e+12
2.90216e+12
2.19213e+12
2.08503e+12
1.28078e+12
8.15359e+11
6.65998e+11
8.54045e+11
6.4445e+11
4.66688e+11
3.73576e+11
3.18323e+11
2.53094e+11
2.32017e+11
2.35527e+11
2.24322e+11
2.0863e+11
2.06649e+11
2.02723e+11
2.10695e+11
1.43622e+11
1.43564e+11
1.2081e+11
1.17376e+11
1.3406e+11
1.5664e+11
1.91522e+11
1.47409e+11
8.93774e+14
8.52019e+14
8.11288e+14
7.70895e+14
7.31026e+14
6.9217e+14
6.53571e+14
6.15531e+14
5.78469e+14
5.41555e+14
5.05055e+14
4.69376e+14
4.33872e+14
3.98792e+14
3.64408e+14
3.29984e+14
2.95764e+14
2.62362e+14
2.29161e+14
1.95432e+14
1.62892e+14
1.31809e+14
1.01676e+14
7.33496e+13
4.90353e+13
3.07892e+13
1.94203e+13
1.31141e+13
1.07065e+13
9.26165e+12
5.55618e+12
3.38569e+12
2.41378e+12
2.57257e+12
1.69879e+12
1.08394e+12
7.94674e+11
8.53563e+11
9.01273e+11
6.7976e+11
5.51141e+11
4.71536e+11
3.86785e+11
3.52497e+11
3.54471e+11
3.40206e+11
3.10244e+11
3.0616e+11
2.11186e+11
2.07866e+11
1.65397e+11
1.6548e+11
1.61605e+11
1.72124e+11
1.96806e+11
2.29589e+11
2.0946e+11
1.64169e+11
8.9393e+14
8.52194e+14
8.11455e+14
7.71068e+14
7.31213e+14
6.92341e+14
6.5375e+14
6.15726e+14
5.78646e+14
5.41733e+14
5.05246e+14
4.69554e+14
4.34053e+14
3.98976e+14
3.64567e+14
3.30151e+14
2.95953e+14
2.62577e+14
2.29473e+14
1.95908e+14
1.63527e+14
1.32644e+14
1.02767e+14
7.47353e+13
5.07893e+13
3.24404e+13
2.05931e+13
1.38403e+13
1.10167e+13
1.0403e+13
6.44462e+12
3.97634e+12
2.72624e+12
2.67029e+12
2.21789e+12
1.43753e+12
1.00913e+12
8.95852e+11
1.10138e+12
9.56998e+11
7.87505e+11
6.78086e+11
5.73321e+11
5.09998e+11
5.04563e+11
4.71841e+11
3.18945e+11
3.01007e+11
2.37808e+11
2.33272e+11
2.13708e+11
2.18501e+11
2.27235e+11
2.49846e+11
2.8413e+11
3.22887e+11
2.2652e+11
1.99731e+11
8.94111e+14
8.52394e+14
8.11644e+14
7.7127e+14
7.31428e+14
6.92539e+14
6.5396e+14
6.15952e+14
5.78853e+14
5.41944e+14
5.05472e+14
4.69765e+14
4.3427e+14
3.99199e+14
3.64765e+14
3.30362e+14
2.9619e+14
2.62843e+14
2.29849e+14
1.9646e+14
1.6425e+14
1.33578e+14
1.03963e+14
7.62745e+13
5.26668e+13
3.42094e+13
2.18809e+13
1.47054e+13
1.1449e+13
1.09987e+13
7.49016e+12
4.68463e+12
3.14808e+12
2.77814e+12
2.83793e+12
1.89265e+12
1.31992e+12
1.03323e+12
1.08663e+12
1.28304e+12
1.07209e+12
9.28275e+11
8.02139e+11
5.30579e+11
4.9957e+11
4.60506e+11
3.51911e+11
3.31704e+11
2.99138e+11
2.98817e+11
2.92779e+11
3.0331e+11
3.22273e+11
3.55558e+11
3.98659e+11
3.24265e+11
2.6413e+11
2.57273e+11
8.94304e+14
8.52608e+14
8.11849e+14
7.71491e+14
7.31663e+14
6.92756e+14
6.54192e+14
6.16201e+14
5.79083e+14
5.42183e+14
5.05725e+14
4.70004e+14
4.34519e+14
3.99454e+14
3.64999e+14
3.30616e+14
2.96472e+14
2.6316e+14
2.30288e+14
1.97088e+14
1.65069e+14
1.34623e+14
1.05275e+14
7.79668e+13
5.46739e+13
3.61022e+13
2.33379e+13
1.5721e+13
1.20056e+13
1.15022e+13
8.70595e+12
5.53535e+12
3.69838e+12
2.99882e+12
3.22749e+12
2.46617e+12
1.72732e+12
1.28349e+12
1.14625e+12
1.28943e+12
1.07278e+12
9.14511e+11
7.78781e+11
5.72578e+11
5.34284e+11
4.98237e+11
4.31262e+11
4.15972e+11
4.02754e+11
4.05914e+11
4.08487e+11
4.24668e+11
4.54393e+11
4.98294e+11
4.51177e+11
3.48941e+11
3.27681e+11
3.38403e+11
8.94514e+14
8.52839e+14
8.12075e+14
7.71734e+14
7.31921e+14
6.93e+14
6.54451e+14
6.16478e+14
5.79344e+14
5.42453e+14
5.06012e+14
4.7028e+14
4.34805e+14
3.99751e+14
3.6528e+14
3.3092e+14
2.9681e+14
2.63541e+14
2.308e+14
1.97801e+14
1.65994e+14
1.35796e+14
1.06728e+14
7.98081e+13
5.67881e+13
3.81052e+13
2.49518e+13
1.68831e+13
1.26865e+13
1.21179e+13
1.00923e+13
6.54111e+12
4.38523e+12
3.33879e+12
3.49776e+12
3.1633e+12
2.24381e+12
1.65654e+12
1.33432e+12
1.27377e+12
1.09219e+12
9.45307e+11
8.19302e+11
6.7662e+11
6.37745e+11
6.06203e+11
5.64297e+11
5.55507e+11
5.49855e+11
5.56894e+11
5.67542e+11
5.89372e+11
6.203e+11
6.65359e+11
4.67714e+11
4.06765e+11
4.19977e+11
4.44998e+11
8.94745e+14
8.53095e+14
8.12328e+14
7.72004e+14
7.32211e+14
6.93277e+14
6.54743e+14
6.16792e+14
5.79643e+14
5.42761e+14
5.06341e+14
4.70601e+14
4.35135e+14
4.00099e+14
3.65618e+14
3.31285e+14
2.97219e+14
2.63999e+14
2.31394e+14
1.98608e+14
1.6703e+14
1.37101e+14
1.08322e+14
8.18079e+13
5.90406e+13
4.02526e+13
2.67341e+13
1.82154e+13
1.35002e+13
1.27215e+13
1.16768e+13
7.72629e+12
5.21953e+12
3.81453e+12
3.64918e+12
3.99422e+12
2.89772e+12
2.15378e+12
1.67078e+12
1.41554e+12
1.22863e+12
1.08188e+12
9.64854e+11
8.59093e+11
8.17619e+11
7.86737e+11
7.55424e+11
7.50683e+11
7.50155e+11
7.63455e+11
7.7587e+11
7.95718e+11
6.2813e+11
6.35788e+11
5.16376e+11
5.01593e+11
5.42273e+11
5.83755e+11
8.9499e+14
8.53366e+14
8.126e+14
7.72297e+14
7.32527e+14
6.93583e+14
6.55063e+14
6.17136e+14
5.79979e+14
5.43105e+14
5.06708e+14
4.70966e+14
4.35511e+14
4.00495e+14
3.66015e+14
3.31713e+14
2.97699e+14
2.6454e+14
2.32076e+14
1.99507e+14
1.68172e+14
1.38538e+14
1.10061e+14
8.39664e+13
6.1442e+13
4.25523e+13
2.86845e+13
1.97322e+13
1.44536e+13
1.3263e+13
1.34734e+13
9.10911e+12
6.21223e+12
4.45142e+12
3.89499e+12
4.62294e+12
3.7061e+12
2.77973e+12
2.16569e+12
1.74512e+12
1.50791e+12
1.33703e+12
1.21964e+12
1.12873e+12
1.07579e+12
1.04135e+12
1.01486e+12
1.01172e+12
1.018e+12
1.02594e+12
8.87177e+11
7.80537e+11
6.62939e+11
6.58856e+11
6.11923e+11
6.35184e+11
7.0038e+11
7.61637e+11
8.95258e+14
8.53661e+14
8.12901e+14
7.72621e+14
7.32879e+14
6.93929e+14
6.55423e+14
6.17525e+14
5.80362e+14
5.43496e+14
5.07127e+14
4.71387e+14
4.35944e+14
4.00955e+14
3.66483e+14
3.32216e+14
2.98264e+14
2.65178e+14
2.32865e+14
2.00517e+14
1.69425e+14
1.40099e+14
1.1195e+14
8.62921e+13
6.3999e+13
4.50115e+13
3.07942e+13
2.1396e+13
1.55578e+13
1.3791e+13
1.53998e+13
1.07075e+13
7.38291e+12
5.26934e+12
4.29005e+12
4.80627e+12
4.68343e+12
3.55824e+12
2.80676e+12
2.25593e+12
1.93876e+12
1.7124e+12
1.57981e+12
1.49058e+12
1.42316e+12
1.38177e+12
1.35892e+12
1.34629e+12
1.34653e+12
1.04374e+12
9.00492e+11
8.14724e+11
7.50062e+11
7.53588e+11
7.59764e+11
8.12927e+11
9.04641e+11
9.8427e+11
8.95539e+14
8.53971e+14
8.13225e+14
7.72973e+14
7.33262e+14
6.94311e+14
6.55822e+14
6.17952e+14
5.80788e+14
5.43934e+14
5.07594e+14
4.71861e+14
4.36436e+14
4.01478e+14
3.67023e+14
3.328e+14
2.98917e+14
2.65918e+14
2.3377e+14
2.01654e+14
1.708e+14
1.41762e+14
1.1393e+14
8.8788e+13
6.67227e+13
4.76419e+13
3.30656e+13
2.31487e+13
1.68297e+13
1.44237e+13
1.57594e+13
1.25228e+13
8.76137e+12
6.28043e+12
4.86331e+12
4.88682e+12
5.8184e+12
4.51779e+12
3.60299e+12
2.92423e+12
2.51345e+12
2.222e+12
2.06034e+12
1.96255e+12
1.8814e+12
1.81005e+12
1.78095e+12
1.47969e+12
1.30823e+12
1.0815e+12
9.76565e+11
9.22592e+11
8.99366e+11
9.1932e+11
9.60628e+11
1.04518e+12
1.16006e+12
1.17851e+12
1.15691e+15
1.11178e+15
1.06784e+15
1.02371e+15
9.80392e+14
9.37789e+14
8.95786e+14
8.54303e+14
8.1358e+14
7.73365e+14
7.33686e+14
6.94738e+14
6.56269e+14
6.1843e+14
5.81268e+14
5.44429e+14
5.08121e+14
4.72401e+14
4.36998e+14
4.02076e+14
3.67646e+14
3.33474e+14
2.9967e+14
2.66771e+14
2.34808e+14
2.02944e+14
1.72351e+14
1.43618e+14
1.16135e+14
9.14678e+13
6.96195e+13
5.04494e+13
3.55068e+13
2.50588e+13
1.82894e+13
1.52248e+13
1.61134e+13
1.45723e+13
1.03732e+13
7.49623e+12
5.64761e+12
5.1434e+12
6.28196e+12
5.67008e+12
4.58913e+12
3.75397e+12
3.2482e+12
2.89292e+12
2.68999e+12
2.56077e+12
2.4373e+12
1.86629e+12
1.74164e+12
1.49088e+12
1.34152e+12
1.19876e+12
1.13346e+12
1.1088e+12
1.11343e+12
1.15161e+12
1.22263e+12
1.34199e+12
1.31256e+12
1.15613e+12
1.20251e+15
1.15711e+15
1.11213e+15
1.06806e+15
1.02407e+15
9.80771e+14
9.3815e+14
8.96114e+14
8.54672e+14
8.1397e+14
7.73796e+14
7.3415e+14
6.95206e+14
6.56766e+14
6.18957e+14
5.818e+14
5.44985e+14
5.0871e+14
4.73005e+14
4.37635e+14
4.02754e+14
3.68355e+14
3.34247e+14
3.00529e+14
2.67744e+14
2.35985e+14
2.04396e+14
1.7409e+14
1.45676e+14
1.18562e+14
9.4342e+13
7.27044e+13
5.34426e+13
3.8141e+13
2.72043e+13
1.99614e+13
1.62077e+13
1.65272e+13
1.68747e+13
1.22432e+13
8.94382e+12
6.68006e+12
5.62996e+12
6.30728e+12
7.02404e+12
5.79945e+12
4.78037e+12
4.18011e+12
3.74491e+12
3.48463e+12
2.93703e+12
2.40337e+12
1.93031e+12
1.77699e+12
1.59614e+12
1.48912e+12
1.4077e+12
1.37556e+12
1.37345e+12
1.40165e+12
1.46126e+12
1.56142e+12
1.70307e+12
1.33374e+12
1.18807e+12
1.24861e+15
1.20267e+15
1.15733e+15
1.11242e+15
1.06831e+15
1.02439e+15
9.81137e+14
9.38509e+14
8.96525e+14
8.55101e+14
8.14406e+14
7.7427e+14
7.34659e+14
6.95721e+14
6.57311e+14
6.19538e+14
5.8239e+14
5.45602e+14
5.09364e+14
4.73681e+14
4.38349e+14
4.03518e+14
3.69161e+14
3.35126e+14
3.01503e+14
2.68844e+14
2.37303e+14
2.06001e+14
1.7601e+14
1.47928e+14
1.21227e+14
9.74243e+13
7.59686e+13
5.66136e+13
4.09671e+13
2.95701e+13
2.18634e+13
1.7387e+13
1.71372e+13
1.94266e+13
1.43829e+13
1.06433e+13
7.99396e+12
6.38325e+12
6.36921e+12
8.20425e+12
7.17474e+12
6.01981e+12
5.26985e+12
4.51512e+12
3.99751e+12
2.94979e+12
2.45195e+12
2.09702e+12
1.94944e+12
1.82247e+12
1.75238e+12
1.70973e+12
1.70492e+12
1.72599e+12
1.78039e+12
1.86292e+12
1.99266e+12
1.71347e+12
1.40009e+12
1.28766e+12
1.29501e+15
1.2488e+15
1.20288e+15
1.15757e+15
1.11271e+15
1.06857e+15
1.02472e+15
9.81509e+14
9.38907e+14
8.96979e+14
8.55594e+14
8.14904e+14
7.74798e+14
7.35224e+14
6.96297e+14
6.57916e+14
6.20183e+14
5.8305e+14
5.46289e+14
5.10097e+14
4.74442e+14
4.39153e+14
4.04382e+14
3.7008e+14
3.36127e+14
3.02615e+14
2.70097e+14
2.3878e+14
2.07767e+14
1.78093e+14
1.50377e+14
1.24122e+14
1.00721e+14
7.94402e+13
5.9997e+13
4.4013e+13
3.21591e+13
2.39617e+13
1.87836e+13
1.77381e+13
2.20375e+13
1.68214e+13
1.26167e+13
9.58804e+12
7.43882e+12
6.68212e+12
7.69782e+12
7.09231e+12
7.3232e+12
5.23402e+12
4.40657e+12
3.84869e+12
3.07071e+12
2.6583e+12
2.39371e+12
2.26777e+12
2.17811e+12
2.13063e+12
2.11549e+12
2.13825e+12
2.18477e+12
2.2487e+12
2.34756e+12
2.50018e+12
1.76079e+12
1.52603e+12
1.46015e+12
1.29538e+15
1.24904e+15
1.20314e+15
1.15784e+15
1.11301e+15
1.06886e+15
1.02507e+15
9.81905e+14
9.39347e+14
8.9747e+14
8.56136e+14
8.1546e+14
7.75386e+14
7.35846e+14
6.96934e+14
6.58585e+14
6.20894e+14
5.83782e+14
5.47053e+14
5.10908e+14
4.75291e+14
4.40052e+14
4.0535e+14
3.71117e+14
3.37258e+14
3.03869e+14
2.71508e+14
2.40429e+14
2.09719e+14
1.80367e+14
1.53001e+14
1.27251e+14
1.04244e+14
8.31377e+13
6.361e+13
4.73024e+13
3.49713e+13
2.61898e+13
2.04266e+13
1.84537e+13
2.15081e+13
1.95449e+13
1.48896e+13
1.14297e+13
8.85422e+12
7.39246e+12
7.31128e+12
6.81322e+12
6.88452e+12
5.20701e+12
4.43928e+12
3.91355e+12
3.36282e+12
3.04067e+12
2.83745e+12
2.73279e+12
2.66214e+12
2.63615e+12
2.6487e+12
2.69759e+12
2.75305e+12
2.29798e+12
2.29272e+12
2.34189e+12
1.86764e+12
1.72366e+12
1.71428e+12
1.29571e+15
1.24935e+15
1.20345e+15
1.15816e+15
1.11337e+15
1.0692e+15
1.02548e+15
9.82349e+14
9.39839e+14
8.98011e+14
8.56732e+14
8.16081e+14
7.76041e+14
7.36537e+14
6.97644e+14
6.5933e+14
6.21683e+14
5.84599e+14
5.47907e+14
5.11814e+14
4.76242e+14
4.4106e+14
4.06438e+14
3.72291e+14
3.38541e+14
3.05291e+14
2.73102e+14
2.42272e+14
2.11875e+14
1.82844e+14
1.55801e+14
1.30623e+14
1.08006e+14
8.70716e+13
6.74656e+13
5.08429e+13
3.80254e+13
2.86382e+13
2.23543e+13
1.94054e+13
2.10306e+13
2.25591e+13
1.74976e+13
1.35368e+13
1.06105e+13
8.55347e+12
7.64145e+12
6.93655e+12
6.52757e+12
5.43184e+12
4.75416e+12
4.28153e+12
3.86061e+12
3.60683e+12
3.43283e+12
3.34472e+12
3.29119e+12
3.29226e+12
3.32829e+12
3.39438e+12
2.80932e+12
2.38593e+12
2.31966e+12
2.30468e+12
2.05771e+12
2.00767e+12
2.06068e+12
1.29606e+15
1.2497e+15
1.20382e+15
1.15854e+15
1.11377e+15
1.06961e+15
1.02594e+15
9.8285e+14
9.40384e+14
8.98611e+14
8.57381e+14
8.16762e+14
7.76769e+14
7.37299e+14
6.98428e+14
6.60158e+14
6.22554e+14
5.85503e+14
5.48857e+14
5.12818e+14
4.77296e+14
4.42184e+14
4.07647e+14
3.73598e+14
3.39982e+14
3.06888e+14
2.74892e+14
2.44326e+14
2.14242e+14
1.85555e+14
1.58887e+14
1.34257e+14
1.12023e+14
9.12637e+13
7.1582e+13
5.46571e+13
4.13599e+13
3.13962e+13
2.45521e+13
2.06677e+13
2.09157e+13
2.55446e+13
2.04859e+13
1.60032e+13
1.26422e+13
1.0145e+13
8.61096e+12
7.57235e+12
6.83063e+12
5.99096e+12
5.37378e+12
4.94522e+12
4.58043e+12
4.35566e+12
4.20681e+12
4.13184e+12
4.098e+12
4.09641e+12
4.14102e+12
3.70837e+12
2.88926e+12
2.54823e+12
2.46727e+12
2.44487e+12
2.35351e+12
2.39427e+12
2.50987e+12
1.29644e+15
1.2501e+15
1.20423e+15
1.15898e+15
1.11423e+15
1.07008e+15
1.02647e+15
9.83418e+14
9.40991e+14
8.99273e+14
8.58092e+14
8.17508e+14
7.77567e+14
7.38139e+14
6.99294e+14
6.61073e+14
6.2352e+14
5.86505e+14
5.49913e+14
5.13936e+14
4.7847e+14
4.43437e+14
4.08997e+14
3.75058e+14
3.41594e+14
3.08681e+14
2.76906e+14
2.46639e+14
2.16909e+14
1.88569e+14
1.62308e+14
1.38198e+14
1.16325e+14
9.57219e+13
7.59646e+13
5.87526e+13
4.49941e+13
3.44571e+13
2.69597e+13
2.22821e+13
2.11581e+13
2.44424e+13
2.38005e+13
1.88682e+13
1.50096e+13
1.20977e+13
1.01217e+13
8.73732e+12
7.73046e+12
6.90609e+12
6.28553e+12
5.87429e+12
5.53724e+12
5.32445e+12
5.19878e+12
5.13071e+12
5.0926e+12
4.18387e+12
3.99506e+12
3.5929e+12
3.05431e+12
2.80985e+12
2.74912e+12
2.74989e+12
2.77695e+12
2.90421e+12
3.07754e+12
1.29686e+15
1.25054e+15
1.2047e+15
1.15949e+15
1.11477e+15
1.07063e+15
1.02707e+15
9.84068e+14
9.41678e+14
9.00012e+14
8.5888e+14
8.18334e+14
7.78449e+14
7.39069e+14
7.00256e+14
6.62085e+14
6.2459e+14
5.87621e+14
5.51087e+14
5.15179e+14
4.7978e+14
4.44829e+14
4.10493e+14
3.76677e+14
3.43376e+14
3.10667e+14
2.79134e+14
2.49164e+14
2.19773e+14
1.91797e+14
1.6604e+14
1.42436e+14
1.20915e+14
1.00472e+14
8.06533e+13
6.31601e+13
4.89593e+13
3.78486e+13
2.97062e+13
2.4321e+13
2.18598e+13
2.30915e+13
2.58757e+13
2.21545e+13
1.78318e+13
1.44544e+13
1.20583e+13
1.03573e+13
9.14032e+12
8.19162e+12
7.50373e+12
7.09111e+12
6.77496e+12
6.55911e+12
6.41257e+12
6.35971e+12
5.25905e+12
4.31964e+12
4.01237e+12
3.68437e+12
3.34541e+12
3.19753e+12
3.18085e+12
3.22431e+12
3.34537e+12
3.55367e+12
3.7816e+12
1.29734e+15
1.25104e+15
1.20523e+15
1.16006e+15
1.11538e+15
1.07126e+15
1.02776e+15
9.84799e+14
9.42446e+14
9.00837e+14
8.59753e+14
8.19247e+14
7.79422e+14
7.40094e+14
7.01321e+14
6.63209e+14
6.25775e+14
5.88859e+14
5.52394e+14
5.16563e+14
4.81239e+14
4.46384e+14
4.12158e+14
3.78469e+14
3.4534e+14
3.12852e+14
2.81589e+14
2.5195e+14
2.22888e+14
1.95252e+14
1.70086e+14
1.46986e+14
1.25813e+14
1.05535e+14
8.56619e+13
6.79181e+13
5.3295e+13
4.16287e+13
3.28267e+13
2.67606e+13
2.31253e+13
2.2578e+13
2.43506e+13
2.5495e+13
2.11377e+13
1.72995e+13
1.44482e+13
1.24197e+13
1.09732e+13
9.89071e+12
9.10368e+12
8.655e+12
8.32369e+12
8.05863e+12
6.64831e+12
6.95808e+12
5.34311e+12
4.55976e+12
4.23792e+12
3.98765e+12
3.79404e+12
3.73943e+12
3.78133e+12
3.8792e+12
4.07457e+12
4.34966e+12
4.62177e+12
1.29787e+15
1.2516e+15
1.20581e+15
1.1607e+15
1.11606e+15
1.07196e+15
1.02852e+15
9.85613e+14
9.43297e+14
9.01745e+14
8.60711e+14
8.20246e+14
7.80484e+14
7.41215e+14
7.02487e+14
6.6444e+14
6.27076e+14
5.90221e+14
5.53833e+14
5.1809e+14
4.82854e+14
4.48104e+14
4.14001e+14
3.80446e+14
3.47483e+14
3.15202e+14
2.84226e+14
2.54972e+14
2.26325e+14
1.99058e+14
1.7451e+14
1.51898e+14
1.31062e+14
1.10935e+14
9.10078e+13
7.30233e+13
5.79991e+13
4.57973e+13
3.63432e+13
2.95e+13
2.49551e+13
2.29127e+13
2.3053e+13
2.41868e+13
2.38522e+13
2.06485e+13
1.7368e+13
1.49839e+13
1.32737e+13
1.20568e+13
1.11433e+13
1.0634e+13
9.56115e+12
8.05428e+12
6.80237e+12
6.56836e+12
5.53798e+12
4.95134e+12
4.67887e+12
4.51294e+12
4.436e+12
4.46963e+12
4.57847e+12
4.73721e+12
4.98537e+12
5.29669e+12
5.58261e+12
1.29845e+15
1.25222e+15
1.20646e+15
1.1614e+15
1.11682e+15
1.07275e+15
1.02938e+15
9.86526e+14
9.4425e+14
9.02752e+14
8.61777e+14
8.21355e+14
7.81652e+14
7.42451e+14
7.03777e+14
6.65795e+14
6.28515e+14
5.91733e+14
5.55425e+14
5.19788e+14
4.84656e+14
4.50024e+14
4.16069e+14
3.8267e+14
3.49894e+14
3.17837e+14
2.87127e+14
2.58229e+14
2.29992e+14
2.03248e+14
1.79297e+14
1.57164e+14
1.36657e+14
1.1669e+14
9.67252e+13
7.85162e+13
6.31176e+13
5.0403e+13
4.0298e+13
3.26487e+13
2.72885e+13
2.40976e+13
2.27967e+13
2.26932e+13
2.26729e+13
2.33332e+13
2.07936e+13
1.80779e+13
1.61097e+13
1.46337e+13
1.35443e+13
1.28918e+13
9.60829e+12
8.10101e+12
7.07115e+12
6.62191e+12
5.94965e+12
5.54441e+12
5.35541e+12
5.27847e+12
5.29936e+12
5.41384e+12
5.59259e+12
5.8117e+12
6.09541e+12
6.41429e+12
6.69108e+12
1.2991e+15
1.25291e+15
1.20718e+15
1.16219e+15
1.11766e+15
1.07363e+15
1.03032e+15
9.87536e+14
9.45308e+14
9.03862e+14
8.62948e+14
8.22576e+14
7.82933e+14
7.43802e+14
7.05192e+14
6.6728e+14
6.30088e+14
5.93391e+14
5.57174e+14
5.21651e+14
4.86639e+14
4.52141e+14
4.18351e+14
3.85138e+14
3.52573e+14
3.20771e+14
2.90355e+14
2.61803e+14
2.3395e+14
2.07827e+14
1.84465e+14
1.62805e+14
1.42628e+14
1.22829e+14
1.02843e+14
8.44304e+13
6.86811e+13
5.54796e+13
4.475e+13
3.63564e+13
3.01759e+13
2.60703e+13
2.35618e+13
2.23198e+13
2.16753e+13
2.20297e+13
2.27939e+13
2.13949e+13
1.93153e+13
1.4689e+13
1.31568e+13
1.22189e+13
9.74485e+12
8.4158e+12
7.56489e+12
7.07931e+12
6.63655e+12
6.39002e+12
6.29817e+12
6.30972e+12
6.41577e+12
6.60268e+12
6.85027e+12
7.12651e+12
7.43863e+12
7.74138e+12
7.99855e+12
1.29982e+15
1.25367e+15
1.20799e+15
1.16305e+15
1.11859e+15
1.07461e+15
1.03137e+15
9.88648e+14
9.46477e+14
9.0509e+14
8.64235e+14
8.23925e+14
7.84347e+14
7.45287e+14
7.06753e+14
6.6892e+14
6.31821e+14
5.95225e+14
5.5911e+14
5.2371e+14
4.88836e+14
4.54487e+14
4.20879e+14
3.87874e+14
3.55547e+14
3.24024e+14
2.93941e+14
2.6577e+14
2.38274e+14
2.1282e+14
1.90034e+14
1.68837e+14
1.48995e+14
1.29371e+14
1.0938e+14
9.07872e+13
7.47153e+13
6.10571e+13
4.97412e+13
4.06646e+13
3.36899e+13
2.86856e+13
2.52584e+13
2.30028e+13
2.15862e+13
2.10304e+13
2.13266e+13
2.02639e+13
1.82978e+13
1.46114e+13
1.29318e+13
1.18523e+13
1.01483e+13
9.05547e+12
8.36415e+12
7.94022e+12
7.64919e+12
7.53685e+12
7.54195e+12
7.63751e+12
7.81692e+12
8.06687e+12
8.38057e+12
8.71299e+12
9.0565e+12
9.29672e+12
9.52129e+12
1.30061e+15
1.25451e+15
1.20888e+15
1.16401e+15
1.1196e+15
1.07569e+15
1.03253e+15
9.89867e+14
9.47757e+14
9.0644e+14
8.65648e+14
8.25401e+14
7.85902e+14
7.46917e+14
7.08459e+14
6.70721e+14
6.33718e+14
5.97226e+14
5.61232e+14
5.25964e+14
4.91237e+14
4.57059e+14
4.23637e+14
3.90853e+14
3.58784e+14
3.27556e+14
2.97826e+14
2.70078e+14
2.43058e+14
2.18243e+14
1.96025e+14
1.75282e+14
1.55775e+14
1.36348e+14
1.16366e+14
9.76181e+13
8.12541e+13
6.71694e+13
5.53113e+13
4.55982e+13
3.78653e+13
3.19767e+13
2.77309e+13
2.46837e+13
2.24966e+13
2.10507e+13
2.02233e+13
1.89893e+13
1.72481e+13
1.47877e+13
1.32489e+13
1.21516e+13
1.09169e+13
1.00844e+13
9.54144e+12
9.20965e+12
9.03273e+12
9.0323e+12
9.12467e+12
9.29474e+12
9.53586e+12
9.82679e+12
1.01828e+13
1.05465e+13
1.09052e+13
1.10814e+13
1.1275e+13
1.30148e+15
1.25543e+15
1.20985e+15
1.16506e+15
1.12072e+15
1.07686e+15
1.03378e+15
9.91197e+14
9.49152e+14
9.07913e+14
8.67198e+14
8.27021e+14
7.87609e+14
7.48713e+14
7.10339e+14
6.72702e+14
6.35813e+14
5.99433e+14
5.63568e+14
5.28452e+14
4.93891e+14
4.59905e+14
4.26714e+14
3.94175e+14
3.62385e+14
3.31472e+14
3.02105e+14
2.74793e+14
2.48371e+14
2.24191e+14
2.02521e+14
1.82229e+14
1.6305e+14
1.43805e+14
1.23844e+14
1.04962e+14
8.83344e+13
7.3862e+13
6.15023e+13
5.11964e+13
4.27555e+13
3.60676e+13
3.09917e+13
2.72202e+13
2.44079e+13
2.2187e+13
2.05894e+13
1.90513e+13
1.7346e+13
1.55408e+13
1.41996e+13
1.31663e+13
1.22342e+13
1.15949e+13
1.11773e+13
1.09388e+13
1.08487e+13
1.09407e+13
1.11075e+13
1.13401e+13
1.16312e+13
1.19316e+13
1.2261e+13
1.25873e+13
1.29111e+13
1.31141e+13
1.33037e+13
1.30246e+15
1.25646e+15
1.21093e+15
1.16621e+15
1.12195e+15
1.07816e+15
1.03516e+15
9.9266e+14
9.50691e+14
9.09539e+14
8.68905e+14
8.28809e+14
7.89492e+14
7.50689e+14
7.12412e+14
6.74885e+14
6.38114e+14
6.01858e+14
5.66128e+14
5.31167e+14
4.96779e+14
4.62991e+14
4.30024e+14
3.97742e+14
3.66241e+14
3.3566e+14
3.06693e+14
2.79858e+14
2.54141e+14
2.30612e+14
2.09489e+14
1.8964e+14
1.70795e+14
1.51749e+14
1.31825e+14
1.12836e+14
9.59779e+13
8.11541e+13
6.83358e+13
5.74822e+13
4.83882e+13
4.09719e+13
3.51277e+13
3.06052e+13
2.71825e+13
2.44406e+13
2.22682e+13
2.03807e+13
1.85741e+13
1.70596e+13
1.58689e+13
1.49227e+13