/*--------------------------------*- C++ -*----------------------------------*\
| =========                 |                                                 |
| \\      /  F ield         | OpenFOAM: The Open Source CFD Toolbox           |
|  \\    /   O peration     | Version:  v2012                                 |
|   \\  /    A nd           | Website:  www.openfoam.com                      |
|    \\/     M anipulation  |                                                 |
\*---------------------------------------------------------------------------*/
FoamFile
{
    version     2.0;
    format      ascii;
    class       volScalarField;
    location    "1e-06";
    object      totalPMean;
}
// * * * * * * * * * * * * * * * * * * * * * * * * * * * * * * * * * * * * * //

dimensions      [1 -1 -2 0 0 0 0];


internalField   nonuniform List<scalar> 
10295
(
1.34786e+07
1.32179e+07
1.29622e+07
1.26999e+07
1.24315e+07
1.21682e+07
1.18966e+07
1.16185e+07
1.13451e+07
1.10623e+07
1.07687e+07
1.04776e+07
1.01748e+07
9.8591e+06
9.55005e+06
9.24163e+06
8.92601e+06
8.63092e+06
8.24484e+06
7.68058e+06
7.17526e+06
6.66327e+06
6.07836e+06
5.40874e+06
4.46985e+06
3.56583e+06
2.77586e+06
2.20321e+06
1.64972e+06
1.18598e+06
796742
428749
182496
1295.3
-11952.3
-15933.6
-16797.9
-15527.6
-16747.9
-16887.5
-17024
-17340.9
-17238.2
-18396
-18182.5
-18048.1
-18194.5
-18690
-18962.1
-19033.8
-19093.9
-19698.7
-22167.8
-23808.5
-27678.7
-23093.1
-21822.5
-19973.9
1.34818e+07
1.32219e+07
1.29658e+07
1.27032e+07
1.24357e+07
1.2172e+07
1.19e+07
1.16227e+07
1.13491e+07
1.10654e+07
1.07729e+07
1.04814e+07
1.01769e+07
9.86284e+06
9.55326e+06
9.24173e+06
8.92488e+06
8.61617e+06
8.22144e+06
7.66793e+06
7.17941e+06
6.66969e+06
6.08747e+06
5.42411e+06
4.50954e+06
3.62171e+06
2.84344e+06
2.25696e+06
1.71529e+06
1.23836e+06
851368
489692
236090
55433.6
22042.9
11833.7
9747.31
8731.1
7972.02
7370.16
6638.2
6834.36
6061.62
6038.86
6616.05
6255.27
6714.4
5528.85
6084.01
6628.47
5795.86
6099.46
4864.44
5615.59
8016.41
9781.62
11419
10929.9
1.34863e+07
1.32265e+07
1.29703e+07
1.27079e+07
1.24405e+07
1.21767e+07
1.19049e+07
1.16278e+07
1.13541e+07
1.10706e+07
1.07782e+07
1.04866e+07
1.01823e+07
9.86835e+06
9.55758e+06
9.24346e+06
8.92175e+06
8.60421e+06
8.20352e+06
7.66221e+06
7.18638e+06
6.67781e+06
6.09715e+06
5.43407e+06
4.53486e+06
3.66228e+06
2.89084e+06
2.29381e+06
1.76126e+06
1.28672e+06
890517
536929
278892
97347.5
57562.5
39373.9
31887.8
27781.4
25828
21984.7
20437.1
20439.1
18275.4
19206.4
19331.6
18967.5
19585.7
17584.4
18954.2
19163.2
18384.8
19010.6
17721.6
19783.1
23744.9
26531.2
28401.8
27577.6
1.34868e+07
1.32269e+07
1.2971e+07
1.27084e+07
1.24409e+07
1.21774e+07
1.19055e+07
1.16282e+07
1.13548e+07
1.10713e+07
1.07787e+07
1.04873e+07
1.0183e+07
9.86874e+06
9.55703e+06
9.23991e+06
8.91144e+06
8.58686e+06
8.17981e+06
7.65501e+06
7.18874e+06
6.68011e+06
6.10116e+06
5.44243e+06
4.56214e+06
3.70458e+06
2.9468e+06
2.33771e+06
1.81121e+06
1.34047e+06
938162
592451
331123
143002
92877.9
68519.9
53342.7
46756.8
42536
37907.6
33794.5
31958
28929.8
27717.4
27786.6
26261.9
26089.7
24463.1
24409.3
25358
23544.8
24113.9
24023.5
25274.1
31041.5
33846.6
37980.2
36710.7
1.34909e+07
1.32311e+07
1.29751e+07
1.27126e+07
1.24453e+07
1.21817e+07
1.19099e+07
1.16328e+07
1.13593e+07
1.10757e+07
1.07835e+07
1.0492e+07
1.01877e+07
9.87367e+06
9.56055e+06
9.23936e+06
8.90455e+06
8.57285e+06
8.16072e+06
7.66029e+06
7.19535e+06
6.68816e+06
6.11195e+06
5.45652e+06
4.59495e+06
3.75381e+06
3.00846e+06
2.38907e+06
1.86449e+06
1.40106e+06
986370
649048
388655
192888
133973
103873
84252
71013.4
64621.1
59173.9
53146.5
50131.2
45521.1
42821.2
42241.1
39734.1
38843.1
37510.6
35177.3
36311.4
33053.1
33570.1
33687.2
34218.1
42003.6
46429.1
51363.2
49861.3
1.34946e+07
1.3235e+07
1.29788e+07
1.27165e+07
1.24493e+07
1.21856e+07
1.19138e+07
1.16371e+07
1.13634e+07
1.10798e+07
1.07878e+07
1.04962e+07
1.0192e+07
9.87816e+06
9.56332e+06
9.23754e+06
8.89617e+06
8.55766e+06
8.141e+06
7.66622e+06
7.2015e+06
6.69613e+06
6.12302e+06
5.47162e+06
4.63101e+06
3.80785e+06
3.07272e+06
2.45489e+06
1.92364e+06
1.46677e+06
1.05617e+06
709945
452282
257279
180173
144375
121826
102292
91942.9
84390.8
77448
73688.1
66832.9
63931.6
61644.3
58618.4
57127.6
54307.4
51191.6
51752.6
47855.8
48242
47636.2
48874.4
57765.3
63555.4
68392.9
67040.7
1.34953e+07
1.32356e+07
1.29797e+07
1.27172e+07
1.24499e+07
1.21865e+07
1.19147e+07
1.16377e+07
1.13643e+07
1.10807e+07
1.07885e+07
1.04971e+07
1.01929e+07
9.87873e+06
9.56297e+06
9.23283e+06
8.88432e+06
8.53895e+06
8.1245e+06
7.66821e+06
7.20474e+06
6.70035e+06
6.13029e+06
5.48507e+06
4.66382e+06
3.85892e+06
3.13705e+06
2.51404e+06
1.98158e+06
1.53158e+06
1.11963e+06
771185
514653
320300
227088
184692
159550
137376
118902
109931
101071
96100.9
88773.6
84354.1
80736.7
76782.8
74327.6
71403.7
66505.4
67314.6
62154.9
62162.2
63750.5
64115.7
73942.1
79558.5
84946.2
83292.9
1.34987e+07
1.32392e+07
1.29831e+07
1.27207e+07
1.24537e+07
1.219e+07
1.19183e+07
1.16416e+07
1.1368e+07
1.10843e+07
1.07925e+07
1.05009e+07
1.01967e+07
9.88282e+06
9.56621e+06
9.23183e+06
8.87869e+06
8.5233e+06
8.12384e+06
7.67474e+06
7.21124e+06
6.70929e+06
6.14303e+06
5.50326e+06
4.70258e+06
3.91626e+06
3.20713e+06
2.58436e+06
2.04563e+06
1.59944e+06
1.19304e+06
837219
581030
388997
286868
230473
201337
177778
155657
140179
129599
123207
114469
109207
104066
99484.1
96231.5
92762.9
86814
87068
83370.5
83459
85250.4
84789.9
94349
99866.4
107709
106441
1.34995e+07
1.32399e+07
1.2984e+07
1.27216e+07
1.24544e+07
1.2191e+07
1.19193e+07
1.16425e+07
1.1369e+07
1.10854e+07
1.07933e+07
1.05019e+07
1.01978e+07
9.88356e+06
9.56703e+06
9.23024e+06
8.87386e+06
8.51529e+06
8.12497e+06
7.67728e+06
7.21571e+06
6.71546e+06
6.15288e+06
5.51971e+06
4.73941e+06
3.97191e+06
3.27639e+06
2.65434e+06
2.10985e+06
1.66743e+06
1.26654e+06
910793
648000
458449
348693
277572
243446
219423
194482
172411
158611
150608
141080
134224
128142
122670
118229
114760
110083
110911
105871
105699
107520
105102
115194
120375
131518
130357
1.3503e+07
1.32437e+07
1.29875e+07
1.27251e+07
1.24583e+07
1.21946e+07
1.19229e+07
1.16465e+07
1.13728e+07
1.1089e+07
1.07974e+07
1.05058e+07
1.02016e+07
9.88781e+06
9.57077e+06
9.23391e+06
8.87893e+06
8.51962e+06
8.12953e+06
7.68408e+06
7.22336e+06
6.72635e+06
6.16852e+06
5.54049e+06
4.78168e+06
4.03313e+06
3.3505e+06
2.73051e+06
2.17941e+06
1.74088e+06
1.34648e+06
992113
719956
531695
416185
329521
291138
264358
239027
215233
197974
187564
171989
163691
160475
154629
149099
145525
138987
139488
132934
132442
133243
130031
139726
148265
158839
157663
1.35063e+07
1.32473e+07
1.29908e+07
1.27285e+07
1.24621e+07
1.2198e+07
1.19264e+07
1.16504e+07
1.13763e+07
1.10925e+07
1.08014e+07
1.05094e+07
1.02052e+07
9.89193e+06
9.57431e+06
9.2375e+06
8.88314e+06
8.52305e+06
8.13321e+06
7.6909e+06
7.23162e+06
6.73801e+06
6.18542e+06
5.56348e+06
4.82698e+06
4.09847e+06
3.4279e+06
2.81218e+06
2.25953e+06
1.81917e+06
1.43207e+06
1.07993e+06
796975
608043
488550
397871
344139
312778
288199
262800
242826
230664
212582
204515
198234
191901
185437
180412
172794
171916
163704
162656
162115
158769
171534
180277
188649
187135
1.35073e+07
1.32483e+07
1.2992e+07
1.27296e+07
1.24631e+07
1.21993e+07
1.19277e+07
1.16516e+07
1.13776e+07
1.10938e+07
1.08025e+07
1.05107e+07
1.02066e+07
9.89305e+06
9.5755e+06
9.2388e+06
8.88453e+06
8.52413e+06
8.13509e+06
7.6949e+06
7.2382e+06
6.74753e+06
6.20031e+06
5.58606e+06
4.87082e+06
4.16196e+06
3.5064e+06
2.89379e+06
2.34128e+06
1.89848e+06
1.51555e+06
1.1691e+06
879036
684271
562176
466369
399075
363031
336012
311719
289134
274896
255837
245794
237801
229612
221569
216111
205662
203829
194550
192838
191778
191828
204413
212243
218574
216651
1.35105e+07
1.32517e+07
1.29951e+07
1.27328e+07
1.24667e+07
1.22025e+07
1.1931e+07
1.16554e+07
1.1381e+07
1.10971e+07
1.08065e+07
1.05143e+07
1.02101e+07
9.89714e+06
9.57901e+06
9.2425e+06
8.88908e+06
8.5283e+06
8.1399e+06
7.70273e+06
7.24786e+06
6.76116e+06
6.22011e+06
5.61296e+06
4.91966e+06
4.23021e+06
3.58892e+06
2.98126e+06
2.43087e+06
1.98269e+06
1.60304e+06
1.26311e+06
971962
765494
638267
540918
468352
418543
388277
363847
339679
323231
302494
291017
281300
270381
260786
254098
242973
239766
229787
227279
230619
230104
240833
246738
252423
249749
1.35116e+07
1.32529e+07
1.29965e+07
1.27342e+07
1.2468e+07
1.2204e+07
1.19325e+07
1.16568e+07
1.13826e+07
1.10987e+07
1.08079e+07
1.05158e+07
1.02119e+07
9.89862e+06
9.58057e+06
9.24419e+06
8.89087e+06
8.53039e+06
8.14276e+06
7.70822e+06
7.25617e+06
6.7732e+06
6.23837e+06
5.63992e+06
4.96787e+06
4.2973e+06
3.67305e+06
3.0695e+06
2.52381e+06
2.06878e+06
1.69168e+06
1.35971e+06
1.06821e+06
848372
715643
617285
539827
475024
442476
415404
389403
370591
349139
335060
324375
311890
300469
293311
280813
276222
271354
269507
271235
269677
277202
281631
287301
288391
1.35148e+07
1.32564e+07
1.29996e+07
1.27374e+07
1.24717e+07
1.22073e+07
1.19359e+07
1.16607e+07
1.13861e+07
1.11022e+07
1.08119e+07
1.05195e+07
1.02155e+07
9.90289e+06
9.58427e+06
9.24809e+06
8.89554e+06
8.53473e+06
8.1483e+06
7.71717e+06
7.26744e+06
6.78893e+06
6.26089e+06
5.67027e+06
5.02085e+06
4.36858e+06
3.75826e+06
3.1632e+06
2.62374e+06
2.1597e+06
1.78668e+06
1.46116e+06
1.17035e+06
936749
798678
697436
617264
549762
502273
471230
443070
422107
399332
383444
371696
358657
344644
335838
329765
325540
318194
316301
315480
313353
316940
321208
330336
331600
1.35162e+07
1.32578e+07
1.30011e+07
1.2739e+07
1.24732e+07
1.22089e+07
1.19376e+07
1.16624e+07
1.13878e+07
1.11041e+07
1.08137e+07
1.05214e+07
1.02176e+07
9.9048e+06
9.58625e+06
9.25032e+06
8.89789e+06
8.53742e+06
8.15236e+06
7.72411e+06
7.27762e+06
6.80339e+06
6.28218e+06
5.70172e+06
5.07366e+06
4.43862e+06
3.83795e+06
3.25754e+06
2.72507e+06
2.25265e+06
1.88343e+06
1.56175e+06
1.27422e+06
1.03852e+06
883838
777423
697296
625958
566125
529812
499304
476076
452891
432824
419886
406590
398059
389995
380427
375908
366493
363454
359696
356250
358571
361968
375740
376563
1.35193e+07
1.32613e+07
1.30042e+07
1.27423e+07
1.24769e+07
1.22122e+07
1.19411e+07
1.16664e+07
1.13914e+07
1.11077e+07
1.08179e+07
1.05252e+07
1.02215e+07
9.90934e+06
9.59027e+06
9.2546e+06
8.90301e+06
8.54243e+06
8.15902e+06
7.73436e+06
7.29073e+06
6.82146e+06
6.30756e+06
5.73805e+06
5.13109e+06
4.51272e+06
3.91954e+06
3.35711e+06
2.83095e+06
2.35645e+06
1.98561e+06
1.66524e+06
1.38371e+06
1.14673e+06
974103
862870
781994
707734
646849
592156
559843
534276
509318
496672
483661
469984
456910
447481
436797
430422
418047
413160
407229
403119
404289
413767
425356
424814
1.35207e+07
1.32627e+07
1.30058e+07
1.2744e+07
1.24786e+07
1.2214e+07
1.1943e+07
1.16683e+07
1.13934e+07
1.11099e+07
1.082e+07
1.05274e+07
1.0224e+07
9.91171e+06
9.59274e+06
9.2575e+06
8.90613e+06
8.54605e+06
8.16438e+06
7.74296e+06
7.3032e+06
6.83891e+06
6.33215e+06
5.77564e+06
5.18862e+06
4.58654e+06
4.00485e+06
3.45817e+06
2.93819e+06
2.46472e+06
2.08894e+06
1.77091e+06
1.49602e+06
1.25743e+06
1.072e+06
950890
865888
793254
728862
669028
636262
609408
585194
563629
548933
534300
518571
508032
494246
484818
470432
463418
457356
452320
456156
467042
476810
473244
1.35223e+07
1.32642e+07
1.30076e+07
1.27459e+07
1.24804e+07
1.2216e+07
1.19452e+07
1.16704e+07
1.13956e+07
1.11123e+07
1.08224e+07
1.053e+07
1.02268e+07
9.9145e+06
9.59571e+06
9.26086e+06
8.90983e+06
8.5505e+06
8.1707e+06
7.75254e+06
7.31719e+06
6.85844e+06
6.35915e+06
5.81596e+06
5.24749e+06
4.66099e+06
4.09218e+06
3.56072e+06
3.04772e+06
2.57684e+06
2.19418e+06
1.87948e+06
1.61021e+06
1.37036e+06
1.17634e+06
1.04143e+06
951286
881160
814012
752614
714608
684671
658984
633857
617217
600691
582022
569300
551698
540013
525195
516528
509198
503517
513494
523028
529908
522635
1.35255e+07
1.32679e+07
1.30108e+07
1.27494e+07
1.24844e+07
1.22195e+07
1.1949e+07
1.16748e+07
1.13996e+07
1.11164e+07
1.08272e+07
1.05344e+07
1.02314e+07
9.91982e+06
9.60068e+06
9.26635e+06
8.91641e+06
8.55733e+06
8.17962e+06
7.76555e+06
7.33416e+06
6.8818e+06
6.39068e+06
5.86108e+06
5.31098e+06
4.74003e+06
4.18459e+06
3.66894e+06
3.16269e+06
2.69555e+06
2.30519e+06
1.99347e+06
1.7279e+06
1.48928e+06
1.29144e+06
1.13781e+06
1.04295e+06
971480
905754
842164
798803
765710
738205
710364
689706
670232
648188
632763
613689
600688
585212
573817
574128
570066
575533
582634
584906
576152
1.35273e+07
1.32697e+07
1.30128e+07
1.27516e+07
1.24867e+07
1.22219e+07
1.19515e+07
1.16774e+07
1.14023e+07
1.11193e+07
1.08303e+07
1.05376e+07
1.0235e+07
9.92354e+06
9.60468e+06
9.2709e+06
8.9216e+06
8.5635e+06
8.18794e+06
7.77762e+06
7.35101e+06
6.90529e+06
6.42232e+06
5.90721e+06
5.37488e+06
4.81946e+06
4.27801e+06
3.77922e+06
3.27978e+06
2.81804e+06
2.41813e+06
2.10986e+06
1.84555e+06
1.61136e+06
1.40992e+06
1.24073e+06
1.13772e+06
1.06136e+06
999001
934713
886289
847947
817906
787108
761532
739191
715303
697442
678484
663123
651174
643701
640952
636707
639738
642028
640892
631942
1.35304e+07
1.32733e+07
1.30161e+07
1.27551e+07
1.24908e+07
1.22257e+07
1.19555e+07
1.16821e+07
1.14067e+07
1.11238e+07
1.08354e+07
1.05426e+07
1.02402e+07
9.92957e+06
9.61065e+06
9.27746e+06
8.92943e+06
8.57211e+06
8.19886e+06
7.79283e+06
7.37076e+06
6.93212e+06
6.45806e+06
5.95785e+06
5.44291e+06
4.90273e+06
4.37492e+06
3.8909e+06
3.40103e+06
2.94671e+06
2.53295e+06
2.23144e+06
1.96668e+06
1.73862e+06
1.53374e+06
1.35763e+06
1.23788e+06
1.15562e+06
1.09276e+06
1.03037e+06
977277
931596
898297
866030
836918
812347
787961
767353
746770
739910
727539
718251
713300
708058
707256
704401
701623
692215
1.35324e+07
1.32753e+07
1.30183e+07
1.27576e+07
1.24934e+07
1.22284e+07
1.19585e+07
1.16852e+07
1.141e+07
1.11274e+07
1.08392e+07
1.05467e+07
1.02447e+07
9.93434e+06
9.61586e+06
9.28346e+06
8.93636e+06
8.58037e+06
8.20974e+06
7.80782e+06
7.39059e+06
6.9587e+06
6.49306e+06
6.00966e+06
5.51173e+06
4.98686e+06
4.47194e+06
3.99603e+06
3.52405e+06
3.07738e+06
2.66716e+06
2.35416e+06
2.09008e+06
1.86678e+06
1.66092e+06
1.48281e+06
1.34008e+06
1.25376e+06
1.1858e+06
1.1229e+06
1.06639e+06
1.01632e+06
979820
946359
915700
887426
861320
845636
831152
819608
806777
795464
787299
779765
773941
769201
765031
756428
1.50256e+07
1.47825e+07
1.45386e+07
1.42903e+07
1.40395e+07
1.37889e+07
1.35351e+07
1.32788e+07
1.30218e+07
1.27614e+07
1.24977e+07
1.22326e+07
1.19628e+07
1.16902e+07
1.14148e+07
1.11324e+07
1.0845e+07
1.05525e+07
1.02507e+07
9.94131e+06
9.62306e+06
9.2914e+06
8.94581e+06
8.59115e+06
8.2233e+06
7.82619e+06
7.41405e+06
6.9893e+06
6.53321e+06
6.06575e+06
5.58444e+06
5.07468e+06
4.57191e+06
4.10374e+06
3.65134e+06
3.21169e+06
2.80474e+06
2.48068e+06
2.2182e+06
1.99739e+06
1.79373e+06
1.61356e+06
1.45753e+06
1.35709e+06
1.28413e+06
1.21695e+06
1.1585e+06
1.10693e+06
1.06735e+06
1.03216e+06
997140
978492
955120
934484
918577
905075
890213
875697
862549
852381
843635
838644
836230
831859
1.52693e+07
1.5027e+07
1.47841e+07
1.454e+07
1.42921e+07
1.40417e+07
1.37909e+07
1.35371e+07
1.3281e+07
1.30243e+07
1.27642e+07
1.25007e+07
1.22357e+07
1.19664e+07
1.16939e+07
1.14187e+07
1.11367e+07
1.08495e+07
1.05574e+07
1.02563e+07
9.94728e+06
9.6297e+06
9.29914e+06
8.9547e+06
8.60181e+06
8.2372e+06
7.84486e+06
7.43859e+06
7.02132e+06
6.57511e+06
6.12369e+06
5.65832e+06
5.16349e+06
4.67334e+06
4.21545e+06
3.78092e+06
3.34853e+06
2.9475e+06
2.6092e+06
2.34915e+06
2.12925e+06
1.93077e+06
1.74826e+06
1.58671e+06
1.46494e+06
1.38746e+06
1.31455e+06
1.25526e+06
1.20184e+06
1.15916e+06
1.12601e+06
1.09891e+06
1.07426e+06
1.04969e+06
1.02719e+06
1.00951e+06
992430
973895
955148
939212
926722
916845
910390
914846
909693
1.55105e+07
1.52701e+07
1.50284e+07
1.47856e+07
1.45414e+07
1.42939e+07
1.40438e+07
1.3793e+07
1.35396e+07
1.32836e+07
1.30271e+07
1.27674e+07
1.25041e+07
1.22393e+07
1.19703e+07
1.16981e+07
1.14232e+07
1.11414e+07
1.08547e+07
1.0563e+07
1.02624e+07
9.95407e+06
9.63727e+06
9.30781e+06
8.96478e+06
8.61394e+06
8.25273e+06
7.86542e+06
7.46557e+06
7.05597e+06
6.62076e+06
6.18456e+06
5.73427e+06
5.25386e+06
4.77612e+06
4.3298e+06
3.91374e+06
3.48815e+06
3.09207e+06
2.7401e+06
2.48289e+06
2.2632e+06
2.07204e+06
1.88736e+06
1.72315e+06
1.56912e+06
1.49135e+06
1.41805e+06
1.35307e+06
1.30141e+06
1.25929e+06
1.23355e+06
1.20268e+06
1.17491e+06
1.14825e+06
1.12347e+06
1.10185e+06
1.07931e+06
1.05786e+06
1.03682e+06
1.01985e+06
1.00573e+06
994492
995580
997045
990805
1.57496e+07
1.55125e+07
1.52722e+07
1.50309e+07
1.47882e+07
1.45439e+07
1.42967e+07
1.40471e+07
1.37962e+07
1.35433e+07
1.32879e+07
1.30311e+07
1.27718e+07
1.2509e+07
1.22442e+07
1.19755e+07
1.1704e+07
1.14291e+07
1.11477e+07
1.08617e+07
1.05703e+07
1.02703e+07
9.96304e+06
9.64689e+06
9.31869e+06
8.97759e+06
8.62876e+06
8.27113e+06
7.88926e+06
7.49567e+06
7.09428e+06
6.67113e+06
6.2497e+06
5.8142e+06
5.34804e+06
4.88253e+06
4.44798e+06
4.04709e+06
3.632e+06
3.24338e+06
2.86691e+06
2.62127e+06
2.40073e+06
2.21564e+06
2.0317e+06
1.8665e+06
1.73281e+06
1.62468e+06
1.51528e+06
1.47917e+06
1.42627e+06
1.38233e+06
1.34732e+06
1.31247e+06
1.28097e+06
1.25152e+06
1.22274e+06
1.19533e+06
1.16898e+06
1.14598e+06
1.12392e+06
1.1045e+06
1.08843e+06
1.07562e+06
1.08517e+06
1.0839e+06
1.07596e+06
1.57514e+07
1.55137e+07
1.52735e+07
1.50323e+07
1.47897e+07
1.45454e+07
1.42985e+07
1.40493e+07
1.37987e+07
1.35463e+07
1.32911e+07
1.30346e+07
1.27756e+07
1.25131e+07
1.22485e+07
1.19802e+07
1.1709e+07
1.14345e+07
1.11535e+07
1.08681e+07
1.05771e+07
1.02779e+07
9.97154e+06
9.65642e+06
9.32972e+06
8.99046e+06
8.64406e+06
8.29034e+06
7.91397e+06
7.52694e+06
7.13346e+06
6.72343e+06
6.31656e+06
5.89571e+06
5.44357e+06
4.99052e+06
4.56628e+06
4.17277e+06
3.77824e+06
3.39693e+06
3.039e+06
2.75964e+06
2.53954e+06
2.35495e+06
2.18019e+06
2.01341e+06
1.87288e+06
1.76337e+06
1.67423e+06
1.60593e+06
1.55057e+06
1.50393e+06
1.4639e+06
1.42539e+06
1.38845e+06
1.3549e+06
1.32091e+06
1.29037e+06
1.26232e+06
1.23822e+06
1.21346e+06
1.20295e+06
1.18791e+06
1.17646e+06
1.17771e+06
1.17388e+06
1.16447e+06
1.5754e+07
1.55162e+07
1.52759e+07
1.5035e+07
1.47925e+07
1.4548e+07
1.43015e+07
1.40527e+07
1.38023e+07
1.35503e+07
1.32958e+07
1.30393e+07
1.27806e+07
1.25187e+07
1.22542e+07
1.19861e+07
1.17157e+07
1.14414e+07
1.11608e+07
1.08762e+07
1.05858e+07
1.02872e+07
9.98221e+06
9.66818e+06
9.34303e+06
9.00611e+06
8.66236e+06
8.3126e+06
7.94219e+06
7.56181e+06
7.17567e+06
6.78013e+06
6.38754e+06
5.981e+06
5.54266e+06
5.10173e+06
4.68755e+06
4.30026e+06
3.92876e+06
3.55437e+06
3.20062e+06
2.90276e+06
2.68254e+06
2.49332e+06
2.32893e+06
2.16507e+06
2.02275e+06
1.90721e+06
1.80768e+06
1.73999e+06
1.68119e+06
1.63124e+06
1.58355e+06
1.5401e+06
1.49639e+06
1.45915e+06
1.42209e+06
1.39084e+06
1.36152e+06
1.33533e+06
1.31939e+06
1.30585e+06
1.28987e+06
1.27723e+06
1.27506e+06
1.2686e+06
1.2576e+06
1.57556e+07
1.55179e+07
1.52778e+07
1.50369e+07
1.47944e+07
1.45501e+07
1.43039e+07
1.40553e+07
1.38053e+07
1.35538e+07
1.32995e+07
1.30434e+07
1.27851e+07
1.25234e+07
1.22592e+07
1.19918e+07
1.17217e+07
1.14478e+07
1.11679e+07
1.08839e+07
1.05942e+07
1.02967e+07
9.99265e+06
9.68007e+06
9.35694e+06
9.02227e+06
8.68154e+06
8.3362e+06
7.97155e+06
7.59827e+06
7.22058e+06
6.83904e+06
6.4606e+06
6.06816e+06
5.64328e+06
5.21475e+06
4.81035e+06
4.43166e+06
4.07808e+06
3.71423e+06
3.36959e+06
3.03458e+06
2.8286e+06
2.63486e+06
2.46988e+06
2.31509e+06
2.17568e+06
2.05496e+06
1.95161e+06
1.87871e+06
1.81349e+06
1.75922e+06
1.70251e+06
1.65338e+06
1.60673e+06
1.56626e+06
1.52799e+06
1.49367e+06
1.46192e+06
1.44291e+06
1.42852e+06
1.4131e+06
1.39593e+06
1.38184e+06
1.37603e+06
1.36713e+06
1.35422e+06
1.57574e+07
1.55198e+07
1.52799e+07
1.50392e+07
1.47968e+07
1.45526e+07
1.43067e+07
1.40584e+07
1.38086e+07
1.35576e+07
1.33038e+07
1.30479e+07
1.27902e+07
1.25289e+07
1.2265e+07
1.1998e+07
1.17285e+07
1.14551e+07
1.11758e+07
1.08925e+07
1.06036e+07
1.03071e+07
1.00044e+07
9.69341e+06
9.37242e+06
9.04046e+06
8.70319e+06
8.36273e+06
8.0046e+06
7.63844e+06
7.27004e+06
6.90216e+06
6.53719e+06
6.15814e+06
5.74613e+06
5.32965e+06
4.93531e+06
4.56488e+06
4.21999e+06
3.87691e+06
3.54057e+06
3.23281e+06
2.9754e+06
2.78046e+06
2.60989e+06
2.45841e+06
2.32646e+06
2.20452e+06
2.09926e+06
2.01489e+06
1.94216e+06
1.88348e+06
1.82325e+06
1.76975e+06
1.72238e+06
1.67933e+06
1.63785e+06
1.61453e+06
1.58557e+06
1.56147e+06
1.54348e+06
1.52512e+06
1.50674e+06
1.49123e+06
1.48175e+06
1.47091e+06
1.45524e+06
1.57604e+07
1.55228e+07
1.5283e+07
1.50426e+07
1.48004e+07
1.45562e+07
1.43108e+07
1.40629e+07
1.38132e+07
1.35626e+07
1.33094e+07
1.30538e+07
1.27965e+07
1.25358e+07
1.22722e+07
1.20057e+07
1.1737e+07
1.1464e+07
1.11854e+07
1.09031e+07
1.0615e+07
1.03196e+07
1.00184e+07
9.70904e+06
9.39037e+06
9.06156e+06
8.72795e+06
8.39237e+06
8.04069e+06
7.68172e+06
7.32427e+06
6.96984e+06
6.61807e+06
6.2521e+06
5.85326e+06
5.44808e+06
5.06391e+06
4.70157e+06
4.36531e+06
4.04446e+06
3.71484e+06
3.40626e+06
3.12533e+06
2.9323e+06
2.75699e+06
2.60221e+06
2.47019e+06
2.34944e+06
2.2455e+06
2.1504e+06
2.07084e+06
2.00946e+06
1.9493e+06
1.89283e+06
1.84244e+06
1.79776e+06
1.76546e+06
1.74016e+06
1.71042e+06
1.68486e+06
1.66312e+06
1.64239e+06
1.6224e+06
1.6043e+06
1.5923e+06
1.57994e+06
1.56199e+06
1.57626e+07
1.55251e+07
1.52856e+07
1.50455e+07
1.48034e+07
1.45594e+07
1.43143e+07
1.40667e+07
1.38174e+07
1.35673e+07
1.33143e+07
1.30591e+07
1.28025e+07
1.25422e+07
1.2279e+07
1.20133e+07
1.17451e+07
1.14728e+07
1.11951e+07
1.09137e+07
1.06265e+07
1.03325e+07
1.00328e+07
9.72519e+06
9.40905e+06
9.08343e+06
8.75395e+06
8.42386e+06
8.07832e+06
7.72618e+06
7.38113e+06
7.03996e+06
6.70113e+06
6.3481e+06
5.96174e+06
5.56908e+06
5.19508e+06
4.84136e+06
4.5126e+06
4.20918e+06
3.89212e+06
3.58983e+06
3.32521e+06
3.07174e+06
2.90891e+06
2.7505e+06
2.61362e+06
2.49147e+06
2.38576e+06
2.28824e+06
2.20446e+06
2.14014e+06
2.07938e+06
2.01832e+06
1.97884e+06
1.92598e+06
1.89885e+06
1.87099e+06
1.83962e+06
1.81176e+06
1.78677e+06
1.76398e+06
1.74219e+06
1.72144e+06
1.70656e+06
1.69185e+06
1.67127e+06
1.57651e+07
1.55279e+07
1.52885e+07
1.50487e+07
1.48069e+07
1.45631e+07
1.43184e+07
1.40711e+07
1.38222e+07
1.35725e+07
1.332e+07
1.30652e+07
1.28091e+07
1.25494e+07
1.22868e+07
1.20216e+07
1.17542e+07
1.14827e+07
1.12058e+07
1.09254e+07
1.06395e+07
1.03468e+07
1.00487e+07
9.74315e+06
9.42944e+06
9.10698e+06
8.78194e+06
8.4579e+06
8.11959e+06
7.77488e+06
7.44266e+06
7.11441e+06
6.78825e+06
6.44723e+06
6.07285e+06
5.69167e+06
5.32775e+06
4.98264e+06
4.66061e+06
4.36311e+06
4.06758e+06
3.77501e+06
3.5095e+06
3.28003e+06
3.06247e+06
2.9038e+06
2.7631e+06
2.63777e+06
2.5283e+06
2.43189e+06
2.34596e+06
2.27912e+06
2.21758e+06
2.16794e+06
2.12149e+06
2.07693e+06
2.03946e+06
2.00766e+06
1.97432e+06
1.94422e+06
1.91676e+06
1.89174e+06
1.86799e+06
1.84493e+06
1.82568e+06
1.80594e+06
1.78025e+06
1.57687e+07
1.55316e+07
1.52924e+07
1.50531e+07
1.48115e+07
1.45679e+07
1.43237e+07
1.40769e+07
1.38282e+07
1.3579e+07
1.33271e+07
1.30726e+07
1.28171e+07
1.25582e+07
1.2296e+07
1.20316e+07
1.17652e+07
1.14943e+07
1.12184e+07
1.09394e+07
1.06546e+07
1.03635e+07
1.00675e+07
9.76401e+06
9.45309e+06
9.13416e+06
8.81322e+06
8.495e+06
8.16378e+06
7.82873e+06
7.50909e+06
7.19338e+06
6.87946e+06
6.55033e+06
6.18775e+06
5.81782e+06
5.46402e+06
5.12739e+06
4.81171e+06
4.51652e+06
4.23573e+06
3.96351e+06
3.70202e+06
3.46587e+06
3.26027e+06
3.06013e+06
2.91844e+06
2.79215e+06
2.6798e+06
2.57772e+06
2.48829e+06
2.41563e+06
2.37742e+06
2.32293e+06
2.27285e+06
2.22574e+06
2.18505e+06
2.15022e+06
2.11485e+06
2.08246e+06
2.05259e+06
2.02509e+06
1.99934e+06
1.9738e+06
1.94981e+06
1.92376e+06
1.89209e+06
1.57718e+07
1.5535e+07
1.52959e+07
1.5057e+07
1.48158e+07
1.45724e+07
1.43287e+07
1.40824e+07
1.3834e+07
1.35853e+07
1.33339e+07
1.30799e+07
1.2825e+07
1.25667e+07
1.23052e+07
1.20416e+07
1.17761e+07
1.15062e+07
1.12314e+07
1.09537e+07
1.06704e+07
1.03809e+07
1.00871e+07
9.78622e+06
9.47838e+06
9.16326e+06
8.84686e+06
8.53445e+06
8.20987e+06
7.88601e+06
7.5788e+06
7.27546e+06
6.97339e+06
6.65574e+06
6.30485e+06
5.94598e+06
5.60218e+06
5.2741e+06
4.96488e+06
4.67459e+06
4.40183e+06
4.14882e+06
3.8966e+06
3.66143e+06
3.45109e+06
3.26407e+06
3.07638e+06
2.93468e+06
2.82525e+06
2.75505e+06
2.6716e+06
2.60138e+06
2.54205e+06
2.4838e+06
2.42963e+06
2.37893e+06
2.33551e+06
2.29815e+06
2.2606e+06
2.22577e+06
2.1935e+06
2.16335e+06
2.13555e+06
2.10745e+06
2.07949e+06
2.04676e+06
2.00988e+06
1.57759e+07
1.55394e+07
1.53006e+07
1.5062e+07
1.48213e+07
1.45782e+07
1.43349e+07
1.40892e+07
1.38412e+07
1.35929e+07
1.33421e+07
1.30887e+07
1.28343e+07
1.25768e+07
1.23161e+07
1.20532e+07
1.17888e+07
1.152e+07
1.12463e+07
1.09702e+07
1.06885e+07
1.0401e+07
1.01097e+07
9.81155e+06
9.50703e+06
9.19613e+06
8.88478e+06
8.57861e+06
8.26047e+06
7.94859e+06
7.65341e+06
7.36206e+06
7.07155e+06
6.76509e+06
6.4256e+06
6.0776e+06
5.74372e+06
5.42418e+06
5.1216e+06
4.83744e+06
4.57039e+06
4.32385e+06
4.08885e+06
3.86054e+06
3.65032e+06
3.45995e+06
3.29979e+06
3.1583e+06
3.03636e+06
2.93751e+06
2.84991e+06
2.776e+06
2.71407e+06
2.65055e+06
2.59275e+06
2.53918e+06
2.4923e+06
2.45255e+06
2.41262e+06
2.37518e+06
2.34044e+06
2.30758e+06
2.27787e+06
2.2478e+06
2.21738e+06
2.17533e+06
2.13327e+06
1.57796e+07
1.55433e+07
1.53049e+07
1.50667e+07
1.48263e+07
1.45837e+07
1.43409e+07
1.40956e+07
1.38481e+07
1.36005e+07
1.33502e+07
1.30973e+07
1.28438e+07
1.25869e+07
1.23269e+07
1.20651e+07
1.18017e+07
1.15341e+07
1.12618e+07
1.09872e+07
1.07074e+07
1.0422e+07
1.0133e+07
9.83795e+06
9.53712e+06
9.23046e+06
8.92451e+06
8.62506e+06
8.31488e+06
8.01465e+06
7.7313e+06
7.45138e+06
7.17215e+06
6.87688e+06
6.54855e+06
6.2114e+06
5.88727e+06
5.57616e+06
5.28067e+06
5.00266e+06
4.74058e+06
4.49544e+06
4.26998e+06
4.05691e+06
3.85312e+06
3.66104e+06
3.49277e+06
3.34871e+06
3.22419e+06
3.12453e+06
3.03631e+06
2.95873e+06
2.88854e+06
2.82234e+06
2.76147e+06
2.70506e+06
2.65428e+06
2.61217e+06
2.56964e+06
2.52966e+06
2.49192e+06
2.45582e+06
2.42303e+06
2.39001e+06
2.35689e+06
2.30728e+06
2.26125e+06
1.57838e+07
1.55478e+07
1.53096e+07
1.5072e+07
1.4832e+07
1.45897e+07
1.43476e+07
1.41028e+07
1.38558e+07
1.36089e+07
1.33592e+07
1.3107e+07
1.28542e+07
1.25982e+07
1.23391e+07
1.20783e+07
1.18161e+07
1.15497e+07
1.1279e+07
1.10061e+07
1.07283e+07
1.04453e+07
1.01593e+07
9.86743e+06
9.5705e+06
9.2685e+06
8.96815e+06
8.67541e+06
8.3751e+06
8.08631e+06
7.81431e+06
7.54566e+06
7.2772e+06
6.99245e+06
6.6749e+06
6.34823e+06
6.03378e+06
5.73123e+06
5.44288e+06
5.17124e+06
4.91391e+06
4.67228e+06
4.44869e+06
4.24382e+06
4.05452e+06
3.8669e+06
3.69935e+06
3.55331e+06
3.42215e+06
3.31882e+06
3.22903e+06
3.14738e+06
3.07114e+06
3.00192e+06
2.93787e+06
2.87867e+06
2.82404e+06
2.77934e+06
2.7342e+06
2.6915e+06
2.65095e+06
2.61008e+06
2.57014e+06
2.53025e+06
2.4917e+06
2.44325e+06
2.39576e+06
1.5789e+07
1.55534e+07
1.53156e+07
1.50784e+07
1.48389e+07
1.45971e+07
1.43555e+07
1.41114e+07
1.3865e+07
1.36188e+07
1.33698e+07
1.31183e+07
1.28664e+07
1.26113e+07
1.23532e+07
1.20935e+07
1.18326e+07
1.15675e+07
1.12983e+07
1.10273e+07
1.07515e+07
1.04709e+07
1.01878e+07
9.89936e+06
9.60646e+06
9.30931e+06
9.0149e+06
8.72919e+06
8.44005e+06
8.1628e+06
7.90193e+06
7.64416e+06
7.38629e+06
7.11191e+06
6.80494e+06
6.4886e+06
6.18371e+06
5.88962e+06
5.60851e+06
5.34327e+06
5.0908e+06
4.85301e+06
4.63219e+06
4.42822e+06
4.24572e+06
4.07244e+06
3.90979e+06
3.7614e+06
3.62375e+06
3.51901e+06
3.42643e+06
3.34029e+06
3.26069e+06
3.18725e+06
3.12155e+06
3.05927e+06
3.00015e+06
2.95307e+06
2.9056e+06
2.86015e+06
2.81709e+06
2.77205e+06
2.72068e+06
2.67283e+06
2.62845e+06
2.58232e+06
2.53476e+06
1.5794e+07
1.55587e+07
1.53213e+07
1.50847e+07
1.48455e+07
1.46042e+07
1.43634e+07
1.41198e+07
1.38741e+07
1.36288e+07
1.33806e+07
1.31298e+07
1.2879e+07
1.26249e+07
1.23677e+07
1.21094e+07
1.18498e+07
1.15863e+07
1.13188e+07
1.10495e+07
1.07759e+07
1.04979e+07
1.02177e+07
9.93279e+06
9.64418e+06
9.35183e+06
9.06365e+06
8.78512e+06
8.50841e+06
8.24261e+06
7.99272e+06
7.74552e+06
7.49795e+06
7.2339e+06
6.93733e+06
6.6312e+06
6.33568e+06
6.04994e+06
5.77623e+06
5.51729e+06
5.26986e+06
5.0362e+06
4.81822e+06
4.61621e+06
4.43275e+06
4.26607e+06
4.11576e+06
3.96965e+06
3.83313e+06
3.71669e+06
3.62272e+06
3.5365e+06
3.45218e+06
3.37411e+06
3.30512e+06
3.24178e+06
3.18198e+06
3.12893e+06
3.0778e+06
3.02908e+06
2.98307e+06
2.93501e+06
2.87461e+06
2.82077e+06
2.77318e+06
2.72605e+06
2.67799e+06
1.57997e+07
1.55648e+07
1.53278e+07
1.50917e+07
1.48531e+07
1.46123e+07
1.43722e+07
1.41294e+07
1.38844e+07
1.36399e+07
1.33926e+07
1.31427e+07
1.28929e+07
1.26399e+07
1.23838e+07
1.21268e+07
1.18689e+07
1.1607e+07
1.13414e+07
1.10745e+07
1.08034e+07
1.05281e+07
1.02512e+07
9.96998e+06
9.68561e+06
9.39824e+06
9.11648e+06
8.84748e+06
8.58315e+06
8.32853e+06
8.08922e+06
7.85235e+06
7.61466e+06
7.36025e+06
7.07369e+06
6.77743e+06
6.49117e+06
6.21386e+06
5.94748e+06
5.69496e+06
5.45277e+06
5.22337e+06
5.00855e+06
4.80862e+06
4.62486e+06
4.45757e+06
4.30838e+06
4.1695e+06
4.04184e+06
3.91401e+06
3.8129e+06
3.73097e+06
3.64033e+06
3.55843e+06
3.48561e+06
3.42184e+06
3.36556e+06
3.30272e+06
3.24567e+06
3.19366e+06
3.143e+06
3.09146e+06
3.0321e+06
2.97616e+06
2.9263e+06
2.87764e+06
2.82877e+06
1.58066e+07
1.55721e+07
1.53355e+07
1.51001e+07
1.48621e+07
1.4622e+07
1.43827e+07
1.41407e+07
1.38964e+07
1.36529e+07
1.34065e+07
1.31576e+07
1.29089e+07
1.26571e+07
1.24024e+07
1.21469e+07
1.18906e+07
1.16306e+07
1.13671e+07
1.11025e+07
1.08339e+07
1.05617e+07
1.02883e+07
1.0011e+07
9.73124e+06
9.44887e+06
9.17492e+06
8.91687e+06
8.66439e+06
8.42074e+06
8.19186e+06
7.96505e+06
7.73711e+06
7.49239e+06
7.21579e+06
6.92937e+06
6.65235e+06
6.38342e+06
6.12449e+06
5.87849e+06
5.6417e+06
5.41676e+06
5.2052e+06
5.00754e+06
4.82358e+06
4.65609e+06
4.50393e+06
4.36653e+06
4.23883e+06
4.11327e+06
4.0034e+06
3.91604e+06
3.82779e+06
3.74441e+06
3.6697e+06
3.6023e+06
3.54127e+06
3.47747e+06
3.41688e+06
3.36096e+06
3.30627e+06
3.25132e+06
3.19464e+06
3.13851e+06
3.08718e+06
3.03702e+06
2.98718e+06
1.58133e+07
1.55793e+07
1.53434e+07
1.51087e+07
1.48713e+07
1.46319e+07
1.43934e+07
1.41522e+07
1.39088e+07
1.36663e+07
1.3421e+07
1.31731e+07
1.29258e+07
1.26753e+07