/*--------------------------------*- C++ -*----------------------------------*\
| =========                 |                                                 |
| \\      /  F ield         | OpenFOAM: The Open Source CFD Toolbox           |
|  \\    /   O peration     | Version:  v2012                                 |
|   \\  /    A nd           | Website:  www.openfoam.com                      |
|    \\/     M anipulation  |                                                 |
\*---------------------------------------------------------------------------*/
FoamFile
{
    version     2.0;
    format      ascii;
    class       volVectorField;
    location    "1e-06";
    object      U;
}
// * * * * * * * * * * * * * * * * * * * * * * * * * * * * * * * * * * * * * //

dimensions      [0 1 -1 0 0 0 0];


internalField   nonuniform List<vector> 
10295
(
(5.69228 1.85096 4.12222e-31)
(5.68219 1.84569 -3.31479e-29)
(5.83855 1.89388 4.07429e-29)
(5.87497 1.91091 -3.11766e-29)
(5.86042 1.90646 -2.96712e-31)
(6.02993 1.95776 3.40152e-29)
(6.08186 1.97988 -2.72588e-29)
(6.0831 1.97834 -2.25347e-29)
(6.25026 2.0287 -1.48382e-31)
(6.3095 2.05079 -6.1702e-35)
(6.30935 2.05074 4.26152e-31)
(6.48373 2.10947 6.23829e-29)
(6.56044 2.14006 0)
(6.57163 2.14357 0)
(6.70829 2.18573 3.00883e-29)
(6.71081 2.19269 0)
(6.60744 2.16186 -1.24878e-31)
(6.93292 2.55079 4.28984e-34)
(7.82821 3.10368 -4.28987e-30)
(8.38413 2.8288 4.96946e-28)
(8.58286 2.80098 0)
(8.93987 2.76597 2.25046e-30)
(9.47909 2.62816 -2.73124e-34)
(10.364 2.33812 1.36064e-27)
(11.1901 0.403432 -2.55874e-34)
(10.1833 -0.723147 3.83715e-30)
(8.74408 -0.77904 1.71084e-27)
(8.39765 -0.644596 4.21327e-31)
(7.94374 -0.611059 0)
(7.57152 -0.454842 2.34525e-32)
(7.19609 -0.524277 4.24259e-32)
(6.82533 -0.544497 -2.68704e-34)
(6.25649 -0.396372 2.81169e-30)
(5.45404 -0.246788 7.55192e-27)
(4.64919 0.461854 1.80998e-30)
(4.94193 0.708883 -1.91885e-26)
(5.01668 0.788926 -5.41394e-32)
(5.00062 0.852052 -8.98499e-27)
(4.98397 0.868971 0)
(5.10508 0.909272 8.92915e-27)
(5.07437 0.921433 -8.69822e-27)
(5.10632 0.930974 -8.54649e-34)
(5.05268 0.929687 -8.41634e-27)
(5.10846 0.928861 -8.59276e-27)
(5.23265 0.947919 -8.79406e-27)
(5.20758 0.951344 1.72624e-26)
(5.22777 0.960829 8.60448e-27)
(4.91065 0.907471 7.99516e-27)
(5.20383 0.951973 -1.71356e-26)
(5.33496 0.964296 -1.56552e-31)
(5.21209 0.966985 0)
(5.2569 0.978568 -8.90312e-27)
(5.28008 1.12747 0)
(5.46092 1.1796 0)
(5.71155 1.29354 0)
(6.25852 1.2088 -1.17719e-26)
(6.40798 1.19577 1.18736e-26)
(6.30667 1.10893 -8.26002e-31)
(6.16799 1.99745 0)
(6.26452 2.02461 -1.26095e-29)
(6.34051 2.04667 1.7544e-35)
(6.34195 2.05406 1.18843e-29)
(6.4601 2.09118 -1.0684e-29)
(6.5474 2.11568 -6.22943e-30)
(6.54522 2.12178 3.91213e-30)
(6.67982 2.16177 -1.83056e-29)
(6.7811 2.19116 0)
(6.7766 2.19772 0)
(6.90805 2.23945 0)
(7.02391 2.28211 -7.77627e-29)
(7.03458 2.2927 6.34779e-31)
(7.17626 2.33841 6.36132e-31)
(7.24064 2.36179 -1.11688e-29)
(7.16873 2.34716 -1.91646e-29)
(7.17158 2.34305 -1.27334e-28)
(7.33032 2.75775 -1.63688e-27)
(8.09416 3.29604 3.98282e-30)
(8.79802 2.95964 3.39484e-30)
(9.04986 2.9248 1.66357e-31)
(9.49432 2.85626 5.37451e-28)
(10.1224 2.63995 -6.53306e-32)
(11.2489 2.23878 1.42261e-27)
(11.6885 -0.0825637 2.66508e-29)
(10.6899 -1.42691 0)
(9.52298 -1.34085 -3.36041e-30)
(8.84622 -1.3183 -6.67717e-31)
(8.39257 -1.30888 0)
(7.90404 -1.30853 -4.66994e-28)
(7.63001 -1.2943 -5.72261e-31)
(7.16207 -1.35795 9.66482e-33)
(6.57828 -1.25787 0)
(5.93402 -1.11095 1.71461e-27)
(5.50578 -0.119138 2.06288e-30)
(5.44385 0.245091 -2.13127e-26)
(5.52466 0.450732 7.82886e-34)
(5.41244 0.58445 -1.1147e-26)
(5.55942 0.703159 5.16614e-33)
(5.59133 0.799368 1.26891e-26)
(5.5506 0.841728 0)
(5.64446 0.879874 4.28494e-33)
(5.51181 0.888711 -1.15226e-33)
(5.65669 0.90459 -1.21058e-26)
(5.73011 0.917444 1.21221e-26)
(5.67848 0.920719 -5.94409e-32)
(5.78409 0.950122 1.17616e-26)
(5.61201 0.950756 -5.04957e-32)
(5.77168 0.958127 -1.15505e-26)
(5.84331 0.956712 -2.97656e-32)
(5.69522 0.9553 -1.64025e-32)
(5.79285 0.983568 -1.17948e-26)
(5.66632 1.08472 -1.26739e-26)
(5.98963 1.1678 1.06745e-33)
(6.57718 1.35453 1.56518e-26)
(6.81279 1.16084 9.05607e-31)
(6.95519 1.12231 1.54519e-26)
(6.81414 1.04887 0)
(6.78145 2.1923 0)
(6.87205 2.21763 0)
(6.93575 2.23897 4.63418e-29)
(6.96263 2.25128 2.73785e-29)
(7.07392 2.28435 -2.13531e-29)
(7.15204 2.31015 -1.76764e-31)
(7.17233 2.31987 -5.3356e-31)
(7.30656 2.35673 2.0576e-29)
(7.39408 2.38721 0)
(7.41384 2.3971 0)
(7.54484 2.43539 0)
(7.64778 2.47833 -3.72337e-29)
(7.68286 2.49268 -6.40656e-31)
(7.82261 2.53829 -1.38704e-29)
(7.8696 2.56716 3.84428e-29)
(7.81588 2.55694 8.39333e-30)
(7.82195 2.5587 -4.01209e-29)
(7.98534 2.91473 -9.57092e-28)
(8.74524 3.37434 -3.91842e-30)
(9.40942 3.1188 -3.45779e-30)
(9.64548 3.06818 -2.89194e-31)
(10.1328 2.99725 -2.10396e-30)
(10.7464 2.76887 -1.69099e-32)
(11.7176 2.29349 5.47732e-28)
(12.2205 0.343399 -1.27412e-29)
(11.298 -0.865285 0)
(9.97515 -0.920218 0)
(9.49718 -0.858094 0)
(9.03959 -0.863983 0)
(8.53658 -0.853557 -3.02091e-27)
(8.25292 -0.896089 0)
(7.747 -0.888788 -2.38709e-27)
(7.19875 -0.808345 0)
(6.5932 -0.667404 0)
(6.18465 -0.0249274 -6.27067e-31)
(6.09945 0.440828 -2.3114e-27)
(6.17798 0.750187 2.15703e-33)
(6.0916 0.921054 0)
(6.25779 1.11689 -1.2427e-31)
(6.2459 1.23899 1.03696e-26)
(6.2499 1.32771 3.12877e-33)
(6.34127 1.40871 0)
(6.17828 1.44778 -5.82009e-27)
(6.37186 1.51568 6.2422e-27)
(6.40432 1.54901 -2.97393e-32)
(6.38977 1.57546 -6.22857e-27)
(6.49462 1.62541 6.32525e-27)
(6.31573 1.6169 -1.27585e-26)
(6.50208 1.67341 6.37256e-27)
(6.52664 1.67846 6.35283e-27)
(6.42717 1.69366 0)
(6.51896 1.73021 -6.17146e-27)
(6.3587 1.89484 -1.28334e-26)
(6.69416 1.98825 0)
(7.19219 2.2043 -3.7901e-32)
(7.53455 2.01357 7.59394e-27)
(7.64424 1.9463 7.16402e-27)
(7.57486 1.83545 9.15901e-32)
(6.85963 2.2126 -4.1223e-35)
(6.93691 2.23304 8.58475e-30)
(7.04157 2.26813 -2.41373e-32)
(7.04995 2.27389 0)
(7.14049 2.29944 1.88727e-30)
(7.25045 2.33625 1.81053e-31)
(7.27047 2.34522 5.43001e-31)
(7.37424 2.37116 2.13296e-30)
(7.49159 2.41223 0)
(7.52084 2.42504 7.46964e-31)
(7.61533 2.45022 -4.12403e-31)
(7.74964 2.50351 -3.99417e-31)
(7.79303 2.52096 3.25833e-29)
(7.89721 2.55599 1.34938e-29)
(7.98915 2.60603 -5.11704e-29)
(7.93674 2.59833 -1.10818e-29)
(7.92729 2.59347 7.9528e-29)
(8.16407 2.95008 -1.42073e-27)
(8.86817 3.35964 0)
(9.47075 3.11588 0)
(9.81579 3.07487 2.69501e-28)
(10.2251 2.96099 -6.05569e-28)
(10.813 2.69126 0)
(11.8625 2.18094 8.44818e-28)
(12.1932 0.174521 -3.91002e-30)
(11.2872 -0.967181 6.24385e-30)
(10.1774 -1.06042 -5.93205e-28)
(9.55197 -1.04234 -1.55363e-34)
(9.11383 -1.10012 -1.02803e-30)
(8.61775 -1.02748 2.60021e-27)
(8.26614 -1.03504 0)
(7.8475 -1.10803 1.64364e-27)
(7.258 -0.986505 0)
(6.68232 -0.779762 -1.19291e-27)
(6.28792 -0.143754 0)
(6.21608 0.345893 1.03786e-31)
(6.30999 0.65786 9.5801e-28)
(6.28785 0.860028 -3.97255e-34)
(6.36579 1.04964 0)
(6.44325 1.18859 1.24559e-27)
(6.3737 1.28023 0)
(6.45701 1.38885 0)
(6.45942 1.48576 -2.31346e-27)
(6.49403 1.55685 5.11632e-27)
(6.58948 1.62184 -2.68469e-27)
(6.53766 1.65517 2.24981e-33)
(6.62456 1.72159 2.96908e-27)
(6.60139 1.74308 -3.28604e-27)
(6.63124 1.81683 3.42692e-27)
(6.73173 1.84472 3.39622e-27)
(6.58016 1.86933 -3.4521e-27)
(6.66384 1.91782 2.01485e-32)
(6.6221 2.10684 -3.77914e-27)
(6.83609 2.22002 -2.01305e-31)
(7.40669 2.45171 -4.30458e-27)
(7.65078 2.21685 3.86421e-27)
(7.79714 2.13019 2.90987e-32)
(7.74049 2.00951 1.81102e-33)
(7.35896 2.37014 0)
(7.44072 2.38929 9.15283e-30)
(7.52969 2.42069 -3.56149e-29)
(7.5514 2.43106 4.37476e-31)
(7.64922 2.45658 -8.3602e-31)
(7.74824 2.49092 -1.76844e-31)
(7.77287 2.50126 -1.06035e-29)
(7.8892 2.52912 -5.58071e-30)
(7.9941 2.56733 -1.65445e-31)
(8.02585 2.58153 1.86157e-29)
(8.13801 2.60992 -2.9489e-29)
(8.2602 2.65992 -2.08988e-31)
(8.30504 2.67853 5.85388e-29)
(8.42918 2.7201 -5.87699e-31)
(8.51219 2.77351 0)
(8.47811 2.77521 -3.26945e-29)
(8.49127 2.77144 3.02842e-32)
(8.72264 3.10546 -1.18584e-27)
(9.37414 3.46549 -3.55272e-30)
(9.96637 3.24211 1.3472e-27)
(10.31 3.18277 5.46524e-28)
(10.7394 3.05803 0)
(11.3234 2.74882 0)
(12.2641 2.16063 -7.55703e-28)
(12.5906 0.29093 5.32034e-30)
(11.7298 -0.834603 0)
(10.706 -0.968752 1.1482e-28)
(10.0871 -1.01831 0)
(9.61796 -1.00207 0)
(9.12658 -1.00312 -1.17603e-28)
(8.79724 -1.04806 -7.01021e-31)
(8.32293 -1.04591 0)
(7.77169 -0.932243 -1.60284e-28)
(7.24136 -0.802777 -8.09175e-29)
(6.81708 -0.154934 0)
(6.69455 0.298025 -8.6133e-28)
(6.75 0.605261 8.06344e-28)
(6.74121 0.821509 0)
(6.8406 0.997346 -1.29513e-31)
(6.89875 1.13583 7.41139e-28)
(6.84355 1.24825 -6.82964e-35)
(6.92281 1.35753 -1.69603e-32)
(6.92737 1.44346 0)
(6.95962 1.52447 8.1271e-28)
(7.04674 1.5941 7.55788e-35)
(7.00515 1.63434 -5.47836e-35)
(7.08929 1.70022 2.54923e-35)
(7.12283 1.72635 7.53351e-35)
(7.10253 1.81581 8.98804e-28)
(7.18839 1.83814 0)
(7.0645 1.89342 -2.11015e-27)
(7.14647 1.94254 1.06358e-27)
(7.11647 2.13014 0)
(7.30478 2.2564 0)
(7.78551 2.45465 -1.26207e-27)
(8.06507 2.23419 0)
(8.20943 2.14906 3.63076e-33)
(8.18598 2.03741 1.47098e-33)
(7.78214 2.50022 -4.72495e-35)
(7.86788 2.52041 5.17085e-31)
(7.93511 2.54637 1.86138e-31)
(7.97554 2.56106 4.49139e-31)
(8.0794 2.58724 -1.24707e-29)
(8.16132 2.61827 0)
(8.19732 2.63038 -4.26915e-30)
(8.32355 2.65932 -2.24567e-29)
(8.41092 2.69503 1.84275e-31)
(8.45148 2.71042 5.72649e-31)
(8.57891 2.7415 -7.72373e-29)
(8.68324 2.78809 0)
(8.73745 2.80807 -6.40791e-31)
(8.88005 2.85546 -5.61502e-31)
(8.95604 2.91521 6.7815e-29)
(8.9543 2.92737 1.07148e-30)
(8.99432 2.93037 -1.51868e-28)
(9.21688 3.23795 -7.22403e-28)
(9.79982 3.55237 3.3203e-30)
(10.3628 3.32767 1.27226e-27)
(10.714 3.26081 3.11831e-28)
(11.1651 3.12157 -3.93261e-30)
(11.741 2.78051 -1.26057e-27)
(12.5721 2.11576 -6.45871e-28)
(12.9001 0.341216 4.009e-29)
(12.1169 -0.73173 -7.1011e-28)
(11.0303 -0.920959 2.93452e-30)
(10.5002 -0.989278 -2.89724e-31)
(10.0421 -0.987742 -8.02859e-31)
(9.52828 -0.980067 1.44687e-28)
(9.21811 -1.05709 0)
(8.74283 -1.02205 0)
(8.21453 -0.92551 1.37263e-28)
(7.71286 -0.789889 -1.31658e-28)
(7.2749 -0.159413 0)
(7.21462 0.242723 -1.62884e-27)
(7.24443 0.579704 0)
(7.20474 0.766638 0)
(7.3423 0.975936 -7.49026e-28)
(7.3501 1.08563 6.83311e-28)
(7.34907 1.20049 -8.378e-32)
(7.42701 1.31178 9.21833e-32)
(7.36196 1.39839 8.49479e-33)
(7.47698 1.47853 3.68783e-33)
(7.51276 1.5423 3.65288e-33)
(7.51025 1.58326 1.62342e-34)
(7.5975 1.65123 1.06927e-34)
(7.52013 1.66605 0)
(7.62339 1.76997 1.02224e-27)
(7.65712 1.79114 -5.18756e-35)
(7.60014 1.85556 -4.86098e-28)
(7.67803 1.90597 0)
(7.59948 2.0768 0)
(7.81141 2.19473 0)
(8.19125 2.376 -4.78597e-28)
(8.51177 2.17695 -3.18092e-35)
(8.62946 2.11059 -4.63507e-28)
(8.64954 2.0082 0)
(7.85294 2.51832 0)
(7.92525 2.53398 0)
(8.02845 2.571 2.07487e-29)
(8.05486 2.58085 0)
(8.13805 2.60014 3.13825e-31)
(8.24864 2.63993 1.91093e-31)
(8.28611 2.65195 7.56055e-30)
(8.38295 2.67139 -8.58958e-30)
(8.4975 2.71532 0)
(8.54734 2.73295 -3.79316e-31)
(8.64088 2.75289 -2.43994e-29)
(8.77332 2.80772 7.69271e-29)
(8.83685 2.83031 3.33805e-29)
(8.94844 2.86805 7.37928e-29)
(9.07756 2.94912 6.16984e-29)
(9.10004 2.97155 -2.41927e-29)
(9.13136 2.97192 -2.22112e-28)
(9.41749 3.26611 5.26215e-31)
(9.94339 3.5496 -6.21319e-30)
(10.4236 3.30136 -1.2011e-27)
(10.8444 3.24755 3.91441e-28)
(11.2424 3.07702 1.86193e-30)
(11.7918 2.70376 -1.24421e-27)
(12.6394 2.01382 -2.4082e-30)
(12.8582 0.343977 3.39686e-29)
(12.1095 -0.676607 -4.27775e-32)
(11.1695 -0.885391 2.8005e-30)
(10.5347 -0.934461 3.00644e-31)
(10.0967 -0.988443 -6.80291e-30)
(9.65687 -1.00844 -1.67018e-28)
(9.27062 -0.97427 5.19443e-31)
(8.85129 -1.01316 -6.58921e-31)
(8.32489 -0.959139 -2.5374e-30)
(7.86692 -0.756538 -3.50412e-28)
(7.50195 -0.249162 0)
(7.35099 0.16628 -6.70432e-28)
(7.36501 0.489665 -7.09883e-28)
(7.35513 0.693323 6.6091e-28)
(7.43544 0.880505 -6.88222e-32)
(7.50082 1.02618 -1.40701e-31)
(7.45888 1.11679 -1.91277e-31)
(7.52988 1.21741 -1.66283e-31)
(7.54202 1.32102 0)
(7.57128 1.38264 0)
(7.6502 1.45801 0)
(7.63121 1.48891 -1.2492e-34)
(7.70454 1.5584 -4.5534e-28)
(7.68996 1.5889 0)
(7.72509 1.68283 -2.34061e-33)
(7.80489 1.72454 0)
(7.71987 1.76875 0)
(7.77893 1.82266 0)
(7.7798 1.99804 4.73051e-28)
(7.92414 2.09662 -9.07663e-32)
(8.34042 2.27531 3.97653e-28)
(8.60372 2.08459 -2.20126e-28)
(8.74618 2.04342 -7.41466e-32)
(8.75433 1.94144 -2.99753e-32)
(8.19465 2.62215 7.55755e-31)
(8.27374 2.63726 2.56911e-31)
(8.35647 2.66951 1.64833e-31)
(8.39427 2.68298 4.56308e-35)
(8.48752 2.70252 -2.88707e-35)
(8.58235 2.73876 3.99698e-31)
(8.62341 2.75188 3.12811e-29)
(8.73447 2.77297 1.97736e-29)
(8.83386 2.81372 0)
(8.88396 2.83208 -1.10102e-31)
(8.99661 2.8548 -3.19106e-30)
(9.11386 2.90538 1.73254e-28)
(9.17899 2.92899 3.05412e-29)
(9.31255 2.97088 3.71875e-29)
(9.4432 3.05511 1.90389e-29)
(9.51048 3.09528 -3.45586e-29)
(9.61439 3.1145 -2.80612e-28)
(9.87151 3.37545 8.45637e-28)
(10.3427 3.62967 1.04867e-27)
(10.801 3.37337 -1.12267e-27)
(11.16 3.29062 4.52933e-28)
(11.5783 3.11064 7.01764e-30)
(12.1226 2.71003 1.42873e-32)
(12.8912 1.97255 -2.40126e-28)
(13.0772 0.430417 6.20811e-30)
(12.3961 -0.52822 6.39568e-28)
(11.528 -0.783068 -9.06757e-30)
(10.8848 -0.873323 6.47174e-31)
(10.4386 -0.917368 -1.01725e-28)
(9.98522 -0.963393 2.201e-28)
(9.63752 -0.969265 0)
(9.21612 -0.967362 -1.63809e-30)
(8.69703 -0.891655 -2.37703e-28)
(8.21534 -0.690275 5.6925e-28)
(7.87753 -0.243139 4.74433e-28)
(7.72658 0.180513 7.15137e-28)
(7.72189 0.474105 -5.31162e-28)
(7.68914 0.698102 6.60612e-28)
(7.76211 0.873162 -2.258e-34)
(7.80909 1.03305 6.14278e-28)
(7.8003 1.13698 1.31991e-31)
(7.8721 1.2349 3.7421e-31)
(7.87672 1.30292 -5.47415e-28)
(7.91341 1.37194 0)
(7.97427 1.46185 -5.06482e-28)
(7.96972 1.49967 -7.32135e-32)
(8.04612 1.57109 -3.86768e-28)
(8.02801 1.59307 0)
(8.07024 1.67942 -3.13793e-28)
(8.12542 1.71378 0)
(8.06543 1.76654 2.83334e-32)
(8.12151 1.81846 -2.67949e-31)
(8.14021 1.97218 4.15061e-28)
(8.28798 2.05221 0)
(8.65238 2.21721 2.93269e-28)
(8.88409 2.07203 -1.89447e-28)
(9.00698 2.02409 6.30384e-28)
(9.03753 1.93424 -3.49908e-32)
(8.26137 2.63966 -7.57891e-31)
(8.32401 2.64784 -4.41824e-29)
(8.43858 2.68957 0)
(8.47029 2.70205 -9.01589e-31)
(8.53918 2.71281 -6.31183e-31)
(8.65845 2.75553 0)
(8.70856 2.77236 2.16396e-29)
(8.78792 2.78283 -5.7998e-29)
(8.90903 2.8287 1.657e-29)
(8.97516 2.85282 1.2617e-29)
(9.05241 2.86383 -3.50187e-29)
(9.19207 2.91906 6.72947e-29)
(9.27319 2.94863 1.24077e-30)
(9.3717 2.97779 1.27771e-29)
(9.54753 3.07447 3.8502e-29)
(9.6612 3.13002 -8.29228e-30)
(9.79379 3.15803 -8.94491e-28)
(10.0862 3.41374 8.47276e-28)
(10.4794 3.6328 -7.72525e-31)
(10.8684 3.35146 -5.11083e-30)
(11.2729 3.26907 0)
(11.647 3.06253 3.30589e-30)
(12.1619 2.62789 -1.21149e-27)
(12.9209 1.87344 -9.87395e-29)
(13.0366 0.440549 6.77863e-30)
(12.381 -0.47684 -5.4659e-28)
(11.5961 -0.751399 -4.74538e-32)
(10.9413 -0.859043 0)
(10.5086 -0.908911 -1.16115e-29)
(10.0877 -0.955986 2.13528e-28)
(9.69251 -0.977397 0)
(9.32018 -0.980735 1.77973e-28)
(8.79985 -0.885108 -2.25265e-28)
(8.3241 -0.687397 4.7309e-28)
(8.03928 -0.251266 4.63399e-28)
(7.84633 0.151492 6.3515e-28)
(7.84178 0.42039 -4.6027e-28)
(7.83564 0.635065 0)
(7.86941 0.811885 -4.61098e-28)
(7.97602 0.951629 4.36616e-28)
(7.92202 1.06611 0)
(7.96836 1.1665 0)
(8.01413 1.26586 -1.0738e-27)
(8.00371 1.32752 0)
(8.09727 1.39968 -4.35834e-28)
(8.08287 1.43276 -2.90973e-28)
(8.1412 1.50204 3.08779e-28)
(8.16057 1.52997 0)
(8.15679 1.60947 -2.38238e-28)
(8.24872 1.65676 2.98629e-28)
(8.17704 1.71175 0)
(8.23052 1.76366 0)
(8.29667 1.90032 0)
(8.39414 1.96713 1.15843e-28)
(8.77578 2.13858 -4.17354e-35)
(8.98267 2.00732 -1.81466e-31)
(9.11164 1.9781 2.77107e-28)
(9.14565 1.89711 0)
(8.58672 2.73891 -3.22319e-29)
(8.66518 2.74908 4.41957e-31)
(8.75155 2.78206 0)
(8.79079 2.79827 0)
(8.88121 2.81326 0)
(8.97876 2.84859 1.46257e-29)
(9.02471 2.86542 1.03576e-30)
(9.12989 2.882 -3.73999e-29)
(9.23247 2.92134 1.68384e-29)
(9.28994 2.94424 2.27444e-29)
(9.39733 2.9624 7.62019e-31)
(9.51932 3.01059 6.35728e-29)
(9.5932 3.03941 1.4847e-30)
(9.72245 3.07454 1.167e-30)
(9.87928 3.16056 -3.60022e-29)
(10.0133 3.22266 -3.67353e-30)
(10.2093 3.26537 -2.4095e-28)
(10.4747 3.51145 0)
(10.8375 3.7121 -7.19716e-28)
(11.2181 3.41767 4.91693e-30)
(11.5618 3.30075 3.4805e-30)
(11.9643 3.08847 -4.70967e-34)
(12.4839 2.62826 -1.19649e-27)
(13.1209 1.8291 0)
(13.2412 0.506857 2.16734e-29)
(12.6346 -0.373151 -3.84918e-32)
(11.8772 -0.667545 4.53275e-29)
(11.2845 -0.797231 -5.84858e-29)
(10.8546 -0.875597 -1.01747e-30)
(10.3996 -0.917168 -1.1649e-28)
(10.0176 -0.926865 -8.65264e-31)
(9.59797 -0.928519 1.54593e-28)
(9.11983 -0.839707 0)
(8.69173 -0.679752 2.99101e-30)
(8.40244 -0.266805 6.39136e-35)
(8.25991 0.0715234 -6.12111e-31)
(8.20201 0.395355 -5.73354e-28)
(8.14898 0.59227 0)
(8.17965 0.796649 5.58442e-28)
(8.23929 0.910485 -2.54723e-31)
(8.2474 1.02551 1.60727e-31)
(8.30529 1.12276 -8.64621e-31)
(8.34174 1.22541 -4.8051e-28)
(8.31902 1.28187 2.45844e-28)
(8.38525 1.35742 2.75444e-32)
(8.41186 1.39161 -2.65103e-28)
(8.47263 1.46125 6.12778e-28)
(8.46686 1.49941 5.23262e-35)
(8.46298 1.58713 -2.59712e-28)
(8.54206 1.6359 3.50587e-28)
(8.50555 1.6725 0)
(8.55218 1.72223 0)
(8.61088 1.84232 -2.24561e-28)
(8.71059 1.92284 1.52917e-28)
(9.00899 2.08083 -2.02371e-31)
(9.21771 1.96473 1.76516e-31)
(9.33654 1.93976 1.05715e-31)
(9.40153 1.8615 0)
(8.88169 2.82504 8.1386e-31)
(8.97044 2.83827 -1.23843e-30)
(9.0258 2.86286 0)
(9.08193 2.88219 0)
(9.18737 2.90126 0)
(9.25823 2.92953 4.69929e-29)
(9.31149 2.94645 1.02286e-30)
(9.43668 2.96854 -1.21708e-29)
(9.51411 3.00124 -4.44681e-31)
(9.57448 3.02326 -1.25543e-30)
(9.70982 3.0491 -8.6731e-30)
(9.80438 3.08906 9.86139e-29)
(9.88259 3.11708 4.09857e-29)
(10.0408 3.1594 -2.1262e-30)
(10.1701 3.23326 1.63927e-29)
(10.3125 3.29238 1.84482e-29)
(10.5335 3.34109 -1.90926e-28)
(10.7629 3.57252 8.13047e-28)
(11.1236 3.76143 6.62616e-28)
(11.5186 3.46894 -8.71436e-28)
(11.8245 3.32364 0)
(12.2422 3.09592 0)
(12.7529 2.61634 -4.28987e-31)
(13.2904 1.78301 -1.37882e-34)
(13.4114 0.560758 2.90965e-29)
(12.879 -0.271026 -3.99971e-30)
(12.0923 -0.604184 -4.51154e-30)
(11.5992 -0.742389 6.52405e-31)
(11.1642 -0.839122 9.35703e-31)
(10.6865 -0.879661 -1.93288e-31)
(10.3521 -0.897909 7.33514e-31)
(9.91429 -0.888886 -5.79294e-29)
(9.47992 -0.805126 3.81514e-30)
(9.07351 -0.652 0)
(8.69052 -0.253784 -7.46294e-31)
(8.60759 0.0397652 -6.81614e-31)
(8.56766 0.389341 0)
(8.47449 0.571878 2.54353e-32)
(8.54779 0.756618 1.08173e-27)
(8.54312 0.910028 6.43142e-32)
(8.58289 1.01236 6.44822e-32)
(8.62819 1.10943 -4.82978e-31)
(8.60663 1.1758 2.04116e-32)
(8.68411 1.24806 2.87685e-28)
(8.69535 1.32722 -3.97822e-28)
(8.75489 1.37522 1.98107e-31)
(8.82724 1.44899 -3.96484e-32)
(8.76216 1.48539 3.69934e-28)
(8.83773 1.54782 2.87715e-28)
(8.86134 1.59616 0)
(8.86457 1.63235 -1.783e-31)
(8.90781 1.67574 2.9668e-31)
(8.92399 1.80659 -2.44649e-28)
(9.06116 1.86478 2.21128e-28)
(9.24856 2.0087 2.18465e-28)
(9.47211 1.93412 2.81094e-28)
(9.57847 1.89435 -2.05748e-28)
(9.66984 1.82002 -1.77847e-28)
(8.93929 2.83719 -6.09804e-30)
(9.01619 2.84818 -4.95555e-31)
(9.10184 2.88082 -5.82604e-35)
(9.14676 2.89553 8.63826e-31)
(9.23386 2.90967 0)
(9.33109 2.94535 0)
(9.38345 2.96059 0)
(9.48268 2.97506 -3.92117e-29)
(9.58633 3.01547 0)
(9.65171 3.03685 -8.35566e-30)
(9.75712 3.05343 1.26684e-29)
(9.8783 3.10121 -1.0442e-34)
(9.96192 3.12855 -1.48562e-29)
(10.0911 3.16054 2.74437e-29)
(10.2491 3.23955 -8.81342e-31)
(10.3901 3.29309 -2.48438e-29)
(10.5865 3.33347 -8.09968e-28)
(10.8462 3.56404 -2.01358e-31)
(11.1943 3.73841 3.89348e-28)
(11.5663 3.43692 -8.39821e-28)
(11.9063 3.28826 0)
(12.2926 3.03543 -2.70869e-30)
(12.7794 2.53706 -6.14064e-31)
(13.2963 1.70399 0)
(13.354 0.574723 1.59184e-29)
(12.8589 -0.21387 -6.40732e-28)
(12.1861 -0.549847 7.79089e-29)
(11.6282 -0.719805 8.65635e-29)
(11.209 -0.806283 7.98603e-31)
(10.7626 -0.856537 -1.19972e-33)
(10.4001 -0.916223 1.54389e-28)
(10.029 -0.885774 -1.41791e-29)
(9.60355 -0.819903 3.65987e-30)
(9.18525 -0.634323 4.03659e-28)
(8.84306 -0.287393 1.90112e-30)
(8.70443 0.039576 1.37733e-30)
(8.6848 0.312575 4.09393e-28)
(8.61333 0.530642 -1.10536e-31)
(8.62879 0.681578 -1.30131e-33)
(8.64594 0.864237 7.61316e-32)
(8.6562 0.968489 -8.33859e-32)
(8.70797 1.07117 -4.21339e-28)
(8.74512 1.15119 -7.15885e-35)
(8.77926 1.2215 9.99544e-32)
(8.81618 1.27459 -6.9398e-28)
(8.85429 1.30697 -2.0464e-31)
(8.91364 1.38427 -2.90901e-28)
(8.90065 1.43063 -4.20699e-33)
(8.92363 1.47414 3.93312e-28)
(8.9733 1.52589 0)
(8.96462 1.59328 2.33251e-28)
(9.00602 1.64066 0)
(9.04155 1.75104 -2.04396e-28)
(9.10886 1.81118 1.95193e-28)
(9.32481 1.96697 2.63805e-31)
(9.53449 1.87361 2.33183e-28)
(9.65276 1.85295 1.4594e-32)
(9.75223 1.79126 -3.87934e-28)
(9.18468 2.90558 0)
(9.27219 2.91909 0)
(9.33018 2.94484 0)
(9.38835 2.96149 5.49021e-30)
(9.49175 2.97951 -5.90241e-31)
(9.56343 3.00864 -6.75809e-35)
(9.62045 3.02353 -1.22624e-30)
(9.74181 3.04362 -5.63369e-29)
(9.81971 3.07699 -3.86016e-29)
(9.88674 3.0975 1.11267e-30)
(10.0193 3.1209 1.53573e-30)
(10.117 3.16137 6.64761e-31)
(10.2016 3.18711 1.65107e-31)
(10.3586 3.22504 -6.24288e-29)
(10.491 3.29258 9.13401e-31)
(10.6368 3.34266 3.84184e-29)
(10.8552 3.38531 -5.86827e-28)
(11.0872 3.6008 -5.46395e-28)
(11.4342 3.7586 8.84476e-34)
(11.8175 3.46322 -4.0567e-30)
(12.1267 3.29186 6.19982e-28)
(12.5193 3.02426 -8.07968e-28)
(12.9958 2.51118 8.08298e-31)
(13.4336 1.6685 -4.49401e-30)
(13.4714 0.644636 1.5857e-29)
(13.0376 -0.0888291 0)
(12.3723 -0.46835 1.58613e-28)
(11.8671 -0.623511 0)
(11.434 -0.724757 0)
(10.9792 -0.791396 -4.23707e-29)
(10.664 -0.834922 7.71182e-33)
(10.256 -0.820127 2.33999e-31)
(9.8329 -0.746296 3.38161e-30)
(9.45789 -0.563483 4.65126e-28)
(9.11958 -0.281027 -2.65873e-35)
(8.97762 0.052647 5.96037e-35)
(8.95293 0.305527 2.31707e-32)
(8.88899 0.556924 -5.54464e-28)
(8.91495 0.699128 -3.81053e-28)
(8.90062 0.842399 1.43729e-31)
(8.90778 0.952727 1.43603e-31)
(8.96336 1.05871 -3.33181e-28)
(8.97289 1.11405 -1.22837e-31)
(9.05273 1.20784 -3.39231e-28)
(9.0659 1.25144 8.86749e-32)
(9.09693 1.2865 0)
(9.16983 1.36426 0)
(9.1432 1.3993 4.27623e-33)
(9.19785 1.49187 2.23116e-28)
(9.22942 1.53665 1.96934e-28)
(9.23851 1.58043 2.27879e-28)
(9.25778 1.62015 1.6605e-28)
(9.25027 1.72376 2.69692e-33)
(9.34438 1.78678 0)
(9.52438 1.91151 -3.20206e-28)
(9.73142 1.83271 1.00709e-31)
(9.8428 1.82999 -1.24674e-33)
(9.93862 1.77126 -1.99036e-28)
(9.24166 2.91737 0)
(9.31803 2.92826 0)
(9.40182 2.9607 -2.35314e-29)
(9.45259 2.97417 6.76869e-30)
(9.53725 2.98691 0)
(9.63324 3.0226 0)
(9.69106 3.03659 -3.8311e-30)
(9.78656 3.04903 -5.91825e-29)
(9.88804 3.08874 -3.31406e-29)
(9.96167 3.10937 1.09945e-30)
(10.0662 3.12392 -7.89379e-31)
(10.1871 3.17044 -1.32199e-30)
(10.279 3.19635 -1.50755e-30)
(10.4084 3.2242 -8.10794e-29)
(10.5662 3.29514 1.56658e-29)
(10.7142 3.34094 4.16726e-29)
(10.9096 3.37465 -1.7937e-28)
(11.1681 3.58739 -4.58019e-28)
(11.5055 3.73246 0)
(11.8631 3.42549 0)
(12.1953 3.24901 6.24696e-28)
(12.5619 2.96012 -7.31247e-32)
(13.0133 2.43162 0)
(13.4208 1.60184 -4.33857e-30)
(13.4125 0.659632 -4.75997e-30)
(13.0087 -0.0337754 0)
(12.4388 -0.381033 -2.20084e-28)
(11.8953 -0.584988 0)
(11.4844 -0.697901 6.54856e-31)
(11.0573 -0.767842 4.20785e-36)
(10.7101 -0.821856 -8.19992e-29)
(10.3427 -0.78741 -1.52174e-30)
(9.93047 -0.716825 -9.39013e-36)
(9.56564 -0.539627 2.05603e-30)
(9.2604 -0.273308 -2.35062e-28)
(9.08875 0.0219532 -4.58452e-28)
(9.06812 0.284887 -3.84823e-28)
(9.04299 0.467717 -2.39723e-28)
(9.02006 0.655556 -1.85014e-31)
(9.00118 0.790687 0)
(8.99108 0.885225 0)
(9.04349 0.993723 0)
(9.08878 1.05106 -8.84867e-29)
(9.13857 1.14016 2.64465e-31)
(9.17071 1.18347 1.23377e-28)
(9.1856 1.24998 -1.7834e-28)
(9.25312 1.34234 -2.59899e-28)
(9.27098 1.38685 -3.87666e-33)
(9.28898 1.43489 2.5076e-28)
(9.30193 1.47711 1.34993e-28)
(9.30248 1.53416 -2.99351e-31)
(9.32285 1.57318 1.04798e-33)
(9.34194 1.70089 1.8263e-28)
(9.41842 1.74595 5.77756e-32)
(9.60638 1.84953 -1.14189e-33)
(9.80121 1.79605 -1.39304e-31)
(9.90425 1.7896 -1.71467e-28)
(9.9863 1.73475 -1.81231e-28)
(9.46356 2.97686 -7.14553e-31)
(9.55093 2.99076 4.16277e-29)
(9.60822 3.01609 -2.27157e-29)
(9.66998 3.03075 0)
(9.77332 3.04853 -5.90513e-31)
(9.84231 3.07684 -9.31104e-31)
(9.90304 3.08986 -9.72488e-31)
(10.0235 3.10913 -6.08477e-29)
(10.0997 3.14139 -2.92115e-29)
(10.1717 3.15979 1.08901e-30)
(10.3053 3.18203 7.77251e-31)
(10.4014 3.22052 -3.78202e-29)
(10.4927 3.24393 -1.14073e-30)
(10.6522 3.27829 -1.02553e-28)
(10.784 3.33753 1.05239e-30)
(10.9344 3.3788 0)
(11.1538 3.41485 0)
(11.386 3.61175 -7.37923e-28)
(11.7183 3.74015 0)
(12.0855 3.43768 -3.54668e-30)
(12.3884 3.24016 -3.99977e-30)
(12.7571 2.93727 6.35332e-32)
(13.1995 2.3983 -9.05832e-28)
(13.5334 1.57933 -4.1221e-30)
(13.5082 0.724171 4.30977e-30)
(13.161 0.077706 -2.70643e-30)
(12.6003 -0.337396 2.32589e-29)
(12.111 -0.485668 6.98311e-31)
(11.7067 -0.614809 6.57805e-29)
(11.2718 -0.698138 -1.36331e-29)
(10.9667 -0.748057 0)
(10.5816 -0.731691 0)
(10.2065 -0.660103 2.75056e-30)
(9.89363 -0.518726 -2.58499e-28)
(9.54725 -0.244342 -2.72463e-28)
(9.37276 0.0137603 -3.10849e-28)
(9.29095 0.287939 9.5567e-32)
(9.2473 0.441989 0)
(9.29464 0.674458 -4.43656e-28)
(9.24797 0.801192 -2.40456e-31)
(9.23158 0.898965 0)
(9.27934 1.00317 1.94642e-31)
(9.29554 1.04455 -3.39468e-28)
(9.39074 1.16362 3.47013e-28)
(9.40953 1.2092 -1.90454e-28)
(9.41349 1.2584 -2.32575e-28)
(9.48298 1.32104 -2.46504e-28)
(9.45678 1.356 3.03181e-31)
(9.50663 1.42874 2.06265e-28)
(9.50053 1.4615 -7.35481e-29)
(9.5132 1.53794 -2.11697e-28)
(9.55532 1.58877 -2.12727e-28)
(9.56374 1.66432 -5.28737e-32)
(9.65769 1.70871 2.15549e-28)
(9.80051 1.8091 1.01626e-28)
(10.0071 1.76833 2.04798e-31)
(10.0948 1.759 1.03326e-32)
(10.1614 1.72215 -1.98456e-28)
(9.51617 2.98661 7.07825e-35)
(9.5927 2.99815 4.06661e-29)
(9.67137 3.02886 -1.68933e-29)
(9.72947 3.04099 8.14577e-35)
(9.8142 3.05394 -6.08411e-31)
(9.90416 3.08781 0)
(9.9683 3.10017 0)
(10.0639 3.11242 -1.19681e-28)
(10.1609 3.14992 -2.33501e-29)
(10.2408 3.16835 -1.07263e-30)
(10.3475 3.18255 -3.4793e-29)
(10.4642 3.22585 -2.75497e-29)
(10.5638 3.24902 -3.95286e-30)
(10.6967 3.2741 -2.31253e-28)
(10.8502 3.33519 -2.13177e-29)
(11.0053 3.37214 -2.5279e-34)
(11.2022 3.399 -3.35562e-28)
(11.4535 3.5905 -2.78925e-28)
(11.7809 3.70725 -1.41374e-29)
(12.1246 3.39327 7.37735e-28)
(12.4426 3.19008 6.21616e-28)
(12.7896 2.86886 -7.55051e-28)
(13.2064 2.31826 -8.36559e-28)
(13.5073 1.52927 -3.92658e-29)
(13.4444 0.740066 -1.88899e-29)
(13.1172 0.134157 4.2185e-30)
(12.6362 -0.30367 2.51282e-28)
(12.1382 -0.444629 1.12428e-30)
(11.7768 -0.585018 6.57996e-29)
(11.3926 -0.681605 -1.37039e-28)
(11.0233 -0.726119 -1.51688e-29)
(10.6547 -0.729024 -2.65592e-30)
(10.2576 -0.63773 -5.38988e-30)
(9.92099 -0.513813 -1.38961e-28)
(9.64306 -0.231798 -1.6885e-30)
(9.46913 -0.00931405 0)
(9.39953 0.265005 4.60627e-28)
(9.36955 0.456956 -2.94708e-28)
(9.39412 0.592691 -4.13923e-28)
(9.36105 0.790721 4.65855e-28)
(9.31902 0.884176 0)
(9.35628 0.985768 0)
(9.39407 1.03637 -2.42509e-28)
(9.46023 1.09881 -7.96814e-31)
(9.49701 1.14791 -1.31055e-28)
(9.46869 1.19611 4.41497e-31)
(9.52012 1.26992 3.96055e-31)
(9.52383 1.3164 2.27152e-29)
(9.54817 1.3943 7.53994e-32)
(9.58033 1.45116 -1.60887e-28)
(9.59884 1.48772 -1.63846e-28)
(9.63704 1.5413 2.03539e-28)
(9.67336 1.61386 0)
(9.73909 1.64495 1.25321e-28)
(9.90081 1.76211 2.70154e-31)
(10.0841 1.71228 0)
(10.1555 1.73214 1.36847e-32)
(10.2335 1.69246 2.20266e-28)
(9.71465 3.03708 -1.53289e-34)
(9.80311 3.05256 9.76251e-31)
(9.85731 3.07624 -6.013e-29)
(9.92218 3.08801 1.52651e-30)
(10.026 3.10667 1.15006e-30)
(10.092 3.13382 -3.145e-29)
(10.1554 3.14372 -1.2636e-30)
(10.2771 3.16352 -4.07058e-29)
(10.3492 3.19353 1.04705e-30)
(10.4252 3.20834 5.648e-30)
(10.5621 3.23071 -3.41338e-29)
(10.6546 3.26622 -1.4308e-30)
(10.7511 3.28524 3.66221e-30)
(10.9149 3.31714 -1.06213e-28)
(11.0431 3.36683 1.81986e-30)
(11.1975 3.39749 2.56268e-34)
(11.4169 3.42608 -1.57614e-28)
(11.6439 3.60102 -5.90845e-34)
(11.9624 3.70005 1.32188e-29)
(12.3146 3.39174 7.13786e-28)
(12.605 3.16874 7.99566e-32)
(12.9526 2.83543 0)
(13.3552 2.27861 3.12583e-30)
(13.5898 1.51849 1.88825e-31)
(13.528 0.799611 -2.51384e-29)
(13.2319 0.229105 -2.97695e-30)
(12.7537 -0.18612 2.05387e-28)
(12.3271 -0.348072 -1.67193e-30)
(11.9661 -0.515345 -5.54004e-31)
(11.5761 -0.623159 -8.21692e-29)
(11.243 -0.644598 -1.82823e-28)
(10.8597 -0.652684 6.91036e-29)
(10.4861 -0.570045 0)
(10.2248 -0.429424 -3.22154e-28)
(9.9367 -0.209631 0)
(9.74489 0.0186272 0)
(9.6475 0.250747 3.63621e-28)
(9.55847 0.446899 8.68023e-33)
(9.62112 0.580629 -3.01673e-28)
(9.64137 0.766313 3.64094e-28)
(9.62118 0.844561 -1.31558e-30)
(9.63906 0.932182 -4.36948e-31)
(9.59911 0.96133 4.4591e-29)
(9.65696 1.07361 6.95371e-35)
(9.69326 1.12729 -1.21123e-30)
(9.67206 1.17971 3.90019e-31)
(9.71507 1.27124 3.1431e-31)
(9.7034 1.32794 0)
(9.76748 1.38642 2.90868e-31)
(9.79759 1.43219 -1.08919e-31)
(9.82811 1.45815 0)
(9.86642 1.51124 2.871e-28)
(9.88515 1.59574 -1.27761e-28)
(9.96941 1.6261 -1.92145e-28)
(10.0795 1.7153 3.67357e-31)
(10.2369 1.67636 3.90055e-31)
(10.3085 1.70571 8.92586e-32)
(10.3975 1.66685 4.04455e-28)
(9.75356 3.03933 1.38197e-30)
(9.82899 3.05212 3.74468e-29)
(9.90489 3.08238 -3.0785e-29)
(9.96808 3.09066 -1.55051e-30)
(10.0515 3.10411 -1.17401e-30)
(10.1377 3.13774 -3.46173e-29)
(10.2069 3.14626 1.33811e-31)
(10.3009 3.15824 7.24206e-29)
(10.3943 3.19466 0)
(10.4805 3.20874 -1.51127e-31)
(10.5874 3.22204 -5.7805e-29)
(10.7007 3.26341 4.01092e-29)
(10.8078 3.28109 -5.21578e-29)
(10.9417 3.3026 0)
(11.0915 3.3552 1.84538e-30)
(11.2523 3.38022 3.0887e-30)
(11.4477 3.39803 1.79982e-28)
(11.6907 3.5667 4.61838e-34)
(12.0013 3.64899 -6.1217e-30)
(12.3285 3.33162 -6.45667e-28)
(12.6332 3.10625 -5.7085e-28)
(12.9549 2.7553 -3.25808e-30)
(13.3192 2.191 6.56344e-28)
(13.5408 1.48234 -8.53602e-29)