/*--------------------------------*- C++ -*----------------------------------*\
| =========                 |                                                 |
| \\      /  F ield         | OpenFOAM: The Open Source CFD Toolbox           |
|  \\    /   O peration     | Version:  v2012                                 |
|   \\  /    A nd           | Website:  www.openfoam.com                      |
|    \\/     M anipulation  |                                                 |
\*---------------------------------------------------------------------------*/
FoamFile
{
    version     2.0;
    format      ascii;
    class       volVectorField;
    location    "1e-06";
    object      UMean;
}
// * * * * * * * * * * * * * * * * * * * * * * * * * * * * * * * * * * * * * //

dimensions      [0 1 -1 0 0 0 0];


internalField   nonuniform List<vector> 
10295
(
(5.71409 1.85903 5.91626e-29)
(5.70245 1.85321 -4.55774e-28)
(5.86465 1.90369 7.04437e-28)
(5.89874 1.91955 -4.4248e-28)
(5.88221 1.91433 -5.61341e-29)
(6.05851 1.9683 5.23196e-28)
(6.1085 1.98928 -3.74408e-28)
(6.10851 1.98721 -3.82421e-28)
(6.2829 2.04039 -7.33572e-29)
(6.34044 2.06081 -7.83204e-33)
(6.33882 2.06006 7.96901e-29)
(6.5208 2.12149 2.54164e-29)
(6.59548 2.1508 0)
(6.60402 2.15346 0)
(6.74815 2.19863 1.67772e-28)
(6.74662 2.20361 0)
(6.65272 2.17469 8.21557e-29)
(7.00477 2.56203 1.69024e-32)
(7.87692 3.09632 -1.40512e-28)
(8.43247 2.83791 -5.05973e-28)
(8.65426 2.82352 0)
(9.00035 2.78848 1.87183e-28)
(9.56834 2.66703 9.58156e-33)
(10.4284 2.37566 1.00739e-26)
(11.3048 0.500035 -1.28957e-33)
(10.424 -0.629101 -2.50673e-28)
(8.70863 -0.813215 2.27901e-26)
(8.12886 -0.257344 -1.65648e-28)
(7.62118 -0.306182 0)
(7.05936 0.118374 1.75086e-30)
(6.66909 0.0754331 -1.12977e-28)
(6.30735 0.0402188 -1.55785e-33)
(5.76211 0.37011 1.29409e-28)
(5.25758 0.493557 2.3034e-26)
(4.65889 0.863776 8.72389e-31)
(4.97851 1.0711 -2.37283e-26)
(5.05348 1.12893 -4.30974e-31)
(5.03585 1.1608 -1.03884e-26)
(5.01625 1.16311 0)
(5.14014 1.19903 1.00062e-26)
(5.10714 1.20132 -9.72966e-27)
(5.14059 1.21014 -9.63206e-34)
(5.08577 1.20239 -9.57441e-27)
(5.14299 1.2084 -9.83011e-27)
(5.2692 1.2354 -1.01064e-26)
(5.2421 1.23382 1.99016e-26)
(5.26502 1.24239 9.96737e-27)
(4.94207 1.16863 9.32037e-27)
(5.24239 1.23523 -1.9987e-26)
(5.37334 1.25922 -1.7642e-31)
(5.24663 1.25432 0)
(5.29177 1.27455 -1.0396e-26)
(5.31704 1.4542 0)
(5.50201 1.5241 0)
(5.76774 1.6867 0)
(6.31934 1.59714 -1.37322e-26)
(6.46404 1.58769 1.38569e-26)
(6.35473 1.47337 -8.51513e-31)
(6.16746 1.99748 0)
(6.26807 2.02593 -9.56445e-28)
(6.34323 2.04779 6.4493e-33)
(6.34145 2.05409 -9.40087e-28)
(6.46526 2.09296 -1.06113e-27)
(6.55151 2.1172 1.01994e-27)
(6.5457 2.12208 -6.87585e-28)
(6.68707 2.1641 -1.67657e-27)
(6.78805 2.19354 0)
(6.77951 2.19855 0)
(6.91821 2.24221 0)
(7.03396 2.28502 4.57284e-29)
(7.04008 2.29386 8.64227e-29)
(7.18748 2.34151 8.85825e-29)
(7.25176 2.36549 -4.10159e-28)
(7.17215 2.34792 -6.18282e-28)
(7.1915 2.35175 -6.61502e-28)
(7.36095 2.76622 -1.27998e-26)
(8.09471 3.27995 1.26661e-28)
(8.80532 2.96408 1.54112e-28)
(9.08383 2.93637 1.63838e-28)
(9.52182 2.86474 3.80179e-27)
(10.184 2.66062 -2.12495e-28)
(11.3101 2.25189 2.01734e-26)
(11.7359 -0.0973922 1.04434e-27)
(10.8497 -1.44702 0)
(9.48474 -1.67526 1.95718e-28)
(8.56107 -0.968708 1.59313e-28)
(8.04493 -1.13202 0)
(7.38869 -0.85924 3.39387e-26)
(7.10829 -0.574724 -1.05166e-28)
(6.6705 -0.709578 -8.39743e-29)
(6.13126 -0.279193 0)
(5.75721 -0.0502328 3.5644e-26)
(5.53898 0.59798 1.42325e-30)
(5.48481 0.844477 -4.14803e-26)
(5.56862 1.01809 1.29793e-33)
(5.44538 1.07579 -1.66702e-26)
(5.60487 1.16227 6.15567e-32)
(5.62914 1.21789 1.40451e-26)
(5.58623 1.23321 0)
(5.68543 1.26548 4.35133e-32)
(5.54496 1.24949 -1.20782e-33)
(5.70043 1.27639 -1.28011e-26)
(5.76941 1.29031 1.29342e-26)
(5.71431 1.28295 -6.83231e-32)
(5.82703 1.3142 1.2691e-26)
(5.65824 1.29454 -5.44978e-32)
(5.81686 1.31757 -1.2625e-26)
(5.88417 1.32502 -6.88122e-32)
(5.73123 1.31185 -2.62372e-32)
(5.83686 1.35055 -1.29738e-26)
(5.7015 1.48498 -1.39419e-26)
(6.04534 1.59378 1.17666e-33)
(6.66574 1.86946 1.72464e-26)
(6.87483 1.63893 6.47347e-31)
(7.01312 1.6174 1.72092e-26)
(6.86082 1.50317 0)
(6.80038 2.1982 0)
(6.89348 2.22429 0)
(6.95669 2.24522 -1.10062e-27)
(6.98198 2.25726 -9.51731e-28)
(7.09718 2.29163 1.03624e-27)
(7.17518 2.31709 -6.64585e-29)
(7.19302 2.32629 -6.94381e-29)
(7.33261 2.36493 -1.21773e-27)
(7.42027 2.39515 0)
(7.43689 2.40429 0)
(7.57384 2.44452 0)
(7.67732 2.48745 2.84037e-28)
(7.70909 2.5008 -8.66628e-29)
(7.85337 2.5481 -1.37229e-28)
(7.89963 2.577 -6.18094e-28)
(7.84002 2.56443 -8.12047e-28)
(7.86207 2.57272 -3.97678e-28)
(8.03991 2.93898 -1.92843e-26)
(8.77565 3.37887 -1.2795e-28)
(9.43806 3.13474 -1.5316e-28)
(9.69584 3.0852 -1.62976e-28)
(10.1852 3.01218 -1.72841e-28)
(10.8286 2.78916 -2.10987e-28)
(11.7761 2.28094 2.19209e-26)
(12.2827 0.269226 6.35092e-28)
(11.4451 -0.958585 0)
(9.9325 -1.28191 0)
(9.24231 -0.599647 0)
(8.68965 -0.767393 0)
(8.04747 -0.715086 3.19388e-26)
(7.77019 -0.242513 0)
(7.28493 -0.322507 3.31921e-26)
(6.79284 -0.0467779 0)
(6.44143 0.309191 0)
(6.22804 0.768367 -9.34655e-31)
(6.17389 1.07304 -1.99663e-26)
(6.25022 1.36398 1.66115e-30)
(6.14491 1.44526 0)
(6.31396 1.57341 -8.71477e-32)
(6.29722 1.63897 2.24684e-26)
(6.3017 1.68712 1.73086e-32)
(6.3936 1.75038 0)
(6.22463 1.7492 -7.27227e-27)
(6.42683 1.81396 6.97259e-27)
(6.45468 1.83287 -3.13405e-32)
(6.44135 1.84408 -6.05536e-27)
(6.54662 1.88474 5.74644e-27)
(6.35937 1.85102 -1.02725e-26)
(6.55651 1.91305 5.14859e-27)
(6.57701 1.9208 5.15715e-27)
(6.47832 1.92377 0)
(6.57195 1.96509 -4.88099e-27)
(6.4124 2.14016 -1.00416e-26)
(6.7584 2.24895 0)
(7.24916 2.50823 -3.15596e-32)
(7.60126 2.32105 6.72897e-27)
(7.70489 2.26624 7.42345e-27)
(7.63279 2.14006 2.91509e-32)
(6.85419 2.21087 -6.3267e-33)
(6.93356 2.2318 1.40365e-27)
(7.04053 2.2676 -9.78527e-30)
(7.04529 2.27228 0)
(7.13829 2.29848 1.40077e-27)
(7.25042 2.33598 6.64981e-29)
(7.26733 2.34399 6.94844e-29)
(7.37414 2.3708 1.47754e-27)
(7.49398 2.41275 0)
(7.52008 2.42444 -7.23779e-28)
(7.61717 2.45035 -7.91734e-29)
(7.755 2.50487 -1.64097e-28)
(7.79477 2.52087 -4.96897e-28)
(7.90078 2.55697 -2.84975e-28)
(7.99573 2.60866 6.40285e-28)
(7.93641 2.59816 -9.07845e-28)
(7.94021 2.59907 -3.24815e-28)
(8.19651 2.96586 -1.72634e-26)
(8.86909 3.3453 0)
(9.47348 3.12388 0)
(9.84571 3.0837 2.84628e-27)
(10.2466 2.96572 -6.8511e-27)
(10.8653 2.70219 0)
(11.9067 2.16194 2.58406e-26)
(12.2208 0.149553 -2.75814e-28)
(11.3948 -1.01291 -4.77184e-28)
(10.1547 -1.32783 -3.44692e-26)
(9.29979 -0.802648 -2.78769e-33)
(8.7467 -0.889606 1.3986e-28)
(8.15475 -0.750162 3.52562e-26)
(7.79485 -0.291523 0)
(7.38718 -0.402971 3.53995e-26)
(6.86559 -0.170445 0)
(6.52473 0.288068 -3.20426e-26)
(6.29523 0.710879 0)
(6.25975 1.01485 -2.25605e-30)
(6.35225 1.27557 1.93689e-26)
(6.31445 1.45063 8.69545e-32)
(6.38615 1.5613 0)
(6.47235 1.64475 1.46738e-26)
(6.39382 1.68024 0)
(6.47758 1.75755 0)
(6.48827 1.81319 -9.8229e-27)
(6.50734 1.85324 1.73523e-26)
(6.61057 1.90042 -8.12537e-27)
(6.55091 1.90762 6.54842e-33)
(6.63726 1.95571 6.59312e-27)
(6.62669 1.9649 -6.16127e-27)
(6.6417 2.00858 5.16163e-27)
(6.75269 2.04219 5.33023e-27)
(6.58926 2.04005 -4.33612e-27)
(6.67673 2.08989 2.47444e-32)
(6.64658 2.2921 -4.44527e-27)
(6.85836 2.39611 -2.79749e-31)
(7.44745 2.66034 -5.20659e-27)
(7.68138 2.42302 5.73806e-27)
(7.82495 2.36203 1.02473e-30)
(7.75633 2.22904 4.19437e-34)
(7.36412 2.37159 0)
(7.44794 2.39135 1.55628e-27)
(7.53802 2.42315 2.89379e-27)
(7.55728 2.43268 6.35142e-29)
(7.65792 2.45902 1.62424e-27)
(7.75799 2.49376 -6.64541e-29)
(7.78021 2.50329 1.43132e-27)
(7.90033 2.5322 3.58813e-27)
(8.00647 2.57103 -7.28494e-29)
(8.03563 2.58418 -1.02597e-27)
(8.15161 2.61369 1.17969e-27)
(8.2755 2.66434 -8.20288e-29)
(8.31744 2.68159 -7.43072e-28)
(8.44453 2.72447 -8.91604e-29)
(8.52871 2.77961 0)
(8.4885 2.77837 -1.0057e-27)
(8.51688 2.78189 9.55534e-29)
(8.76273 3.12336 -1.50376e-26)
(9.38606 3.45216 -1.27318e-28)
(9.98397 3.25569 1.49091e-27)
(10.3496 3.1942 7.83552e-27)
(10.7748 3.06692 0)
(11.3883 2.76238 0)
(12.3151 2.13678 -2.96778e-26)
(12.6318 0.249347 4.56578e-28)
(11.8408 -0.886847 0)
(10.7026 -1.20835 -3.44923e-26)
(9.85693 -0.995805 0)
(9.26812 -0.778806 0)
(8.69801 -0.721121 3.60854e-26)
(8.34623 -0.493328 -1.02792e-28)
(7.8787 -0.327973 0)
(7.41244 -0.0997185 3.59734e-26)
(7.09184 0.193842 -3.55262e-26)
(6.83433 0.769285 0)
(6.76625 1.0496 -2.33639e-26)
(6.83622 1.24684 2.10686e-26)
(6.80423 1.47249 0)
(6.89637 1.62203 -2.05238e-32)
(6.95011 1.69947 1.71609e-26)
(6.90027 1.75149 -1.54401e-33)
(6.98277 1.81846 -3.26272e-31)
(6.97572 1.85973 0)
(7.01451 1.90885 1.23662e-26)
(7.09648 1.95531 1.02171e-33)
(7.05631 1.9705 -4.60519e-33)
(7.14365 2.01706 1.10983e-33)
(7.17325 2.03296 -3.88312e-32)
(7.15603 2.08659 8.13979e-27)
(7.23898 2.11018 0)
(7.11525 2.13452 -1.39816e-26)
(7.20252 2.18159 6.88663e-27)
(7.16949 2.36893 0)
(7.37291 2.45929 0)
(7.85583 2.67999 -7.06232e-27)
(8.13643 2.45775 0)
(8.26921 2.40433 1.179e-30)
(8.23594 2.28509 3.79542e-32)
(7.79813 2.50507 -6.21128e-33)
(7.88636 2.52605 1.19054e-28)
(7.95276 2.55154 7.14816e-29)
(7.99197 2.56587 6.33492e-29)
(8.09962 2.59337 1.90372e-27)
(8.18105 2.62398 0)
(8.21506 2.63546 1.61727e-27)
(8.34643 2.66629 2.01951e-27)
(8.43348 2.70162 7.26801e-29)
(8.47149 2.71605 7.64865e-29)
(8.60472 2.74925 3.17951e-27)
(8.70884 2.79544 0)
(8.76056 2.81435 -8.64647e-29)
(8.90801 2.86386 -8.91699e-29)
(8.98252 2.92416 -7.5562e-28)
(8.97561 2.93396 9.21385e-29)
(9.02992 2.9446 6.24468e-28)
(9.26383 3.25678 -6.2923e-27)
(9.82636 3.54305 1.26227e-28)
(10.3937 3.34457 2.41438e-27)
(10.7634 3.27516 4.82709e-27)
(11.2169 3.13488 -3.685e-28)
(11.821 2.7969 -1.84721e-26)
(12.6314 2.08888 -3.27329e-26)
(12.9541 0.308177 1.51325e-27)
(12.2191 -0.780588 -2.81748e-26)
(11.023 -1.12581 -1.88745e-28)
(10.303 -1.04078 1.6191e-28)
(9.72466 -0.723757 1.37427e-28)
(9.1195 -0.669091 7.37413e-26)
(8.79692 -0.632913 0)
(8.33342 -0.25533 0)
(7.88225 -0.0604458 3.68406e-26)
(7.57688 0.11983 -3.85103e-26)
(7.28722 0.802223 0)
(7.28068 1.06771 -4.95629e-26)
(7.32939 1.2763 0)
(7.27041 1.42445 0)
(7.40233 1.68009 -2.07223e-26)
(7.40068 1.74116 1.92045e-26)
(7.40453 1.8002 -2.71238e-31)
(7.4834 1.86736 3.10226e-31)
(7.40799 1.90196 4.24087e-32)
(7.52983 1.95906 -4.73232e-32)
(7.55973 1.99667 -6.41878e-32)
(7.5592 2.01701 8.8571e-34)
(7.64751 2.06468 -8.1762e-33)
(7.56091 2.06073 0)
(7.67627 2.13946 2.18766e-26)
(7.70421 2.15598 -1.36168e-31)
(7.64806 2.19045 -9.85173e-27)
(7.72946 2.23505 0)
(7.65136 2.37021 0)
(7.88407 2.45173 0)
(8.2647 2.64433 -8.84953e-27)
(8.58127 2.46011 -8.57773e-34)
(8.68503 2.41345 -9.30807e-27)
(8.69421 2.30492 0)
(7.84858 2.51671 0)
(7.92253 2.53272 0)
(8.02869 2.57073 -1.7574e-27)
(8.0516 2.57942 0)
(8.13654 2.59918 6.45789e-29)
(8.24986 2.63987 6.62143e-29)
(8.28465 2.65093 1.86682e-27)
(8.3838 2.67108 2.32381e-27)
(8.50103 2.71602 0)
(8.54849 2.73255 -1.55521e-27)
(8.64383 2.75306 1.90024e-27)
(8.77976 2.80894 -1.60557e-27)
(8.84055 2.83027 -1.44439e-27)
(8.95392 2.86909 -1.11775e-27)
(9.08609 2.95265 -7.0699e-28)
(9.10339 2.97244 -1.01468e-27)
(9.14586 2.98025 3.04402e-28)
(9.44933 3.27796 -1.02712e-28)
(9.94719 3.5355 -2.56212e-28)
(10.4309 3.30772 -3.43451e-27)
(10.8769 3.25704 6.14097e-27)
(11.2688 3.08129 1.8345e-28)
(11.8456 2.70942 -2.01561e-26)
(12.6807 1.97575 -2.42786e-28)
(12.8818 0.301555 1.26179e-27)
(12.1801 -0.732465 3.97062e-30)
(11.1492 -1.06685 -1.86762e-28)
(10.3426 -0.97578 -1.61035e-28)
(9.78369 -0.718337 -3.38411e-26)
(9.2414 -0.692724 3.62338e-26)
(8.85611 -0.551411 9.97648e-29)
(8.45665 -0.241039 -7.55635e-29)
(7.97831 -0.0949734 -5.24634e-29)
(7.7032 0.126637 -3.80301e-26)
(7.4756 0.634127 0)
(7.37363 1.02263 -2.55212e-26)
(7.41829 1.22448 -2.316e-26)
(7.40865 1.34914 2.19333e-26)
(7.47058 1.5609 -6.94755e-31)
(7.53239 1.73093 1.93415e-31)
(7.48541 1.7697 -4.92657e-31)
(7.55712 1.83019 -2.80618e-31)
(7.57119 1.88754 0)
(7.59334 1.91968 0)
(7.67787 1.97187 0)
(7.65106 1.98234 2.89384e-32)
(7.72332 2.02874 -1.39443e-26)
(7.71549 2.04645 0)
(7.74442 2.10264 -7.20254e-32)
(7.83179 2.13976 0)
(7.73635 2.1207 0)
(7.8012 2.16393 0)
(7.81303 2.31061 1.03327e-26)
(7.96266 2.38876 -2.71506e-30)
(8.3967 2.58737 9.933e-27)
(8.64682 2.40441 -1.00057e-26)
(8.7772 2.3347 -1.26938e-30)
(8.76963 2.22067 -1.19184e-30)
(8.20976 2.62652 1.16853e-28)
(8.2921 2.64275 5.94483e-29)
(8.37382 2.67446 6.07834e-29)
(8.40988 2.68726 6.31699e-33)
(8.50756 2.70846 -6.2632e-33)
(8.6018 2.74424 1.32423e-28)
(8.64029 2.75639 4.24517e-27)
(8.75701 2.77965 2.60182e-27)
(8.85612 2.82009 0)
(8.90312 2.83705 -1.46064e-29)
(9.02196 2.86219 -2.36956e-27)
(9.13917 2.91238 -3.57872e-27)
(9.20115 2.93452 -3.2497e-27)
(9.34114 2.97907 -1.44653e-27)
(9.47124 3.06486 -4.34722e-28)
(9.53347 3.10204 -6.62803e-28)
(9.65094 3.13127 4.66887e-28)
(9.91592 3.38848 2.7902e-27)
(10.3705 3.62605 7.18604e-28)
(10.8342 3.38539 -4.30776e-27)
(11.2072 3.30486 7.67357e-27)
(11.6288 3.12169 7.30871e-28)
(12.1996 2.72109 4.09861e-28)
(12.9474 1.93552 -3.87327e-26)
(13.1246 0.397028 -2.38943e-28)
(12.4783 -0.578595 2.7325e-26)
(11.5281 -0.932784 -3.52838e-26)
(10.7443 -0.895209 -3.2305e-28)
(10.1691 -0.624751 -6.87451e-26)
(9.59717 -0.629384 -3.58826e-26)
(9.27232 -0.520574 0)
(8.85317 -0.278971 -1.56228e-28)
(8.37422 -0.0151699 3.61738e-26)
(8.07857 0.203955 3.8189e-26)
(7.87128 0.5582 3.40305e-26)
(7.77223 1.07729 2.64929e-26)
(7.79243 1.26027 -2.35248e-26)
(7.7611 1.39319 2.27356e-26)
(7.83866 1.52323 -5.95006e-32)
(7.87104 1.7707 2.18394e-26)
(7.85433 1.83758 3.5884e-31)
(7.92869 1.8977 5.22501e-31)
(7.92442 1.93566 -1.83492e-26)
(7.96818 1.97746 0)
(8.02359 2.02747 -1.64875e-26)
(8.01671 2.04599 -1.0002e-31)
(8.09514 2.09436 -1.51695e-26)
(8.0742 2.10376 0)
(8.12043 2.11587 -1.33922e-26)
(8.16717 2.13594 0)
(8.10793 2.13572 -9.66136e-31)
(8.17748 2.17194 -3.41747e-30)
(8.1948 2.32761 1.14887e-26)
(8.35849 2.3992 0)
(8.73231 2.58344 1.09066e-26)
(8.95339 2.42908 -1.09102e-26)
(9.05679 2.30558 2.4961e-26)
(9.07644 2.19857 -4.17411e-30)
(8.25975 2.63877 -1.17086e-28)
(8.32405 2.64741 -2.51811e-27)
(8.44164 2.69007 0)
(8.46993 2.70131 -1.26761e-28)
(8.54032 2.71258 -1.2949e-28)
(8.66272 2.75627 0)
(8.71006 2.772 2.37498e-27)
(8.79128 2.78319 -3.1516e-27)
(8.91578 2.83025 -2.85388e-27)
(8.97935 2.85305 2.19203e-27)
(9.05793 2.86456 -2.64869e-27)
(9.2018 2.92109 -2.29675e-27)
(9.27995 2.94934 1.55979e-28)
(9.38039 2.97943 2.34768e-27)
(9.56145 3.0795 -9.97061e-30)
(9.6715 3.13287 -5.26097e-28)
(9.81548 3.16922 -1.03386e-27)
(10.1183 3.4228 1.02977e-27)
(10.488 3.62404 -3.41866e-29)
(10.881 3.35467 -2.9851e-28)
(11.3064 3.27876 0)
(11.676 3.06537 3.64698e-28)
(12.2141 2.62839 -2.42844e-26)
(12.962 1.82772 -4.04081e-26)
(13.0553 0.400535 4.90173e-28)
(12.4363 -0.531477 -2.76625e-26)
(11.5805 -0.884886 3.60981e-30)
(10.8116 -0.883773 0)
(10.2472 -0.613729 -3.46935e-26)
(9.69699 -0.612 -3.60199e-26)
(9.32207 -0.538528 0)
(8.96197 -0.430921 -4.05754e-26)
(8.4785 -0.011475 3.64247e-26)
(8.16447 0.198321 3.77561e-26)
(8.0234 0.536059 3.45116e-26)
(7.87483 1.04358 2.7248e-26)
(7.882 1.23127 -2.42202e-26)
(7.88527 1.36179 0)
(7.91842 1.4673 -2.20145e-26)
(8.0137 1.63514 2.18761e-26)
(7.94264 1.72235 0)
(7.99693 1.79761 0)
(8.04595 1.92929 -3.89744e-26)
(8.03283 1.958 0)
(8.12869 1.94385 -1.70607e-26)
(8.1059 1.95465 -1.64424e-26)
(8.16303 2.00072 1.57071e-26)
(8.18204 2.01895 0)
(8.17297 2.02858 -1.39667e-26)
(8.27515 2.0595 1.35659e-26)
(8.19662 2.10016 0)
(8.26042 2.13847 0)
(8.33203 2.28943 0)
(8.43545 2.3485 1.16415e-26)
(8.83727 2.52579 -1.92173e-33)
(9.01909 2.33213 -7.82991e-30)
(9.13546 2.26821 1.32767e-26)
(9.16456 2.17004 0)
(8.59265 2.74027 1.97121e-27)
(8.67276 2.75088 1.06968e-28)
(8.76019 2.78423 0)
(8.79757 2.79963 0)
(8.89019 2.81539 0)
(8.989 2.85109 -2.60078e-27)
(9.03304 2.86706 1.38687e-28)
(9.14118 2.88478 -3.11103e-27)
(9.2453 2.92457 -2.88231e-27)
(9.30081 2.94641 -2.40522e-27)
(9.41172 2.96589 1.58467e-28)
(9.535 3.01424 -2.53973e-27)
(9.60675 3.0421 1.91881e-28)
(9.74009 3.07904 1.99405e-28)
(9.90004 3.16749 -1.0642e-27)
(10.0314 3.22791 -3.87592e-28)
(10.2391 3.27876 -9.16397e-28)
(10.5099 3.52119 0)
(10.8535 3.70684 2.58959e-27)
(11.2392 3.42149 2.98183e-28)
(11.599 3.31116 6.4961e-28)
(12.0038 3.09347 1.27498e-32)
(12.5437 2.62891 -2.7346e-26)
(13.1625 1.7813 0)
(13.2714 0.472306 7.79614e-28)
(12.6975 -0.421776 4.24586e-30)
(11.8749 -0.777672 3.48757e-26)
(11.1943 -0.815635 -3.61392e-26)
(10.623 -0.651151 2.76415e-28)
(10.0251 -0.554145 3.65245e-26)
(9.66775 -0.476452 -1.93466e-28)
(9.27408 -0.420056 -8.27489e-26)
(8.83581 0.0408311 0)
(8.53928 0.221523 6.12542e-29)
(8.38471 0.539477 4.24676e-33)
(8.28257 0.883326 -1.8539e-29)
(8.24211 1.25318 -2.56146e-26)
(8.20487 1.36975 0)
(8.25062 1.49724 2.30775e-26)
(8.28972 1.55539 -3.93339e-30)
(8.2755 1.6482 5.78166e-30)
(8.34689 1.72995 2.4692e-30)
(8.38424 1.86533 -2.00422e-26)
(8.35685 1.89342 1.92817e-26)
(8.41809 1.88942 -9.22881e-31)
(8.43955 1.90258 -1.69794e-26)
(8.50457 1.95206 3.26155e-26)
(8.50005 1.97398 2.84987e-33)
(8.50526 2.04809 -1.51214e-26)
(8.58033 2.07736 1.45612e-26)
(8.54373 2.11337 0)
(8.60472 2.15106 0)
(8.66206 2.27928 -1.30471e-26)
(8.77654 2.34504 1.28007e-26)
(9.07375 2.44706 -9.20869e-30)
(9.26638 2.26582 1.16945e-29)
(9.37767 2.25208 8.36696e-30)
(9.4359 2.16093 0)
(8.89484 2.82846 1.29412e-28)
(8.98589 2.84262 2.78017e-27)
(9.03995 2.86641 0)
(9.09546 2.88542 0)
(9.20467 2.90598 0)
(9.27429 2.93351 -2.60195e-27)
(9.32618 2.94983 1.3834e-28)
(9.45668 2.974 -3.59267e-27)
(9.53282 3.00607 -1.45685e-28)
(9.59145 3.02701 -1.69634e-28)
(9.73234 3.05497 3.27209e-27)
(9.82607 3.09444 -2.85406e-27)
(9.90244 3.12145 -2.9163e-27)
(10.0669 3.16644 -3.79742e-28)
(10.1954 3.24125 -1.72051e-27)
(10.3371 3.29945 -2.5042e-27)
(10.5701 3.35573 -1.10943e-27)
(10.8025 3.58393 -1.05192e-27)
(11.1524 3.76198 -3.86896e-27)
(11.5518 3.47408 -6.92418e-27)
(11.8691 3.33524 0)
(12.295 3.10359 0)
(12.8241 2.618 -4.01015e-28)
(13.3376 1.73502 6.88199e-33)
(13.4535 0.531561 1.25359e-27)
(12.937 -0.31535 4.03032e-28)
(12.0927 -0.69647 3.56947e-28)
(11.5338 -0.75502 -3.22083e-28)
(10.9578 -0.703045 -2.76852e-28)
(10.3375 -0.501747 2.21863e-28)
(10.0203 -0.438894 1.89882e-28)
(9.62077 -0.378882 -4.15612e-26)
(9.2211 0.0155187 1.11957e-28)
(8.91653 0.26043 0)
(8.66622 0.563645 -3.30281e-29)
(8.6342 0.763823 -1.89449e-29)
(8.60646 1.25369 0)
(8.51996 1.38886 -2.85287e-30)
(8.61409 1.50842 4.67831e-26)
(8.59409 1.5831 -1.96249e-30)
(8.61554 1.66387 2.01769e-30)
(8.67593 1.73884 -1.16096e-30)
(8.6398 1.77228 1.47421e-30)
(8.71491 1.82713 1.94843e-26)
(8.72666 1.89294 -1.86734e-26)
(8.77911 1.92017 4.17481e-30)
(8.85347 1.97292 3.34446e-30)
(8.78392 1.98795 1.66005e-26)
(8.87757 2.05826 1.59531e-26)
(8.89702 2.08537 0)
(8.90154 2.12266 -1.23592e-30)
(8.95794 2.15566 1.68329e-30)
(8.96756 2.27467 -1.40416e-26)
(9.11046 2.26395 1.49852e-26)
(9.3025 2.33754 1.57099e-26)
(9.52614 2.25304 1.53919e-26)
(9.62203 2.22653 -1.43435e-26)
(9.70372 2.14366 -1.40483e-26)
(8.93823 2.83626 -2.27128e-27)
(9.01618 2.84752 -1.18658e-28)
(9.10455 2.881 -1.17755e-32)
(9.14699 2.89463 1.26318e-28)
(9.23538 2.90937 0)
(9.33505 2.9457 0)
(9.38561 2.96004 0)
(9.48665 2.97545 -3.80103e-27)
(9.59273 3.0165 0)
(9.65656 3.03681 3.33478e-27)
(9.76345 3.05415 3.88488e-27)
(9.88797 3.10271 -1.44105e-32)
(9.96953 3.12907 3.60729e-27)
(10.1006 3.16245 3.73992e-27)
(10.2631 3.24359 -1.89497e-28)
(10.4018 3.29587 -2.46556e-27)
(10.6067 3.34152 -6.50078e-27)
(10.8741 3.57229 2.01879e-28)
(11.2067 3.73435 -5.89494e-27)
(11.5818 3.43517 -7.91259e-27)
(11.9381 3.29502 0)
(12.3267 3.0355 -3.57158e-28)
(12.8287 2.52933 -3.96572e-28)
(13.3293 1.64984 0)
(13.3714 0.540841 3.36778e-28)
(12.8968 -0.25795 -2.80672e-26)
(12.1814 -0.63076 3.42729e-26)
(11.5595 -0.736784 3.62305e-26)
(11.016 -0.704196 -2.75049e-28)
(10.4283 -0.475707 2.60865e-30)
(10.0609 -0.465894 -3.85899e-26)
(9.74173 -0.378207 4.16643e-26)
(9.34366 -0.142841 1.18305e-28)
(9.01434 0.268368 3.72605e-26)
(8.79732 0.533989 7.03111e-29)
(8.71991 0.753473 4.52857e-29)
(8.71002 1.07245 2.96202e-26)
(8.64018 1.37205 -7.35901e-31)
(8.66854 1.46203 -9.90969e-32)
(8.68297 1.56537 2.56498e-30)
(8.67558 1.64119 -9.27379e-31)
(8.73734 1.71788 -2.13127e-26)
(8.76607 1.75789 -3.95187e-33)
(8.78142 1.80773 4.30334e-30)
(8.82692 1.86413 -3.84294e-26)
(8.85735 1.88107 -5.18483e-30)
(8.9187 1.9351 -1.72387e-26)
(8.9108 1.96492 -1.65224e-31)
(8.93705 2.01209 3.24744e-26)
(8.99074 2.04773 0)
(8.97991 2.10092 1.53369e-26)
(9.03429 2.13732 0)
(9.06375 2.17166 -1.59852e-26)
(9.13231 2.16398 1.66836e-26)
(9.36913 2.30444 1.45003e-29)
(9.57348 2.20522 1.54277e-26)
(9.68344 2.19524 -7.66681e-30)
(9.77016 2.1224 -2.91291e-26)
(9.19795 2.90888 0)
(9.2882 2.9234 0)
(9.34465 2.94824 0)
(9.40209 2.96452 2.91083e-27)
(9.50941 2.98411 -1.28969e-28)
(9.5798 3.01245 -1.21743e-32)
(9.63535 3.02663 -3.24259e-27)
(9.76189 3.04886 -3.97828e-27)
(9.83879 3.08162 3.79949e-27)
(9.90394 3.10094 1.53089e-28)
(10.0423 3.12657 3.15815e-28)
(10.1386 3.16632 1.64215e-28)
(10.2217 3.19118 2.0593e-29)
(10.3854 3.2321 -4.36425e-27)
(10.5169 3.29988 1.89868e-28)
(10.6623 3.34923 3.2505e-27)
(10.8918 3.39791 -6.95426e-27)
(11.1257 3.61225 4.23276e-27)
(11.4647 3.76174 4.01331e-32)
(11.8527 3.46562 -2.93305e-28)
(12.1709 3.30116 1.36109e-26)
(12.5716 3.0284 -2.06293e-26)
(13.062 2.5065 3.92659e-28)
(13.4754 1.61743 -4.33559e-28)
(13.51 0.618369 3.4856e-28)
(13.085 -0.12765 0)
(12.3774 -0.534026 3.4464e-26)
(11.8264 -0.633917 0)
(11.2818 -0.651432 0)
(10.6838 -0.402536 3.74899e-26)
(10.3519 -0.378946 2.49861e-30)
(9.99033 -0.309912 4.16112e-26)
(9.61313 -0.1572 1.15538e-28)
(9.32027 0.335779 3.73349e-26)
(9.07182 0.549847 -4.15928e-33)
(9.00461 0.787045 4.07318e-33)
(8.99553 0.980697 -1.39169e-29)
(8.92815 1.40481 -2.57062e-26)
(8.96553 1.50819 -2.38015e-26)
(8.94651 1.58284 2.49388e-30)
(8.94844 1.66243 4.40948e-31)
(9.01091 1.74005 -2.10763e-26)
(9.0018 1.76044 -2.44392e-30)
(9.07411 1.83348 -1.93275e-26)
(9.08886 1.8761 5.50527e-30)
(9.11911 1.89848 0)
(9.19286 1.95356 0)
(9.15944 1.97217 1.89743e-31)
(9.23013 2.05477 1.6759e-26)
(9.25723 2.08332 1.61703e-26)
(9.26531 2.04665 1.72247e-26)
(9.29038 2.06605 1.71411e-26)
(9.27497 2.09415 4.58249e-32)
(9.3924 2.15206 0)
(9.58276 2.26499 -3.24358e-26)
(9.78757 2.18433 1.20117e-29)
(9.88631 2.18495 -7.49666e-30)
(9.9574 2.05589 -1.61079e-26)
(9.24191 2.91669 0)
(9.31908 2.92793 0)
(9.40563 2.96101 3.08653e-27)
(9.45425 2.97347 3.31137e-27)
(9.54012 2.98697 0)
(9.6383 3.02308 0)
(9.69467 3.0362 -3.71492e-27)
(9.79163 3.04965 -4.60282e-27)
(9.89607 3.09001 4.00927e-27)
(9.96803 3.10944 1.53235e-28)
(10.0736 3.12482 -1.58065e-28)
(10.1977 3.17201 -3.28833e-28)
(10.288 3.19694 -1.95195e-28)
(10.4193 3.22646 -4.86501e-27)
(10.5815 3.29891 4.15137e-27)
(10.7281 3.34368 4.11407e-27)
(10.9306 3.38148 -3.04491e-27)
(11.1956 3.596 5.50375e-27)
(11.5217 3.73115 0)
(11.882 3.42208 0)
(12.2279 3.25375 1.49707e-26)
(12.5981 2.95751 -1.92825e-29)
(13.0599 2.41819 0)
(13.4504 1.54716 -4.24593e-28)
(13.4289 0.629983 -4.24921e-28)
(13.041 -0.0706629 0)
(12.4381 -0.432787 -3.35897e-26)
(11.8485 -0.597574 0)
(11.3519 -0.661225 -2.72575e-28)
(10.7859 -0.378486 -6.95635e-33)
(10.3923 -0.368349 3.84709e-26)
(10.0784 -0.280441 -1.51835e-28)
(9.73001 -0.152726 -5.07381e-33)
(9.43324 0.322088 7.6127e-29)
(9.19109 0.555717 -3.47437e-26)
(9.08922 0.762489 -3.37118e-26)
(9.10712 0.952323 -3.20585e-26)
(9.06994 1.20576 -2.86848e-26)
(9.03941 1.48201 -1.70671e-30)
(9.03132 1.558 0)
(9.01723 1.62232 0)
(9.07439 1.70057 0)
(9.10826 1.73043 -2.03458e-26)
(9.1374 1.7931 6.41657e-30)
(9.17691 1.83602 1.9307e-26)
(9.19309 1.88083 -1.88223e-26)
(9.25824 1.94182 -1.79392e-26)
(9.27238 1.97152 -2.17012e-31)
(9.29243 1.93552 1.87354e-26)
(9.30486 1.95447 1.85178e-26)
(9.30125 1.94058 1.90592e-30)
(9.33714 1.95093 -8.39245e-32)
(9.36307 2.07521 1.81001e-26)
(9.45093 2.12148 -1.18976e-29)
(9.65303 2.21713 -1.64865e-32)
(9.84244 2.15789 -1.13069e-29)
(9.92334 2.0983 -1.68412e-26)
(9.98141 1.96033 -1.75297e-26)
(9.47595 2.97967 -1.16732e-28)
(9.56611 2.99459 3.44143e-27)
(9.6218 3.01898 3.1734e-27)
(9.68298 3.03324 0)
(9.7898 3.0525 -1.29124e-28)
(9.85784 3.08013 -2.65479e-28)
(9.91726 3.09241 -1.38349e-28)
(10.0426 3.11374 -4.7746e-27)
(10.1176 3.14529 4.33628e-27)
(10.1882 3.16265 1.53335e-28)
(10.3273 3.18703 1.58191e-28)
(10.4221 3.22483 4.87253e-27)
(10.5123 3.24737 -1.51447e-28)
(10.6781 3.2848 -5.71407e-27)
(10.8091 3.34377 2.15304e-28)
(10.9597 3.38445 0)
(11.1887 3.42531 0)
(11.4219 3.62265 1.42692e-26)
(11.7494 3.74418 0)
(12.1216 3.43758 -2.91371e-28)
(12.432 3.24674 -6.3484e-28)
(12.8094 2.93783 1.98519e-29)
(13.2608 2.3871 -3.64038e-26)
(13.5702 1.52863 -4.1563e-28)
(13.5427 0.700568 4.12507e-28)
(13.2032 0.0460524 3.68746e-28)
(12.6095 -0.393376 -3.14883e-26)
(12.0826 -0.489934 -6.26949e-28)
(11.6173 -0.589472 3.89849e-26)
(11.0437 -0.319642 3.76862e-26)
(10.671 -0.289749 0)
(10.3334 -0.226031 0)
(10.0389 -0.103839 1.24965e-28)
(9.77619 0.19846 -3.9599e-26)
(9.47096 0.589571 -3.50604e-26)
(9.37366 0.771824 -3.31004e-26)
(9.33987 0.970899 1.63053e-29)
(9.29534 1.06781 0)
(9.33512 1.47776 -2.57998e-26)
(9.28059 1.59435 -1.32848e-30)
(9.27128 1.66135 0)
(9.32464 1.73583 3.84374e-31)
(9.32381 1.75237 -4.19522e-26)
(9.40657 1.83762 1.9898e-26)
(9.42322 1.87558 -1.9674e-26)
(9.43455 1.90154 -1.96087e-26)
(9.50032 1.86051 -2.01883e-26)
(9.45606 1.8696 2.36813e-30)
(9.51491 1.87096 2.05606e-26)
(9.51623 1.86965 -2.04905e-26)
(9.5342 1.95315 -1.95129e-26)
(9.58814 1.97868 -1.91917e-26)
(9.5966 2.055 -1.03324e-29)
(9.70603 2.10159 1.77553e-26)
(9.85771 2.19068 1.67235e-26)
(10.0476 2.14439 1.09184e-29)
(10.1046 2.01074 1.05278e-29)
(10.1651 1.94931 -1.80133e-26)
(9.51748 2.98607 1.11682e-32)
(9.59505 2.99814 3.52451e-27)
(9.67617 3.02922 3.48052e-27)
(9.73232 3.04043 1.14419e-32)
(9.81819 3.05422 -1.29226e-28)
(9.91042 3.08838 0)
(9.97313 3.09988 0)
(10.0699 3.11317 -1.00888e-26)
(10.1695 3.15107 4.86254e-27)
(10.2483 3.16844 -1.53444e-28)
(10.356 3.18352 -5.86169e-27)
(10.4756 3.22734 5.41605e-27)
(10.5743 3.24962 -5.82939e-27)
(10.709 3.27652 -1.25158e-26)
(10.8664 3.33847 -5.77114e-27)
(11.0209 3.37456 -3.16228e-32)
(11.2237 3.40477 -7.25708e-27)
(11.4803 3.59889 8.83968e-27)
(11.7995 3.70698 -1.05386e-27)
(12.1462 3.38836 1.16151e-26)
(12.476 3.19242 1.76975e-26)
(12.8278 2.86349 -2.60336e-26)
(13.2501 2.29921 -3.74643e-26)
(13.5346 1.47858 5.35427e-26)
(13.4613 0.713429 -7.80558e-28)
(13.144 0.104587 -7.2388e-28)
(12.6405 -0.362592 -3.099e-26)
(12.1067 -0.448262 -6.1524e-28)
(11.7106 -0.558764 3.93441e-26)
(11.187 -0.40064 7.80123e-26)
(10.7241 -0.271316 -3.86472e-26)
(10.4075 -0.231884 -2.98749e-28)
(10.0888 -0.0939334 -2.41904e-28)
(9.81241 0.0566722 -4.15968e-26)
(9.5765 0.594216 -9.62966e-29)
(9.44744 0.75227 0)
(9.42606 0.953107 3.23821e-26)
(9.41568 1.07007 -3.12496e-26)
(9.42175 1.2687 -5.721e-26)
(9.37679 1.59187 2.3875e-26)
(9.34192 1.65376 0)
(9.38574 1.72516 0)
(9.41669 1.75399 -2.15848e-26)
(9.45441 1.69576 -2.78761e-29)
(9.49026 1.72517 -2.21936e-26)
(9.46002 1.74674 9.01877e-31)
(9.50885 1.73195 -9.66104e-31)
(9.51855 1.74497 2.19841e-26)
(9.54432 1.83349 -7.17899e-30)
(9.58587 1.8623 -2.05933e-26)
(9.60739 1.91079 -1.95947e-26)
(9.65467 1.94438 1.89686e-26)
(9.69754 2.01775 0)
(9.77102 2.05108 1.77385e-26)
(9.94253 2.1549 1.89283e-29)
(10.0926 2.01854 0)
(10.1416 1.97059 -2.51969e-29)
(10.2261 1.9217 1.82765e-26)
(9.72667 3.03944 -2.20358e-32)
(9.81729 3.05576 2.37851e-28)
(9.87011 3.07856 7.09778e-27)
(9.9349 3.09004 2.53221e-28)
(10.0417 3.11002 2.58534e-28)
(10.1067 3.13649 4.21057e-27)
(10.1693 3.14579 4.73066e-27)
(10.2956 3.16756 -5.44388e-27)
(10.3664 3.1968 2.92671e-28)
(10.4415 3.21064 -5.10961e-27)
(10.5836 3.2351 -1.2366e-26)
(10.6747 3.26987 -3.29994e-28)
(10.7706 3.28806 -6.82069e-27)
(10.9404 3.323 -7.17102e-27)
(11.0677 3.37202 3.82576e-28)
(11.2227 3.40208 3.03779e-32)
(11.4502 3.43469 -5.61071e-27)
(11.6782 3.61145 -5.18611e-32)
(11.9945 3.70421 1.05103e-27)
(12.3512 3.38894 1.3933e-26)
(12.6482 3.17199 2.08312e-29)
(13.004 2.83187 0)
(13.4095 2.26001 7.51087e-28)
(13.6218 1.47232 1.67148e-29)
(13.5582 0.77773 -1.55598e-27)
(13.2661 0.204824 7.10141e-28)
(12.7659 -0.228653 -5.79872e-26)
(12.3152 -0.34461 6.01316e-28)
(11.9251 -0.480884 5.49045e-28)
(11.4073 -0.440098 3.9816e-26)
(10.98 -0.189588 -7.6478e-26)
(10.6271 -0.158503 -3.8621e-26)
(10.3308 -0.0342284 0)
(10.1402 0.116059 -4.08433e-26)
(9.87832 0.54369 0)
(9.71869 0.789436 0)
(9.66889 0.953038 3.17756e-26)
(9.60693 1.07722 4.37039e-31)
(9.6747 1.16166 -6.12964e-26)
(9.65613 1.4647 2.63077e-26)
(9.61792 1.51911 -4.06619e-29)
(9.64833 1.57633 -3.0447e-29)
(9.59016 1.58022 -2.48365e-26)
(9.64554 1.59141 8.69269e-33)
(9.68831 1.61404 -1.14859e-29)
(9.66914 1.64482 -1.75322e-31)
(9.71911 1.73875 -4.32586e-30)
(9.70785 1.76523 0)
(9.78468 1.8404 6.65476e-30)
(9.81179 1.86382 2.41801e-30)
(9.84691 1.89886 0)
(9.89417 1.93524 3.77129e-26)
(9.914 2.01372 -1.8434e-26)
(10.0114 2.04607 -1.81782e-26)
(10.109 2.07114 2.49975e-29)
(10.2389 1.91463 3.19489e-29)
(10.3052 1.94756 2.78396e-29)
(10.399 1.90155 3.64165e-26)
(9.75998 3.04009 2.33837e-28)
(9.83738 3.05376 3.86615e-27)
(9.91364 3.08346 3.5983e-27)
(9.97591 3.0913 -2.53315e-28)
(10.0614 3.10592 -2.59075e-28)
(10.1482 3.1391 4.58388e-27)
(10.2165 3.14703 2.01261e-29)
(10.3131 3.16057 5.92954e-27)
(10.4074 3.19662 0)
(10.4928 3.20978 -2.23078e-29)
(10.6023 3.22461 -6.86472e-27)
(10.7167 3.26574 -6.21917e-27)
(10.8233 3.28262 -1.43248e-26)
(10.9605 3.30659 0)
(11.1124 3.359 3.83672e-28)
(11.2733 3.38329 4.10961e-28)
(11.4748 3.40463 5.94558e-27)
(11.722 3.57597 4.90682e-32)
(12.0292 3.65129 -5.23743e-28)
(12.3595 3.3272 -1.40027e-26)
(12.673 3.1073 -2.05695e-26)
(13.0005 2.74863 -6.81564e-28)
(13.3674 2.16896 4.15165e-26)
(13.5736 1.44053 -5.3937e-26)
(13.4715 0.803903 0)
(13.2065 0.272622 6.95194e-28)
(12.7969 -0.146606 -2.80663e-26)
(12.3219 -0.285898 5.88801e-28)