/*--------------------------------*- C++ -*----------------------------------*\
| =========                 |                                                 |
| \\      /  F ield         | OpenFOAM: The Open Source CFD Toolbox           |
|  \\    /   O peration     | Version:  v2012                                 |
|   \\  /    A nd           | Website:  www.openfoam.com                      |
|    \\/     M anipulation  |                                                 |
\*---------------------------------------------------------------------------*/
FoamFile
{
    version     2.0;
    format      ascii;
    class       volSymmTensorField;
    location    "1e-06";
    object      UPrime2Mean;
}
// * * * * * * * * * * * * * * * * * * * * * * * * * * * * * * * * * * * * * //

dimensions      [0 2 -2 0 0 0 0];


internalField   nonuniform List<symmTensor> 
10295
(
(0.000540361 0.000198434 3.26083e-30 7.28829e-05 1.18853e-30 2.62495e-56)
(0.000515736 0.000188888 -1.87402e-29 6.9193e-05 -6.83187e-30 7.65872e-55)
(0.000716445 0.000267379 3.50268e-29 9.98054e-05 1.29906e-29 2.09786e-54)
(0.000659389 0.000237959 -2.01518e-29 8.58874e-05 -7.23863e-30 7.13289e-55)
(0.000630756 0.00022254 -3.41124e-30 7.85449e-05 -1.19189e-30 2.38598e-56)
(0.00089648 0.000325471 2.81601e-29 0.000118203 1.0141e-29 1.07426e-54)
(0.000873256 0.000303997 -2.10485e-29 0.000105837 -7.30165e-30 5.99361e-55)
(0.0008871 0.000302737 -2.34737e-29 0.000103343 -7.95313e-30 7.62343e-55)
(0.0012485 0.000438342 -6.14268e-30 0.000153953 -2.13396e-30 4.15943e-56)
(0.00125679 0.000403855 -6.65983e-34 0.000129777 -2.13723e-34 4.69776e-64)
(0.00128087 0.000406833 6.96116e-30 0.000129222 2.2159e-30 4.91598e-56)
(0.00172824 0.000560038 -3.92747e-30 0.000181481 -1.27262e-30 1.4094e-56)
(0.00171452 0.000526451 0 0.000161654 0 0)
(0.00171419 0.000529582 0 0.000163621 0 0)
(0.00224873 0.000728817 1.46375e-29 0.000236211 4.74482e-30 1.1611e-55)
(0.00214803 0.000661503 0 0.000203721 0 0)
(0.00313643 0.000942542 1.13817e-29 0.000283537 3.46391e-30 5.54324e-56)
(0.00588973 0.000892408 2.88642e-33 0.000137588 4.04998e-34 2.03387e-63)
(0.00368135 -0.00028851 -2.01443e-29 3.34267e-05 1.5165e-30 1.46153e-55)
(0.00405678 0.000925231 -1.07726e-28 0.000212833 -2.47229e-29 2.92116e-54)
(0.00684634 0.00217007 0 0.000687868 0 0)
(0.00587738 0.00204986 3.37216e-29 0.000716116 1.15883e-29 2.66238e-55)
(0.0101518 0.00425305 2.3134e-33 0.00178551 9.76574e-34 7.99333e-64)
(0.00772574 0.00395611 1.55769e-27 0.00205224 7.96815e-28 3.72196e-52)
(0.0256469 0.0193587 -2.3557e-34 0.0149693 -1.76902e-34 2.19508e-66)
(0.159838 0.0337049 -3.08356e-28 0.00870881 -5.26632e-29 7.11055e-55)
(0.134388 0.108569 -3.66296e-26 0.0934264 -2.94954e-26 1.00931e-50)
(1.44255 -0.702482 -1.91609e-28 0.413549 -2.29966e-29 2.92087e-55)
(1.03539 -0.684807 0 0.475255 0 0)
(0.989663 -0.647406 -1.46018e-32 0.465615 5.90055e-31 1.09229e-59)
(1.08696 -0.776499 -1.06928e-28 0.599925 1.44079e-29 1.20218e-55)
(0.587684 -0.605096 1.63457e-34 0.652274 3.19832e-34 1.00323e-65)
(0.368605 -0.462426 4.90822e-29 0.596084 -3.74729e-29 8.32583e-56)
(0.0491119 -0.153752 1.45485e-27 0.494617 -2.59088e-27 5.79369e-52)
(0.000223616 0.00485515 -1.07847e-32 0.120595 -2.73856e-31 6.37316e-61)
(0.000756263 0.00743327 -1.23302e-29 0.0731886 -1.10965e-28 1.49553e-53)
(0.000763682 0.00684919 -6.80964e-33 0.0615971 -6.18027e-32 6.47042e-62)
(0.00068373 0.00589513 -8.30332e-30 0.0508825 -6.67036e-29 2.85662e-54)
(0.000553643 0.00507131 0 0.0464573 0 0)
(0.000641931 0.00538857 1.88781e-29 0.0452491 1.60659e-28 1.57878e-54)
(0.000562149 0.00488309 -1.95964e-29 0.0424374 -1.73209e-28 1.49934e-54)
(0.000620521 0.00513733 -2.22504e-36 0.0425555 -1.87549e-35 1.54259e-68)
(0.000575541 0.00484955 -2.31471e-29 0.040898 -1.98947e-28 1.6396e-54)
(0.000622638 0.00518383 -2.54047e-29 0.0432065 -2.15745e-28 1.73969e-54)
(0.00069662 0.00564607 -2.81855e-29 0.0458197 -2.33171e-28 1.8822e-54)
(0.000622821 0.00525143 5.35177e-29 0.0443349 4.60245e-28 7.4069e-54)
(0.00073148 0.00568574 2.98427e-29 0.0442432 2.36055e-28 1.90074e-54)
(0.000532633 0.00451288 2.50194e-29 0.0382578 2.14568e-28 1.75566e-54)
(0.000773531 0.00589478 -6.33197e-29 0.0449992 -4.92215e-28 7.87579e-54)
(0.00076846 0.00611337 -1.90728e-34 0.0487104 -1.52332e-33 2.17715e-64)
(0.000625575 0.00537668 0 0.0462763 0 0)
(0.00063851 0.00559663 -2.99572e-29 0.0491186 -2.66977e-28 2.11491e-54)
(0.00071292 0.00652289 0 0.0597707 0 0)
(0.000886125 0.0076674 0 0.0664256 0 0)
(0.00167336 0.0120498 0 0.0868581 0 0)
(0.00188531 0.0126012 -6.59345e-29 0.0844467 -4.51452e-28 3.60069e-54)
(0.00162612 0.0118129 6.07338e-29 0.0859686 4.49873e-28 3.58443e-54)
(0.00121359 0.00948056 -5.60299e-35 0.0741429 -5.7721e-34 3.10222e-63)
(0.000134879 4.89482e-05 0 1.77906e-05 0 0)
(0.000185195 6.61344e-05 -3.04741e-29 2.36209e-05 -1.08804e-29 5.18614e-54)
(0.000187669 6.83025e-05 2.37917e-34 2.48757e-05 8.64653e-35 3.20041e-64)
(0.000168677 5.94984e-05 -2.91389e-29 2.10114e-05 -1.03382e-29 5.49906e-54)
(0.000254614 8.60009e-05 -4.17019e-29 2.90524e-05 -1.40598e-29 7.23289e-54)
(0.000261166 9.09246e-05 3.93795e-29 3.16689e-05 1.36901e-29 6.2669e-54)
(0.000244361 8.199e-05 -2.64232e-29 2.75176e-05 -8.8964e-30 3.08469e-54)
(0.000386743 0.00012605 -8.17283e-29 4.1084e-05 -2.66041e-29 1.86373e-53)
(0.000424791 0.000141522 0 4.71585e-05 0 0)
(0.00040772 0.000125576 0 3.86804e-05 0 0)
(0.000624322 0.000189988 0 5.78661e-05 0 0)
(0.000683129 0.000212601 1.02183e-29 6.61848e-05 3.19109e-30 1.86987e-55)
(0.000645656 0.000187498 5.81164e-30 5.45487e-05 1.69192e-30 5.78002e-56)
(0.000886043 0.000264687 6.93666e-30 7.91039e-05 2.07885e-30 6.10899e-56)
(0.000983001 0.000315406 -2.90051e-29 0.000101211 -9.3024e-30 9.104e-55)
(0.000877322 0.000262474 -3.53202e-29 7.85506e-05 -1.05221e-29 1.51797e-54)
(0.00168954 0.000584444 -5.07477e-29 0.000203651 -1.73864e-29 1.62104e-54)
(0.00259195 0.000455024 -1.22261e-27 8.83086e-05 -1.9507e-28 6.29172e-52)
(0.00126263 -0.000264975 1.14499e-29 0.000154029 -2.9991e-30 1.19781e-55)
(0.0017244 0.000473812 1.63031e-29 0.000133728 4.39348e-30 1.77492e-55)
(0.00361943 0.00118653 2.48038e-29 0.000389043 8.1331e-30 2.10097e-55)
(0.00340782 0.00107397 4.56813e-28 0.000338504 1.44541e-28 7.33538e-53)
(0.00711512 0.00257884 -4.27153e-29 0.000938795 -1.60836e-29 3.5034e-55)
(0.00842401 0.00281532 3.82197e-27 0.000963498 1.35187e-27 2.13718e-51)
(0.0162555 0.00667856 2.91566e-28 0.00313429 1.26748e-28 5.78745e-54)
(0.0991506 0.000321298 0 0.000186542 0 0)
(0.124038 0.253191 -1.20294e-28 0.629052 -3.42877e-28 2.06564e-55)
(1.16034 -0.983766 1.1124e-28 0.884414 6.86373e-30 2.29331e-55)
(0.970044 -1.03174 0 1.28223 0 0)
(0.897794 -0.831324 -2.91726e-26 0.893738 7.25028e-27 4.63211e-51)
(0.922647 -1.16636 -8.34016e-29 1.50119 5.76682e-29 9.86597e-56)
(0.484763 -0.85777 -8.003e-30 1.74438 9.15343e-29 2.82733e-56)
(0.276043 -0.626175 0 1.46693 0 0)
(0.0316671 -0.214387 1.30257e-27 1.4745 -1.31352e-26 3.33844e-51)
(0.00166518 0.0293241 -5.29517e-32 0.538102 -1.00531e-30 2.649e-60)
(0.00124456 0.0188346 8.87152e-29 0.287244 1.72498e-27 8.29159e-52)
(0.00122779 0.0160435 -7.76749e-36 0.212627 -1.256e-34 9.7577e-67)
(0.00068802 0.0101448 6.66303e-29 0.150893 1.11196e-27 1.19093e-52)
(0.00119393 0.0121 2.12228e-33 0.123411 2.17215e-32 4.18773e-63)
(0.000789186 0.00855122 -2.15412e-29 0.0928345 -2.44025e-28 1.05715e-53)
(0.000685559 0.00738348 0 0.0795791 0 0)
(0.000902914 0.00836398 1.12189e-33 0.0775125 1.03891e-32 1.59127e-63)
(0.000591866 0.00636336 -3.10849e-38 0.0684292 -2.67079e-37 1.45098e-68)
(0.00102523 0.00868827 -6.61052e-30 0.0736318 -5.66539e-29 1.35375e-54)
(0.000829836 0.00786701 8.39187e-30 0.0745832 8.02294e-29 1.38628e-54)
(0.000689184 0.00698899 -1.31157e-34 0.0708781 -1.33239e-33 3.11386e-65)
(0.000986554 0.0084344 1.55022e-29 0.0721183 1.34349e-28 1.24402e-54)
(0.00114791 0.00861339 -8.2246e-35 0.0646401 -6.24857e-34 2.22625e-65)
(0.001092 0.00883213 -2.14664e-29 0.0714592 -1.75718e-28 1.27441e-54)
(0.000897743 0.00819862 -7.99793e-34 0.0748912 -7.31614e-33 7.67539e-64)
(0.000702749 0.00704038 5.17772e-35 0.0705478 5.49993e-34 9.32267e-65)
(0.00104028 0.0088222 -2.3354e-29 0.0748459 -2.00387e-28 1.37467e-54)
(0.00066776 0.00769671 -1.9723e-29 0.0887323 -2.29223e-28 1.55116e-54)
(0.00166221 0.0129363 2.65214e-36 0.100717 2.08501e-35 1.09226e-68)
(0.00409002 0.0244499 5.74291e-29 0.146307 3.49178e-28 2.26354e-54)
(0.00200162 0.0159068 -9.25746e-33 0.126552 -7.32302e-32 4.8965e-62)
(0.00177984 0.0155954 3.12544e-29 0.136726 2.73233e-28 2.04678e-54)
(0.00117415 0.0116102 0 0.114829 0 0)
(0.000495503 0.00015439 0 4.81095e-05 0 0)
(0.000587527 0.00018346 0 5.72877e-05 0 0)
(0.000593668 0.000179517 -6.82171e-29 5.42904e-05 -2.07452e-29 9.97601e-54)
(0.000566444 0.000173529 -5.84169e-29 5.31621e-05 -1.79119e-29 7.53158e-54)
(0.00072154 0.000225176 6.86696e-29 7.0273e-05 2.14003e-29 8.46007e-54)
(0.000754018 0.000228441 -4.45398e-30 6.92138e-05 -1.35464e-30 3.38856e-56)
(0.000712279 0.000217588 -4.58678e-30 6.64726e-05 -1.398e-30 3.66804e-56)
(0.000955004 0.000299401 -9.27557e-29 9.38659e-05 -2.9017e-29 1.16779e-53)
(0.0010182 0.000308657 0 9.35669e-05 0 0)
(0.000956459 0.000292639 0 8.9543e-05 0 0)
(0.00127228 0.000397906 0 0.000124449 0 0)
(0.0013767 0.000424377 3.35285e-29 0.000130817 1.03324e-29 1.15947e-54)
(0.00132151 0.000403633 -7.86582e-30 0.000123288 -2.40093e-30 5.80842e-56)
(0.00164805 0.000516378 -1.94572e-29 0.000161814 -6.05643e-30 3.91789e-55)
(0.00174583 0.000553803 -5.95318e-29 0.000175719 -1.88094e-29 2.29473e-54)
(0.00159172 0.0004919 -7.39841e-29 0.000152018 -2.2849e-29 3.78624e-54)
(0.00275735 0.000913769 -4.42673e-29 0.000303115 -1.45172e-29 8.54821e-55)
(0.0040893 0.00166903 -2.69393e-27 0.000683926 -1.06596e-27 2.35449e-51)
(0.00230683 0.000658861 -1.50563e-29 0.000196623 -4.58624e-30 1.21146e-55)
(0.00251481 0.000987316 -1.89704e-29 0.000399332 -7.12275e-30 1.74176e-55)
(0.00472675 0.001573 -2.72415e-29 0.000523536 -9.08337e-30 2.07101e-55)
(0.00546376 0.00156787 -3.06803e-29 0.00044999 -8.86267e-30 2.27865e-55)
(0.00994176 0.00240226 -4.92772e-29 0.000580713 -1.19018e-29 3.48078e-55)
(0.00887569 0.00011048 4.87604e-27 7.68256e-05 1.5952e-28 3.35679e-51)
(0.0171985 -0.00726281 2.12794e-28 0.00406562 -7.88314e-29 3.07874e-54)
(0.0703806 -0.0355883 0 0.0181964 0 0)
(0.0971982 0.221155 0 0.647116 0 0)
(0.944739 -0.866628 0 0.804413 0 0)
(0.931827 -0.995669 0 1.35545 0 0)
(0.82172 -0.619445 -5.43553e-26 1.09456 -4.74866e-26 1.71208e-50)
(0.790369 -1.1113 0 1.56696 0 0)
(0.433945 -0.799783 -5.96388e-27 1.80859 -5.82621e-26 1.57617e-50)
(0.222801 -0.51648 0 1.42316 0 0)
(0.0229267 -0.187678 0 1.60276 0 0)
(0.00230032 0.0439746 3.57288e-32 0.853099 7.11672e-31 1.19737e-60)
(0.00438651 0.0438818 -8.07813e-29 0.47602 5.50017e-27 1.18315e-51)
(0.00365815 0.0342646 -1.4517e-31 0.325145 -1.57032e-30 3.65243e-59)
(0.00181275 0.0197234 0 0.225778 0 0)
(0.00183273 0.0164757 2.73511e-33 0.155911 2.53082e-32 1.47727e-62)
(0.00149211 0.0124383 -3.80884e-28 0.10822 -4.27603e-27 1.02218e-51)
(0.00148609 0.0107632 8.84809e-34 0.0811373 6.61003e-33 7.81672e-64)
(0.00143652 0.00947613 0 0.0644128 0 0)
(0.0011104 0.00702469 1.02811e-28 0.0456002 6.72188e-28 3.40152e-53)
(0.00151386 0.00793538 -1.07956e-28 0.0424482 -5.74361e-28 2.0624e-53)
(0.00127722 0.00696245 4.406e-34 0.0386505 2.44442e-33 4.25706e-64)
(0.00133715 0.00663918 8.37635e-29 0.0335225 4.16365e-28 1.17905e-53)
(0.00133988 0.00635067 -7.70837e-29 0.0305103 -3.63771e-28 8.25492e-54)
(0.000930571 0.00467799 1.14359e-28 0.0237848 5.6935e-28 1.93489e-53)
(0.00146408 0.00608323 -6.39803e-29 0.0254979 -2.63648e-28 4.00131e-54)
(0.00125602 0.00570452 -6.18255e-29 0.0261519 -2.7821e-28 4.58994e-54)
(0.00130011 0.0054855 0 0.0233441 0 0)
(0.00138023 0.00578048 5.73552e-29 0.0243873 2.37814e-28 3.01654e-54)
(0.0014468 0.00616248 1.25482e-28 0.0264926 5.27238e-28 1.34301e-53)
(0.00202851 0.00781395 0 0.0302877 0 0)
(0.00155831 0.00803255 3.32876e-34 0.0415642 1.68594e-33 8.87147e-65)
(0.00221146 0.00996081 -9.02354e-29 0.0450638 -4.00656e-28 6.37739e-54)
(0.00190031 0.010311 -6.15024e-29 0.0564078 -3.81512e-28 1.93471e-53)
(0.00172552 0.00933742 -1.05799e-33 0.0510673 -5.60396e-33 1.16838e-63)
(0.000129139 3.96029e-05 -1.7346e-34 1.21499e-05 -5.29183e-35 3.02189e-64)
(0.00015011 4.55392e-05 4.32711e-29 1.38389e-05 1.29638e-29 1.45769e-53)
(0.00017711 5.22921e-05 -3.42874e-31 1.54596e-05 -1.00618e-31 7.30589e-58)
(0.000165017 4.83624e-05 0 1.42032e-05 0 0)
(0.000201678 5.96888e-05 5.17669e-29 1.7702e-05 1.51471e-29 1.50493e-53)
(0.000242311 7.11568e-05 2.73843e-30 2.09206e-05 8.00508e-31 3.39199e-56)
(0.000237823 6.86389e-05 2.74986e-30 1.985e-05 7.84462e-31 3.67204e-56)
(0.000306022 9.05916e-05 6.82104e-29 2.68579e-05 2.0069e-29 1.68314e-53)
(0.000375528 0.000110071 0 3.22743e-05 0 0)
(0.000370332 0.000106083 -4.0958e-29 3.04523e-05 -1.16936e-29 5.11914e-54)
(0.000465242 0.000137042 -4.52028e-30 4.04263e-05 -1.32668e-30 4.85267e-56)
(0.000586191 0.00017376 -1.05663e-29 5.15249e-05 -3.1319e-30 2.10098e-55)
(0.000578679 0.00016432 -4.15531e-29 4.68062e-05 -1.18278e-29 3.44167e-54)
(0.00070746 0.000210956 -2.83785e-29 6.29071e-05 -8.46375e-30 1.38072e-54)
(0.000871269 0.000273446 4.39186e-29 8.59594e-05 1.38309e-29 2.33718e-54)
(0.000810622 0.000244545 -5.55165e-29 7.37775e-05 -1.67381e-29 4.21461e-54)
(0.00139967 0.000461978 -3.47511e-29 0.000153181 -1.14697e-29 9.38269e-55)
(0.00258559 0.0010557 -1.94353e-27 0.000434226 -7.73704e-28 1.75715e-51)
(0.00119231 0.000231953 0 0.000132024 0 0)
(0.00148672 0.000559216 0 0.000231612 0 0)
(0.0033146 0.00103272 3.65812e-28 0.000321974 1.15033e-28 4.84687e-53)
(0.00334964 0.000884164 -9.0411e-28 0.000233812 -2.41498e-28 2.92186e-52)
(0.00675857 0.00143764 0 0.000305929 0 0)
(0.00736917 -0.000426558 5.30564e-27 0.000131251 -2.20961e-28 4.68673e-51)
(0.0121546 -0.0028634 -7.89549e-29 0.000768704 2.03613e-29 6.02138e-55)
(0.0465348 -0.0242673 -2.91054e-28 0.0135131 1.69728e-28 2.20159e-54)
(0.0680638 0.148176 4.47143e-26 0.434826 1.04595e-25 2.99065e-50)
(0.799684 -0.606136 9.34687e-34 0.461835 -9.42389e-34 3.18609e-65)
(0.928206 -1.04353 4.39677e-29 1.40361 -2.29845e-28 1.43581e-55)
(0.753245 -0.665721 -4.39638e-26 1.15366 -5.08477e-26 1.75632e-50)
(0.704524 -1.06288 0 1.61058 0 0)
(0.419952 -0.855839 -3.04419e-27 2.02394 -5.58524e-26 1.47092e-50)
(0.204091 -0.516489 0 1.60912 0 0)
(0.0253753 -0.201549 -1.07444e-27 1.72719 2.51946e-26 5.40615e-51)
(0.00045131 0.0208453 0 1.05304 0 0)
(0.00203095 0.0275111 4.33729e-31 0.621872 2.05644e-30 2.68144e-58)
(0.00180441 0.0221248 1.882e-28 0.410746 -5.41996e-27 8.30489e-52)
(0.000600928 0.0140698 1.69135e-33 0.330802 4.45128e-32 6.67371e-62)
(0.00035129 0.00927683 0 0.245525 0 0)
(0.000626986 0.0109127 -2.8022e-28 0.193226 -5.87644e-27 9.20101e-52)
(0.000299082 0.00654327 0 0.14528 0 0)
(0.000276481 0.00549799 0 0.11107 0 0)
(0.00050774 0.00626467 1.36531e-28 0.0801626 2.0796e-27 2.81947e-52)
(0.000109436 0.00259454 -1.19913e-28 0.0619943 -3.14262e-27 8.04527e-52)
(0.000261873 0.00375989 8.25866e-29 0.0550757 1.39412e-27 1.80359e-52)
(0.000100332 0.00208631 1.01691e-34 0.0436308 2.24267e-33 2.1891e-64)
(8.77578e-05 0.00177972 -3.86654e-29 0.0363001 -8.94121e-28 1.07665e-52)
(0.00035318 0.00326062 6.49418e-29 0.0314931 7.34379e-28 8.42555e-53)
(5.40506e-05 0.00109204 -2.24714e-29 0.0224128 -5.27627e-28 5.75697e-53)
(0.000234669 0.00234511 -4.67777e-29 0.0241747 -5.62366e-28 6.24099e-53)
(3.68941e-05 0.000773821 1.4371e-29 0.0166912 3.72093e-28 3.52583e-53)
(7.47057e-05 0.00111206 -1.1594e-34 0.0167824 -2.11994e-33 1.13059e-63)
(0.000295971 0.00233847 3.9351e-29 0.0192019 3.77152e-28 3.08099e-53)
(0.000240478 0.00195272 1.1147e-33 0.0161627 7.11483e-33 6.19766e-62)
(0.000906344 0.00489565 5.34721e-29 0.0268036 3.23114e-28 2.20575e-53)
(0.000746513 0.00489452 -6.44577e-29 0.0321365 -4.01661e-28 5.36383e-53)
(0.000660462 0.00579854 -9.73493e-33 0.0510784 -1.00681e-31 6.94198e-60)
(0.000160423 0.00269153 2.85311e-35 0.0462771 7.03177e-34 1.06503e-64)
(0.000213821 6.31522e-05 0 1.86609e-05 0 0)
(0.000260104 7.76029e-05 6.61963e-29 2.31576e-05 1.98021e-29 1.81466e-53)
(0.000294776 8.60783e-05 1.34739e-28 2.51365e-05 3.93648e-29 6.75868e-53)
(0.00026865 7.62767e-05 2.76271e-30 2.1661e-05 7.86665e-31 3.05142e-56)
(0.00034248 9.97024e-05 8.00259e-29 2.90286e-05 2.3314e-29 2.06482e-53)
(0.000391034 0.000113471 -3.45333e-30 3.29274e-05 -1.00197e-30 3.38776e-56)
(0.000374879 0.000105758 7.72149e-29 2.9837e-05 2.18157e-29 1.75841e-53)
(0.000497794 0.000144593 2.1169e-28 4.20082e-05 6.15765e-29 1.01517e-52)
(0.000574218 0.000167196 -4.56388e-30 4.86882e-05 -1.32581e-30 4.11152e-56)
(0.000556909 0.000155912 -7.12546e-29 4.36569e-05 -2.00288e-29 1.04432e-53)
(0.000720448 0.000209178 8.7697e-29 6.07451e-05 2.54993e-29 1.24164e-53)
(0.000840201 0.00024381 -6.18948e-30 7.07489e-05 -1.79647e-30 5.24917e-56)
(0.000827302 0.000227384 -7.12844e-29 6.25623e-05 -1.97795e-29 7.3535e-54)
(0.00102091 0.000294489 -7.42125e-30 8.49497e-05 -2.14248e-30 6.18986e-56)
(0.0011708 0.000369312 0 0.000116865 0 0)
(0.00107312 0.000316678 -6.83591e-29 9.34686e-05 -2.01756e-29 4.54118e-54)
(0.0019368 0.000663791 1.08978e-29 0.000228851 3.66591e-30 7.43946e-56)
(0.0030393 0.00119517 -1.79436e-27 0.000472417 -6.8802e-28 1.30821e-51)
(0.0015805 0.000204045 -1.29074e-29 0.000122839 -1.96019e-30 1.21213e-55)
(0.00208148 0.000801458 3.89064e-29 0.000330532 1.29942e-29 1.30903e-54)
(0.00396824 0.00118557 1.12126e-27 0.000354411 3.38663e-28 3.9461e-52)
(0.00433827 0.00110919 0 0.000283763 0 0)
(0.008053 0.00164046 0 0.000334517 0 0)
(0.0079043 -0.000966651 -6.3189e-27 0.000239973 6.43241e-28 6.32972e-51)
(0.0125162 -0.00383151 1.16367e-28 0.00139297 -3.83801e-29 1.30855e-54)
(0.0372034 -0.0221032 0 0.0145718 0 0)
(0.0539868 0.107426 3.65515e-26 0.317105 8.39082e-26 2.60281e-50)
(0.677992 -0.230981 0 0.0864744 0 0)
(0.860346 -1.02081 0 1.40104 0 0)
(0.708731 -0.744824 -3.41235e-26 1.24571 -4.7704e-26 1.72249e-50)
(0.643858 -0.907143 -1.20434e-29 1.33801 3.97151e-29 4.8583e-56)
(0.399353 -0.87387 0 2.15606 0 0)
(0.184818 -0.528944 -8.4292e-27 1.74883 -1.57386e-26 7.2585e-51)
(0.0271166 -0.210227 -8.32569e-29 1.67042 6.07233e-27 3.3575e-51)
(0.000403001 0.0210891 0 1.24586 0 0)
(0.00451282 0.0531618 -6.78763e-28 0.805843 1.29087e-26 2.68501e-51)
(0.00624614 0.0493122 1.16217e-27 0.581542 -9.65466e-27 2.11935e-51)
(0.00312152 0.0352195 0 0.420402 0 0)
(0.00213371 0.0271449 6.26695e-33 0.374763 1.14367e-31 1.30791e-61)
(0.00181041 0.0226783 -5.10579e-28 0.303068 -8.978e-27 1.35253e-51)
(0.00216323 0.0218765 4.66412e-35 0.239184 7.12994e-34 1.08551e-65)
(0.00231679 0.0206445 1.35251e-32 0.200653 1.28247e-31 4.37105e-61)
(0.00150936 0.0150569 0 0.161659 0 0)
(0.00197902 0.0157355 -3.56407e-28 0.138115 -4.29804e-27 6.84036e-52)
(0.00156488 0.0131348 -2.55861e-35 0.120773 -3.27652e-34 4.55696e-66)
(0.00166643 0.0125589 -4.20424e-35 0.104737 1.78802e-34 4.18625e-65)
(0.0018307 0.0123455 1.75716e-33 0.0928628 1.22639e-32 2.97191e-63)
(0.00151454 0.0108964 2.6845e-33 0.0865989 2.1486e-32 1.5719e-62)
(0.00176285 0.0102226 -1.98483e-28 0.0665232 -1.90595e-27 2.79526e-52)
(0.00152001 0.00965805 0 0.0679188 0 0)
(0.00154189 0.00840991 3.01678e-28 0.051766 2.83769e-27 7.94514e-52)
(0.00184596 0.0091018 -1.56342e-28 0.0508608 -1.37727e-27 1.91539e-52)
(0.00162596 0.00851668 0 0.0495976 0 0)
(0.00302419 0.0104315 0 0.0379478 0 0)
(0.00369895 0.0144475 1.38797e-28 0.0583191 7.71854e-28 1.54002e-52)
(0.00412964 0.0166706 0 0.0703509 0 0)
(0.0027154 0.0153472 -1.35392e-32 0.0920779 -2.14328e-31 1.0471e-59)
(0.00166659 0.0114604 1.42838e-33 0.0885578 1.78615e-32 1.55599e-62)
(0.000419965 0.000124514 -3.17191e-34 3.69231e-05 -9.40449e-35 2.89937e-64)
(0.000503354 0.000151198 6.5917e-30 4.54208e-05 1.97433e-30 1.07636e-55)
(0.00050114 0.000143609 3.99124e-30 4.11585e-05 1.14032e-30 3.89907e-56)
(0.00048805 0.000138157 3.5088e-30 3.91184e-05 9.90179e-31 3.0353e-56)
(0.000625685 0.000184612 1.19965e-28 5.44889e-05 3.5096e-29 2.91009e-53)
(0.000645333 0.000183302 0 5.20703e-05 0 0)
(0.000623996 0.000173941 1.06748e-28 4.84931e-05 2.96618e-29 2.246e-53)
(0.00084068 0.000248928 1.48073e-28 7.37365e-05 4.34471e-29 3.31307e-53)
(0.000883625 0.000251872 5.38786e-30 7.18082e-05 1.52771e-30 4.09155e-56)
(0.000851533 0.000234692 5.63145e-30 6.46889e-05 1.55168e-30 4.49183e-56)
(0.00114076 0.000335036 2.81423e-28 9.84221e-05 8.20406e-29 8.9575e-53)
(0.00121024 0.000343471 0 9.74814e-05 0 0)
(0.0011976 0.000324461 -7.55988e-30 8.79121e-05 -2.05578e-30 5.78354e-56)
(0.00151942 0.000439285 -8.69018e-30 0.000127059 -2.49478e-30 6.19271e-56)
(0.00157536 0.000482019 -6.31001e-29 0.00014783 -1.91859e-29 2.63207e-54)
(0.00146628 0.00042981 9.07384e-30 0.000126078 2.64074e-30 6.6195e-56)
(0.0024662 0.000851551 8.9066e-29 0.000295915 3.02232e-29 3.68627e-54)
(0.00350915 0.00129071 -7.50361e-28 0.000476068 -2.70499e-28 2.01408e-52)
(0.00231502 0.000271942 1.51818e-29 0.000107657 2.50554e-30 1.19881e-55)
(0.0028369 0.00103882 1.78196e-28 0.000396728 6.06506e-29 1.51771e-53)
(0.00471642 0.00136901 7.4665e-28 0.000397506 2.1843e-28 1.53026e-52)
(0.00569868 0.00141656 -6.7241e-29 0.00035246 -1.68128e-29 1.04413e-54)
(0.00981751 0.00190137 -3.94729e-27 0.000369172 -7.57992e-28 2.2111e-51)
(0.00871456 -0.00145221 -7.29643e-27 0.000354582 1.05844e-27 7.85827e-51)
(0.0128621 -0.00392479 4.02703e-28 0.0013069 -1.34391e-28 1.5759e-53)
(0.0279524 -0.0185495 -1.14259e-26 0.0143988 9.71102e-27 6.89769e-51)
(0.0476274 0.0853191 7.6196e-29 0.227107 2.18452e-28 2.14386e-55)
(0.540348 -0.0568604 -5.9242e-29 0.0222878 -3.60776e-29 1.19904e-55)
(0.746695 -0.973327 8.45205e-30 1.41836 -1.39577e-28 1.1137e-55)
(0.663064 -0.770776 -5.82978e-26 1.30533 -8.9067e-26 6.67858e-50)
(0.572463 -0.739896 0 1.2885 0 0)
(0.359579 -0.85605 0 2.22719 0 0)
(0.166746 -0.530104 -6.94211e-27 1.90876 -1.83976e-26 7.7217e-51)
(0.0242395 -0.200791 8.71292e-28 1.72661 9.47682e-27 5.57688e-51)
(0.000521835 0.0148899 0 1.36014 0 0)
(0.00349486 0.049768 -1.80111e-27 0.993767 3.1032e-26 1.25083e-50)
(0.0058299 0.047905 0 0.720507 0 0)
(0.00339048 0.0348229 0 0.532871 0 0)
(0.00241687 0.0334429 6.79941e-28 0.475559 1.26766e-26 1.82752e-51)
(0.00175114 0.0263593 -5.74604e-28 0.414135 -1.17584e-26 1.70307e-51)
(0.001986 0.0254627 1.12167e-32 0.344216 1.4773e-31 2.74437e-61)
(0.00198991 0.0235709 -1.29782e-32 0.296606 -1.57769e-31 3.70191e-61)
(0.00141536 0.018063 -1.67243e-33 0.241265 -2.10008e-32 1.41117e-62)
(0.00174713 0.0189921 2.87685e-33 0.2204 3.40339e-32 2.09737e-62)
(0.00140698 0.0161052 3.12517e-33 0.195656 3.95061e-32 2.76703e-62)
(0.00148411 0.015763 8.99502e-34 0.178981 1.0113e-32 9.99458e-64)
(0.00151371 0.0151106 1.71288e-33 0.162282 1.8484e-32 4.58512e-63)
(0.00109814 0.0124838 0 0.148641 0 0)
(0.00168748 0.0142477 -5.35875e-28 0.129182 -7.11858e-27 2.06423e-51)
(0.00134625 0.0126098 1.83149e-33 0.126914 2.83812e-32 5.6203e-62)
(0.00133875 0.0114527 1.85758e-28 0.10609 2.69429e-27 3.81619e-52)
(0.00155762 0.0121226 0 0.103186 0 0)
(0.00205102 0.013191 0 0.0896595 0 0)
(0.00457864 0.0193924 0 0.0842576 0 0)
(0.00479946 0.0220001 2.79924e-28 0.103297 1.70769e-27 3.87742e-52)
(0.00433701 0.0227681 2.40567e-35 0.123011 1.92913e-34 3.93481e-66)
(0.0025723 0.0184985 1.46305e-28 0.138237 2.00103e-27 4.26825e-52)
(0.00141218 0.0132534 0 0.136529 0 0)
(0.000129064 3.63015e-05 0 1.02952e-05 0 0)
(0.000149411 4.14648e-05 0 1.16215e-05 0 0)
(0.000184412 4.88765e-05 -6.62913e-29 1.30024e-05 -1.74777e-29 2.57901e-53)
(0.000168765 4.35107e-05 0 1.13778e-05 0 0)
(0.000202512 5.36e-05 2.40209e-30 1.43084e-05 6.22924e-31 3.17863e-56)
(0.000252068 6.59876e-05 2.79747e-30 1.73286e-05 7.28992e-31 3.36331e-56)
(0.000248302 6.27711e-05 8.10983e-29 1.60429e-05 2.01615e-29 2.97377e-53)
(0.000311158 8.27301e-05 1.10898e-28 2.21036e-05 2.92372e-29 4.34917e-53)
(0.000387771 0.000102868 0 2.73091e-05 0 0)
(0.000390306 9.76334e-05 -8.92639e-29 2.46301e-05 -2.22833e-29 2.27685e-53)
(0.000475812 0.000126532 1.15557e-28 3.37804e-05 3.06056e-29 3.12251e-53)
(0.000602876 0.00015811 -1.18522e-28 4.15514e-05 -3.11847e-29 2.63294e-53)
(0.00060959 0.000150062 -1.10237e-28 3.73286e-05 -2.72905e-29 2.26388e-53)
(0.000738933 0.000193901 -9.82783e-29 5.09405e-05 -2.58574e-29 1.51529e-53)
(0.00091351 0.000269634 -4.21226e-29 8.00231e-05 -1.25868e-29 2.01773e-54)
(0.000878066 0.000239427 -5.567e-29 6.53232e-05 -1.52113e-29 3.78598e-54)
(0.00143854 0.000496844 4.39608e-29 0.000176096 1.52206e-29 1.43843e-54)
(0.00252676 0.000852948 -1.3212e-29 0.000288477 -4.40528e-30 8.60179e-56)
(0.0014169 0.000225615 -2.47164e-29 0.000127046 -3.75594e-30 4.95932e-55)
(0.00174836 0.000542107 -2.65426e-28 0.000176204 -8.19836e-29 4.77039e-53)
(0.00345676 0.000971587 8.42268e-28 0.000273288 2.3833e-28 2.50612e-52)
(0.00374144 0.000784743 2.81517e-29 0.000165543 6.06774e-30 2.59109e-55)
(0.0068582 0.000955193 -3.75944e-27 0.000134342 -5.44412e-28 2.67805e-51)
(0.00685363 -0.00194376 -4.97195e-29 0.000813205 1.30079e-29 4.50607e-55)
(0.00868698 -0.00394305 2.76723e-28 0.00208175 -1.38525e-28 1.10565e-53)
(0.0173489 -0.0148964 1.28772e-30 0.0150754 -1.41559e-30 1.37724e-58)
(0.043621 0.06963 7.47972e-29 0.162097 1.82931e-28 2.09251e-55)
(0.415611 -0.0363092 8.20551e-29 0.01488 2.50371e-29 1.07154e-55)
(0.641135 -0.89525 -6.27195e-27 1.38458 5.4477e-26 1.62603e-50)
(0.664297 -0.807307 -2.51819e-26 1.34724 -4.16958e-26 1.56768e-50)
(0.529662 -0.695752 -1.03552e-29 1.20269 -4.24326e-29 3.36347e-56)
(0.325925 -0.80751 4.27976e-30 2.17858 3.22543e-29 1.55405e-56)
(0.17968 -0.569234 -1.02769e-30 1.9976 3.64544e-29 6.57431e-57)
(0.0411369 -0.264071 -1.18907e-27 1.71359 1.31149e-26 6.24412e-51)
(0.00331194 -0.0467561 0 1.26087 0 0)
(0.000811031 0.0126546 -1.23972e-27 1.09707 1.75428e-26 3.49204e-51)
(0.00307569 0.0303839 -1.80785e-27 0.826924 1.45849e-26 3.07116e-51)
(0.0035169 0.0209643 2.26486e-27 0.653066 -1.20762e-26 2.70555e-51)
(0.00168755 0.0185711 6.35173e-31 0.496065 4.46453e-30 3.87925e-58)
(0.000858144 0.020332 1.42563e-32 0.483128 3.39481e-31 1.10728e-60)
(0.000643898 0.0163418 1.25258e-32 0.415712 3.07979e-31 8.93833e-61)
(0.000632536 0.0152586 7.39338e-33 0.369535 1.71603e-31 2.95471e-61)
(0.00069765 0.0146966 0 0.312621 0 0)
(0.000506185 0.01196 0 0.283364 0 0)
(0.000680599 0.0132096 0 0.25733 0 0)
(0.000366197 0.00934857 -7.35949e-34 0.238768 -1.90878e-32 5.81259e-63)
(0.000327041 0.00841691 2.43311e-28 0.216734 6.28089e-27 9.10878e-52)
(0.000556488 0.0106316 0 0.20494 0 0)
(0.000354377 0.00778812 1.26259e-33 0.171552 2.74546e-32 2.22297e-62)
(0.000592253 0.0098778 0 0.168018 0 0)
(0.000283366 0.00612014 0 0.13264 0 0)
(0.000833199 0.00948281 0 0.128495 0 0)
(0.00223125 0.0164469 -5.62387e-28 0.134663 -2.1089e-27 4.82303e-52)
(0.00256661 0.0177622 1.8319e-31 0.127343 4.93731e-31 1.53612e-58)
(0.00394738 0.0240769 -4.40199e-28 0.147645 -2.52471e-27 5.39388e-52)
(0.00262998 0.0207649 3.72484e-28 0.164546 2.80932e-27 5.7672e-52)
(0.00123804 0.0132407 1.35797e-32 0.143227 1.75985e-31 8.20746e-60)
(0.000692572 0.00849067 4.73833e-32 0.139733 -7.82648e-31 6.69718e-59)
(0.000401685 0.000113445 5.88183e-30 3.20484e-05 1.66421e-30 1.03019e-55)
(0.000503414 0.000146501 3.29263e-30 4.26453e-05 9.52958e-31 2.68307e-56)
(0.000496468 0.000135377 3.3832e-30 3.69347e-05 9.16116e-31 2.81857e-56)
(0.000470677 0.000124266 3.44031e-34 3.28178e-05 9.05992e-35 2.98734e-64)
(0.000625984 0.0001774 -3.86129e-34 5.03183e-05 -1.07973e-34 2.97536e-64)
(0.00064214 0.000173311 8.36518e-30 4.68008e-05 2.23902e-30 1.34503e-55)
(0.00060434 0.00015679 2.75885e-28 4.06837e-05 7.13784e-29 1.53829e-52)
(0.000835334 0.000236878 1.88006e-28 6.72315e-05 5.25857e-29 5.37935e-53)
(0.000879655 0.00023947 0 6.52405e-05 0 0)
(0.000829874 0.000211292 -1.06514e-30 5.38013e-05 -2.71566e-31 1.63561e-57)
(0.00113133 0.000317978 -2.03774e-28 8.94303e-05 -5.65954e-29 4.71187e-53)
(0.00120771 0.000323354 -3.49338e-28 8.65997e-05 -9.29609e-29 1.31298e-52)
(0.00117002 0.000293362 -3.20486e-28 7.35663e-05 -8.08465e-29 1.12206e-52)
(0.00156065 0.000425726 -1.627e-28 0.000116225 -4.38736e-29 2.28496e-53)
(0.00165489 0.000498583 -2.33022e-29 0.000151062 -7.17072e-30 3.99168e-55)
(0.00155577 0.000426385 -3.76404e-29 0.00011706 -1.04239e-29 9.93579e-55)
(0.00251548 0.000911102 8.25053e-29 0.000336124 2.88888e-29 3.12438e-54)
(0.00330843 0.000977757 2.14868e-28 0.000288994 6.37116e-29 1.54049e-53)
(0.00251016 0.000447142 -1.26334e-28 0.000116325 -3.09856e-29 9.55913e-54)
(0.00310148 0.000906304 -4.71149e-28 0.000268266 -1.33944e-28 9.06259e-53)
(0.00454854 0.00126012 1.18562e-27 0.000349958 3.27546e-28 3.98313e-52)
(0.00560249 0.00118836 1.3266e-28 0.000252595 2.85381e-29 4.11791e-54)
(0.00936731 0.00133225 9.37921e-29 0.000189962 1.34447e-29 1.31797e-54)
(0.00815541 -0.00240207 -8.47014e-27 0.000867686 2.29683e-27 1.14569e-50)
(0.0100305 -0.00417778 -6.78011e-29 0.00185858 3.08811e-29 5.67482e-55)
(0.0155425 -0.0128037 7.41321e-27 0.0136124 -9.1466e-27 6.59983e-51)
(0.0362574 0.0492166 2.4121e-26 0.110491 4.16264e-26 1.78798e-50)
(0.288508 -0.0495576 1.81789e-28 0.0163765 1.65346e-29 4.09109e-55)
(0.520178 -0.807692 -1.14433e-26 1.36114 9.81325e-26 6.18095e-50)
(0.634034 -0.826663 2.04189e-26 1.38475 3.84385e-26 1.47554e-50)
(0.469887 -0.713647 0 1.28412 0 0)
(0.301488 -0.707438 1.83275e-29 1.75862 2.16032e-29 5.48167e-56)
(0.172605 -0.575356 -3.43565e-27 2.06434 -2.21906e-26 7.99305e-51)
(0.0336406 -0.244109 1.91216e-27 1.7809 -1.48096e-26 6.5587e-51)
(0.00283633 -0.0423391 2.76135e-27 1.30794 -8.2989e-27 4.34594e-51)
(0.0020098 0.0321812 1.2065e-27 1.20235 -1.9087e-26 3.83196e-51)
(0.00417307 0.0426914 -1.85199e-27 0.951614 1.61179e-26 3.25148e-51)
(0.0048303 0.0331863 2.46274e-27 0.745414 -1.40612e-26 3.12729e-51)
(0.0050395 0.034437 -3.43602e-32 0.614487 4.35906e-33 5.22481e-61)
(0.00309436 0.0389309 -7.40777e-28 0.528789 -1.26244e-26 1.79508e-51)
(0.00210998 0.031004 -2.07404e-32 0.474198 -3.26243e-31 7.39057e-61)
(0.00221939 0.0300786 -2.51795e-32 0.427849 -3.46055e-31 9.75513e-61)