/*--------------------------------*- C++ -*----------------------------------*\
| =========                 |                                                 |
| \\      /  F ield         | OpenFOAM: The Open Source CFD Toolbox           |
|  \\    /   O peration     | Version:  v2012                                 |
|   \\  /    A nd           | Website:  www.openfoam.com                      |
|    \\/     M anipulation  |                                                 |
\*---------------------------------------------------------------------------*/
FoamFile
{
    version     2.0;
    format      ascii;
    class       volScalarField;
    location    "1e-06";
    object      yPlus;
}
// * * * * * * * * * * * * * * * * * * * * * * * * * * * * * * * * * * * * * //

dimensions      [0 0 0 0 0 0 0];


internalField   uniform 0;

boundaryField
{
    inlet
    {
        type            calculated;
        value           nonuniform List<scalar> 0();
    }
    outlet
    {
        type            calculated;
        value           nonuniform List<scalar> 0();
    }
    front
    {
        type            empty;
    }
    back
    {
        type            empty;
    }
    hub
    {
        type            calculated;
        value           nonuniform List<scalar> 
58
(
6.23265
6.22071
6.29923
6.31358
6.29944
6.38342
6.40586
6.4005
6.48155
6.507
6.50096
6.58353
6.61772
6.61796
6.68071
6.6776
6.62127
6.7532
7.15612
7.4356
7.51833
7.67303
7.90601
8.27104
8.62952
8.23179
7.63542
7.4808
7.27778
7.10302
6.92727
6.74666
6.45763
6.02822
5.57826
5.76819
5.82094
5.82389
5.81765
5.89136
5.87696
5.89739
5.86853
5.89976
5.97242
5.96063
5.97451
5.79268
5.96365
6.03724
5.97172
5.99957
6.03055
6.13648
6.28503
6.56035
6.63616
6.57931
)
;
    }
    tip
    {
        type            calculated;
        value           nonuniform List<scalar> 
73
(
70.4256
70.1586
70.1299
70.2192
70.0012
69.7207
69.9439
69.8014
69.3793
69.665
69.5578
69.1409
69.3717
69.3165
68.9605
69.0699
69.0843
68.7703
68.7733
68.8519
68.5599
68.4735
68.6294
68.3099
68.2122
68.3861
68.0629
67.9703
68.1502
67.798
67.7652
67.892
67.5265
67.5352
67.6124
67.219
67.3494
67.3728
66.9892
67.2723
67.2764
67.0551
67.4491
67.327
67.2581
67.6352
67.3366
67.544
67.7133
67.4306
67.818
67.7372
67.6565
68.0213
67.708
67.9747
68.0409
67.8268
68.2526
67.9688
68.1757
68.2958
68.0669
68.5016
68.1996
68.4591
68.5087
68.3729
68.7557
68.4255
68.8111
68.6425
68.8127
)
;
    }
    procBoundary2to0
    {
        type            processor;
        value           uniform 0;
    }
    procBoundary2to3
    {
        type            processor;
        value           uniform 0;
    }
}


// ************************************************************************* //
