/*--------------------------------*- C++ -*----------------------------------*\
| =========                 |                                                 |
| \\      /  F ield         | OpenFOAM: The Open Source CFD Toolbox           |
|  \\    /   O peration     | Version:  v2012                                 |
|   \\  /    A nd           | Website:  www.openfoam.com                      |
|    \\/     M anipulation  |                                                 |
\*---------------------------------------------------------------------------*/
FoamFile
{
    version     2.0;
    format      ascii;
    class       volScalarField;
    location    "1e-06";
    object      alpha.waterPrime2Mean;
}
// * * * * * * * * * * * * * * * * * * * * * * * * * * * * * * * * * * * * * //

dimensions      [0 0 0 0 0 0 0];


internalField   nonuniform List<scalar> 
10248
(
2.34823e-12
1.95444e-12
3.99955e-09
2.62926e-10
6.74187e-09
2.01829e-08
3.35135e-09
3.61145e-08
4.79951e-09
7.09296e-09
1.79313e-08
5.12706e-08
3.31088e-08
3.54307e-08
4.345e-08
4.68386e-08
2.02679e-08
2.52061e-08
1.25372e-09
3.36404e-08
8.01439e-09
6.17453e-09
5.0872e-09
9.20007e-10
7.27472e-09
1.47473e-08
6.52814e-09
3.32285e-08
1.37063e-08
1.83596e-09
1.40715e-08
9.19737e-10
2.95954e-10
4.54074e-10
3.04621e-09
3.12814e-08
2.30788e-09
1.50284e-08
4.73999e-12
2.58069e-09
2.5224e-09
2.56462e-14
9.65672e-13
-4.44089e-16
0
0
-1.11022e-16
0
2.22045e-16
0
4.44089e-16
-2.22045e-16
-1.11022e-16
-2.22045e-16
0
-2.22045e-16
-2.22045e-16
-1.11022e-16
0
0
2.22045e-16
1.11022e-16
1.11022e-16
0
-2.22045e-16
0
2.22045e-16
-1.11022e-16
2.22045e-16
-2.22045e-16
-2.22045e-16
0
2.92402e-09
4.73909e-09
5.47652e-09
9.731e-09
2.93274e-08
1.99174e-08
3.5666e-08
2.9199e-08
1.58615e-08
1.41071e-08
2.54847e-08
2.78071e-08
2.53317e-08
3.17746e-08
1.59251e-08
3.03523e-08
1.81287e-08
4.52898e-08
3.87246e-09
1.38004e-08
8.70602e-09
1.08928e-08
8.44797e-09
7.98857e-09
9.25486e-09
9.36599e-09
7.9284e-09
1.92194e-08
1.49851e-08
5.49705e-10
2.22802e-08
2.86821e-09
2.6005e-09
5.05024e-09
1.47703e-08
6.05463e-09
5.23906e-09
2.99571e-10
1.74067e-10
3.16592e-09
3.39404e-09
8.01888e-08
1.22363e-08
1.0631e-08
-4.44089e-16
0
2.22045e-16
3.33067e-16
1.11022e-16
2.22045e-16
3.33067e-16
0
0
4.44089e-16
4.44089e-16
0
2.22045e-16
0
0
0
1.11022e-16
2.22045e-16
0
0
-1.11022e-16
0
-1.11022e-16
0
2.22045e-16
-2.22045e-16
0
-2.22045e-16
2.60898e-09
3.57376e-10
5.59472e-09
2.75611e-09
2.96743e-08
3.80845e-09
1.50477e-08
4.98044e-09
3.02622e-09
8.5852e-09
1.29724e-08
1.75386e-09
1.95263e-09
3.05786e-10
1.15228e-09
6.59527e-11
1.23198e-09
7.66679e-10
2.24205e-12
1.44164e-09
1.51363e-11
4.65535e-11
1.46073e-09
3.22313e-10
1.03888e-10
3.67555e-09
6.76645e-11
1.35397e-09
2.02474e-09
1.87837e-08
8.19777e-09
1.43018e-09
2.39797e-10
2.03862e-09
7.66675e-10
1.08676e-10
5.3445e-09
4.22694e-10
5.17584e-10
1.26079e-09
7.85535e-11
4.21203e-07
1.26285e-07
9.21016e-08
1.12436e-10
0
2.22045e-16
2.22045e-16
2.22045e-16
-4.44089e-16
-2.22045e-16
2.22045e-16
3.33067e-16
2.22045e-16
-1.11022e-16
1.11022e-16
-2.22045e-16
2.22045e-16
2.22045e-16
0
1.11022e-16
-2.22045e-16
2.22045e-16
1.11022e-16
0
1.11022e-16
0
0
-1.11022e-16
-1.11022e-16
0
1.11022e-16
4.40376e-10
3.10128e-10
6.86896e-09
3.93149e-09
3.33587e-08
4.18793e-09
1.76936e-08
2.48894e-09
4.58198e-09
1.45914e-08
9.73866e-09
1.25671e-09
2.1782e-09
3.66464e-10
1.20694e-09
2.50147e-12
1.23079e-09
1.14885e-09
1.98552e-10
1.94002e-09
5.54364e-10
2.2523e-11
2.66676e-09
1.79396e-09
6.99713e-12
3.6236e-09
1.6387e-10
2.05108e-09
1.66919e-09
1.51502e-08
1.48085e-08
5.43375e-11
3.58445e-10
6.05077e-09
1.05523e-08
9.55954e-10
1.71804e-08
8.11288e-09
1.53766e-09
6.46695e-09
9.99665e-10
1.83492e-07
1.26271e-07
9.28356e-08
1.06843e-10
0
0
2.22045e-16
-2.22045e-16
-1.11022e-16
2.22045e-16
0
2.22045e-16
4.44089e-16
-2.22045e-16
-2.22045e-16
0
-4.44089e-16
1.11022e-16
-1.11022e-16
0
-1.11022e-16
-1.11022e-16
-2.22045e-16
0
-2.22045e-16
0
0
0
0
-2.22045e-16
-4.44089e-16
3.73822e-09
2.32768e-09
1.41741e-08
4.2209e-09
4.77963e-08
1.52218e-09
1.10045e-08
6.15397e-09
4.46826e-10
1.74261e-09
9.38995e-10
6.96017e-10
1.26886e-09
3.85926e-10
1.13902e-09
7.60081e-12
8.97664e-10
4.56511e-10
7.17895e-11
1.40372e-09
4.33006e-10
1.46323e-10
1.76076e-09
4.80054e-10
4.06514e-10
4.28067e-09
2.50462e-11
5.66245e-09
1.56348e-09
4.58559e-09
2.71678e-09
9.61323e-10
2.0141e-09
1.20302e-09
3.89101e-09
3.80689e-09
1.7695e-08
9.94372e-09
1.74064e-09
9.87503e-09
1.80539e-09
1.43137e-07
1.79306e-07
1.43429e-07
9.08426e-11
-2.22045e-16
0
-4.44089e-16
-2.22045e-16
0
-1.11022e-16
0
-1.11022e-16
0
0
1.11022e-16
0
2.22045e-16
0
-2.22045e-16
-2.22045e-16
0
0
0
-2.22045e-16
1.11022e-16
0
2.22045e-16
0
-2.22045e-16
0
-3.33067e-16
2.9421e-10
9.94365e-11
1.70822e-08
4.27148e-10
3.87479e-08
4.30154e-10
8.95608e-09
1.07801e-08
1.99718e-10
2.86708e-09
1.16487e-09
6.72108e-10
1.00026e-09
4.92982e-10
7.69219e-10
2.00097e-11
1.18859e-09
5.01386e-10
3.22946e-10
1.96772e-09
4.98641e-10
3.32206e-10
2.67577e-09
6.66286e-10
9.4129e-10
4.15794e-09
4.21758e-10
6.51084e-09
9.16914e-10
2.46521e-09
6.03246e-09
5.56648e-10
3.46406e-10
3.59105e-09
3.3164e-09
4.37729e-09
1.5268e-08
3.97119e-09
3.90399e-09
1.03149e-08
6.8183e-10
1.59146e-07
1.25275e-07
9.8848e-08
7.13816e-11
0
-1.11022e-16
0
0
-4.44089e-16
0
2.22045e-16
0
-1.11022e-16
-2.22045e-16
0
2.22045e-16
-1.11022e-16
2.22045e-16
0
1.11022e-16
0
0
-1.11022e-16
1.11022e-16
0
1.11022e-16
2.22045e-16
2.22045e-16
0
0
0
6.96286e-11
5.91338e-12
1.53418e-08
4.59927e-09
5.74468e-08
1.36837e-09
1.56712e-08
6.8152e-09
1.19791e-09
6.7531e-09
6.247e-10
7.01491e-10
9.97421e-10
5.4957e-10
6.73019e-10
1.69386e-11
1.20695e-09
4.88604e-10
2.92444e-10
2.00568e-09
4.25702e-10
2.97925e-10
2.5506e-09
5.44132e-10
4.67735e-10
2.88438e-09
6.28004e-10
6.81987e-09
6.35979e-10
3.82071e-09
7.41255e-09
5.27543e-10
3.46976e-10
3.99863e-09
2.36509e-09
5.25919e-09
1.21052e-08
1.73507e-09
3.59644e-09
5.74743e-09
1.06156e-10
1.67967e-07
1.25597e-07
9.85736e-08
7.10992e-11
0
3.33067e-16
-2.22045e-16
0
-4.44089e-16
-2.22045e-16
0
-1.11022e-16
-2.22045e-16
0
2.22045e-16
0
2.22045e-16
-2.22045e-16
0
-1.11022e-16
0
-2.22045e-16
1.11022e-16
-1.11022e-16
0
0
1.11022e-16
0
0
0
1.11022e-16
2.97851e-12
6.62803e-14
2.42207e-08
1.61967e-09
2.61012e-08
6.33935e-10
3.88857e-09
3.94907e-09
2.42459e-13
5.16789e-10
3.46912e-10
6.59153e-10
7.54861e-10
7.23971e-10
6.71285e-10
1.9344e-11
1.52387e-09
5.53369e-10
2.16519e-10
2.56992e-09
6.29373e-10
3.54899e-10
3.25015e-09
7.50944e-10
1.04024e-09
5.82126e-09
3.97729e-10
9.4307e-09
1.49783e-09
3.33706e-09
7.8827e-09
1.06654e-09
1.64819e-09
9.90814e-09
3.51497e-09
4.08851e-09
1.62424e-08
3.05865e-09
3.50063e-09
1.00318e-08
2.14086e-10
2.13201e-07
5.34221e-08
4.20613e-08
2.70861e-11
0
2.22045e-16
-2.22045e-16
0
0
2.22045e-16
0
0
2.22045e-16
3.33067e-16
-1.11022e-16
-2.22045e-16
-3.33067e-16
2.22045e-16
-3.33067e-16
0
-2.22045e-16
2.22045e-16
-1.11022e-16
2.22045e-16
-2.22045e-16
-2.22045e-16
-1.11022e-16
0
1.11022e-16
2.22045e-16
0
2.00492e-10
1.24891e-10
2.26765e-08
3.8595e-09
6.25738e-08
3.81284e-10
1.39108e-08
4.04878e-09
8.67941e-10
2.65488e-09
5.08183e-10
7.62433e-10
7.61724e-10
7.30376e-10
5.85013e-10
6.24917e-14
1.28747e-09
4.76569e-10
7.36346e-11
2.1355e-09
5.19806e-10
9.18026e-11
2.55543e-09
6.03812e-10
3.5508e-10
4.0579e-09
3.78417e-10
8.705e-09
1.36907e-09
3.0224e-09
8.86324e-09
1.55708e-09
5.02997e-10
8.32765e-09
2.43757e-09
2.63917e-09
1.1787e-08
1.55781e-09
2.30697e-09
6.5533e-09
2.08201e-10
2.84789e-07
5.27097e-08
4.14113e-08
3.11846e-11
-2.22045e-16
0
0
-2.22045e-16
4.44089e-16
-4.44089e-16
0
0
0
-1.11022e-16
4.44089e-16
-3.33067e-16
4.44089e-16
0
0
2.22045e-16
0
1.11022e-16
4.44089e-16
-2.22045e-16
1.11022e-16
-2.22045e-16
2.22045e-16
-2.22045e-16
-2.22045e-16
0
2.22045e-16
9.45291e-11
1.02868e-09
3.70944e-08
5.74139e-09
1.54085e-08
1.26439e-09
2.90515e-09
1.21654e-09
1.3329e-10
6.68265e-10
3.61088e-10
1.03631e-09
8.41084e-10
1.1173e-09
9.88449e-10
1.22912e-11
2.14227e-09
1.1342e-09
5.09576e-11
3.86164e-09
1.38767e-09
2.60486e-11
5.79062e-09
1.93021e-09
1.61324e-11
1.1399e-08
5.05238e-10
1.54e-08
6.49246e-09
2.65807e-10
1.69353e-08
6.9948e-09
8.87912e-12
3.09783e-08
1.84866e-08
8.53626e-11
3.92476e-08
1.85071e-08
6.50873e-11
2.1818e-08
4.4624e-09
1.70625e-07
1.28945e-08
9.58697e-09
2.06313e-12
2.22045e-16
1.11022e-16
0
2.22045e-16
-3.33067e-16
0
0
1.11022e-16
-4.44089e-16
6.66134e-16
2.22045e-16
0
0
0
1.11022e-16
0
1.11022e-16
-2.22045e-16
-2.22045e-16
2.22045e-16
-2.22045e-16
-2.22045e-16
1.11022e-16
1.11022e-16
4.44089e-16
4.44089e-16
-1.11022e-16
1.08535e-12
9.74805e-10
3.44953e-08
2.1924e-09
3.79873e-08
2.82619e-10
7.16952e-09
1.92273e-09
4.01407e-10
1.37624e-09
1.93183e-10
9.39673e-10
5.63917e-10
8.91852e-10
7.94528e-10
3.21699e-11
2.13469e-09
9.53686e-10
4.01897e-10
3.82699e-09
1.35487e-09
6.47559e-10
5.72575e-09
1.64967e-09
1.19363e-09
1.05406e-08
2.20848e-11
1.47529e-08
4.94451e-09
2.60049e-09
1.56458e-08
7.62177e-09
2.56173e-09
2.17331e-08
9.31928e-09
1.76038e-09
2.04053e-08
6.34975e-09
8.61605e-10
8.28336e-09
3.51199e-10
9.19129e-08
1.84528e-09
1.26287e-09
9.19265e-14
-1.11022e-16
-1.11022e-16
-2.22045e-16
0
0
0
0
0
-2.22045e-16
1.11022e-16
0
0
4.44089e-16
-1.11022e-16
-2.22045e-16
0
1.11022e-16
1.11022e-16
2.22045e-16
-2.22045e-16
0
1.11022e-16
0
4.44089e-16
-2.22045e-16
-1.11022e-16
-1.11022e-16
4.90401e-10
1.91296e-09
3.0911e-08
3.5202e-09
2.9473e-08
6.51193e-10
8.3237e-09
1.11294e-09
3.49713e-10
1.26961e-09
2.28637e-10
7.11641e-10
3.71427e-10
7.66977e-10
5.3542e-10
1.28206e-11
1.39436e-09
6.00421e-10
3.16318e-10
2.2061e-09
5.06334e-10
4.53707e-10
2.67811e-09
3.74757e-10
9.53821e-10
4.32581e-09
3.26864e-10
6.81784e-09
1.09844e-09
4.21886e-09
6.17568e-09
8.81585e-10
3.59551e-09
6.94284e-09
6.95897e-10
3.04451e-09
6.67332e-09
3.97919e-10
1.39578e-09
3.17421e-09
1.17897e-09
6.62449e-08
1.72531e-09
1.22341e-09
1.15019e-13
0
2.22045e-16
-2.22045e-16
0
0
0
0
2.22045e-16
4.44089e-16
2.22045e-16
2.22045e-16
0
2.22045e-16
-4.44089e-16
0
2.22045e-16
-1.11022e-16
2.22045e-16
2.22045e-16
2.22045e-16
2.22045e-16
0
6.66134e-16
0
-4.44089e-16
4.44089e-16
2.22045e-16
2.12966e-11
1.71163e-09
3.01578e-08
1.47098e-08
1.52319e-08
2.18764e-09
4.59961e-09
1.20919e-09
2.72706e-10
1.10285e-09
1.7854e-10
1.01756e-09
3.39309e-10
1.19657e-09
1.01052e-09
5.5461e-11
2.7017e-09
1.31274e-09
5.20701e-10
5.25128e-09
2.01478e-09
8.66388e-10
9.24906e-09
3.19615e-09
1.0181e-09
1.75686e-08
1.98011e-10
2.05932e-08
9.00889e-09
1.62545e-09
2.21942e-08
1.11468e-08
1.13703e-09
2.4346e-08
1.16705e-08
7.03064e-10
1.59833e-08
5.38957e-09
3.76409e-10
5.01957e-09
8.85239e-10
3.16061e-08
3.56794e-10
2.09055e-10
4.10783e-15
0
0
-3.33067e-16
6.66134e-16
2.22045e-16
-2.22045e-16
2.22045e-16
1.11022e-16
0
1.11022e-16
4.44089e-16
0
1.11022e-16
-1.11022e-16
0
0
2.22045e-16
2.22045e-16
0
0
-2.22045e-16
1.11022e-16
2.22045e-16
-2.22045e-16
2.22045e-16
0
1.11022e-16
4.80695e-10
2.53277e-09
2.77585e-08
9.93115e-09
2.00143e-08
1.93487e-09
4.63152e-09
4.17507e-10
2.16125e-10
9.50015e-10
1.4626e-10
6.33719e-10
1.3337e-10
7.89961e-10
4.65264e-10
7.27367e-11
1.36744e-09
5.17499e-10
7.78091e-10
2.10821e-09
2.98793e-10
1.03751e-09
2.59312e-09
1.26909e-10
1.64126e-09
3.89879e-09
1.04128e-09
6.55274e-09
5.03736e-10
5.34782e-09
5.52664e-09
2.94705e-10
3.76081e-09
5.7144e-09
3.72311e-10
2.11769e-09
4.70477e-09
3.09693e-10
9.63047e-10
2.62776e-09
2.06106e-09
2.55758e-08
3.6042e-10
2.13166e-10
5.66214e-15
2.22045e-16
2.22045e-16
-2.22045e-16
-2.22045e-16
-2.22045e-16
0
2.22045e-16
0
-1.11022e-16
-1.11022e-16
0
0
0
2.22045e-16
0
0
0
0
1.11022e-16
0
-2.22045e-16
-2.22045e-16
0
0
2.22045e-16
2.22045e-16
-2.22045e-16
3.24191e-11
2.43488e-09
3.0584e-08
1.83646e-08
1.61196e-08
2.70937e-09
3.74919e-09
5.26153e-10
2.91429e-10
9.72975e-10
1.08043e-10
1.36844e-09
2.95113e-10
1.52578e-09
1.2598e-09
1.23487e-10
3.70996e-09
1.97536e-09
7.51653e-10
8.0466e-09
3.62726e-09
1.20054e-09
1.58745e-08
6.71509e-09
7.21654e-10
2.88209e-08
2.03376e-09
2.8066e-08
1.64691e-08
2.24911e-10
2.46876e-08
1.39676e-08
3.6306e-10
1.94691e-08
9.17948e-09
3.29369e-10
1.06029e-08
3.4531e-09
1.73227e-10
3.44323e-09
1.32251e-09
1.48172e-08
1.30163e-10
7.00311e-11
1.11022e-15
0
0
-2.22045e-16
2.22045e-16
0
1.11022e-16
3.33067e-16
-1.11022e-16
0
4.44089e-16
2.22045e-16
0
-1.11022e-16
0
-1.11022e-16
0
2.22045e-16
0
0
2.22045e-16
1.11022e-16
-2.22045e-16
1.11022e-16
0
-1.11022e-16
3.33067e-16
2.22045e-16
3.47599e-10
2.52565e-09
2.54855e-08
1.61971e-08
1.7233e-08
2.63854e-09
3.89249e-09
1.09632e-10
1.60234e-10
6.51107e-10
3.86185e-11
5.98036e-10
2.68507e-11
7.97539e-10
3.5815e-10
2.78586e-10
1.3836e-09
3.99711e-10
1.83557e-09
2.15857e-09
1.23608e-10
2.41356e-09
2.75593e-09
4.26537e-12
2.84021e-09
3.84694e-09
1.67963e-09
6.14491e-09
2.40065e-10
4.1626e-09
4.87909e-09
2.54158e-10
2.39919e-09
4.71161e-09
3.91798e-10
1.15806e-09
3.57465e-09
3.59263e-10
4.688e-10
2.02304e-09
2.5893e-09
1.20272e-08
1.34022e-10
7.09905e-11
-2.22045e-16
0
-2.22045e-16
2.22045e-16
-2.22045e-16
-2.22045e-16
1.11022e-16
3.33067e-16
0
0
1.11022e-16
0
3.33067e-16
3.33067e-16
0
0
0
0
-2.22045e-16
2.22045e-16
4.44089e-16
-1.11022e-16
2.22045e-16
2.22045e-16
-2.22045e-16
0
2.22045e-16
2.22045e-16
1.52961e-11
2.69662e-09
2.84141e-08
2.00344e-08
1.68352e-08
2.6605e-09
4.56246e-09
1.76441e-10
6.08514e-10
8.84436e-10
5.30939e-11
2.02447e-09
5.7103e-10
1.68029e-09
1.7892e-09
2.67824e-10
5.46071e-09
3.32855e-09
1.16578e-09
1.23676e-08
6.55478e-09
1.66163e-09
2.39875e-08
1.18119e-08
4.51003e-10
3.62133e-08
4.82907e-09
2.72757e-08
1.83285e-08
7.3519e-13
1.83354e-08
1.07356e-08
2.45084e-10
1.15466e-08
4.59948e-09
3.90847e-10
5.58551e-09
1.23522e-09
2.55245e-10
1.85951e-09
2.59154e-09
9.26892e-09
8.26814e-11
4.35189e-11
-2.22045e-16
0
0
-2.22045e-16
2.22045e-16
0
2.22045e-16
0
3.33067e-16
-2.22045e-16
4.44089e-16
-4.44089e-16
2.22045e-16
0
2.22045e-16
0
2.22045e-16
4.44089e-16
2.22045e-16
2.22045e-16
-4.44089e-16
2.22045e-16
2.22045e-16
1.11022e-16
0
-1.11022e-16
4.44089e-16
-2.22045e-16
7.0409e-10
5.19313e-10
3.55571e-08
9.44388e-09
2.3576e-08
2.47481e-09
3.74693e-09
8.95936e-13
1.16224e-10
2.58375e-10
9.26041e-12
4.16318e-10
2.28645e-11
6.69322e-10
9.24872e-11
1.54316e-09
1.02181e-09
3.08331e-11
5.38094e-09
1.25557e-09
1.4221e-10
8.69475e-09
1.1299e-09
7.57651e-10
1.07478e-08
9.70346e-10
5.48688e-09
1.67288e-09
7.38688e-10
8.25891e-09
9.4146e-10
5.10106e-10
5.48232e-09
7.79322e-10
5.86754e-10
3.57581e-09
3.63813e-10
5.62061e-10
1.81594e-09
1.31039e-11
8.86466e-09
7.89317e-09
8.52592e-11
4.33809e-11
1.11022e-16
-4.44089e-16
-2.22045e-16
-4.44089e-16
-1.11022e-16
0
4.44089e-16
-1.11022e-16
3.33067e-16
3.33067e-16
2.22045e-16
-1.11022e-16
1.11022e-16
2.22045e-16
-2.22045e-16
-1.11022e-16
-2.22045e-16
2.22045e-16
1.11022e-16
-2.22045e-16
-2.22045e-16
2.22045e-16
-2.22045e-16
2.22045e-16
-4.44089e-16
-4.44089e-16
0
-1.11022e-16
2.46353e-10
2.66466e-09
2.30813e-08
1.99005e-08
1.58796e-08
2.80218e-09
3.62666e-09
2.61236e-10
2.26976e-10
1.92858e-10
7.08809e-11
4.63842e-10
4.46436e-11
1.49564e-09
1.55018e-10
5.43613e-10
2.07618e-09
5.27103e-12
7.94451e-10
2.16946e-09
1.56647e-10
1.01016e-09
1.80848e-09
3.561e-10
6.96717e-10
1.60402e-09
2.66614e-09
7.5081e-09
3.00719e-11
2.32451e-09
4.35391e-09
1.56526e-10
1.27315e-09
3.04249e-09
1.97118e-10
1.28667e-09
2.53432e-09
2.14965e-10
4.27424e-10
1.10795e-09
2.74623e-09
8.66495e-09
9.0088e-11
4.39601e-11
-1.11022e-16
-4.44089e-16
1.11022e-16
0
4.44089e-16
-3.33067e-16
0
0
-2.22045e-16
2.22045e-16
-3.33067e-16
0
-2.22045e-16
0
2.22045e-16
1.11022e-16
2.22045e-16
-1.11022e-16
-4.44089e-16
0
1.11022e-16
1.11022e-16
2.22045e-16
2.22045e-16
2.22045e-16
0
0
2.22045e-16
1.09932e-10
2.86875e-09
2.56301e-08
1.72609e-08
1.78235e-08
1.8244e-09
4.7536e-09
4.6227e-10
1.53885e-09
1.49384e-09
1.79065e-10
4.15256e-09
7.8246e-10
5.047e-09
3.51356e-09
1.0855e-10
1.12065e-08
5.79371e-09
7.08719e-10
2.21383e-08
9.5697e-09
2.31363e-10
3.39005e-08
1.40191e-08
2.67933e-10
3.58377e-08
6.5306e-09
2.29197e-08
1.62662e-08
5.06188e-10
1.25461e-08
7.17706e-09
5.18274e-12
7.15847e-09
2.4057e-09
2.62207e-10
3.76118e-09
8.04191e-10
1.7659e-10
1.7496e-09
1.98655e-09
9.26997e-09
1.26689e-10
6.74031e-11
1.44329e-15
-2.22045e-16
4.44089e-16
0
-2.22045e-16
1.11022e-16
0
-3.33067e-16
0
-2.22045e-16
0
-1.11022e-16
3.33067e-16
0
4.44089e-16
-1.11022e-16
0
0
0
1.11022e-16
2.22045e-16
0
-4.44089e-16
-2.22045e-16
0
0
-1.11022e-16
4.44089e-16
1.09337e-09
5.12168e-09
2.43991e-08
2.09903e-08
1.52445e-08
2.95638e-09
3.97532e-09
2.03523e-11
2.76775e-10
1.44908e-10
7.49877e-12
8.32106e-10
9.53373e-11
2.02932e-09
2.39765e-10
1.31119e-09
2.85075e-09
3.99165e-11
3.41416e-09
3.05007e-09
1.43237e-10
3.08616e-09
2.66965e-09
3.49701e-10
1.02169e-09
2.57359e-09
9.78922e-10
5.31273e-09
5.52039e-10
3.83789e-10
3.64059e-09
8.55014e-10
5.83517e-10
3.90023e-09
7.93775e-10
4.95816e-10
3.14843e-09
6.41949e-10
1.69361e-10
1.8094e-09
1.43256e-09
1.01948e-08
1.36158e-10
6.87835e-11
1.11022e-15
0
-1.11022e-16
-2.22045e-16
-2.22045e-16
-2.22045e-16
-2.22045e-16
0
2.22045e-16
2.22045e-16
2.22045e-16
-2.22045e-16
0
0
0
0
1.11022e-16
2.22045e-16
0
0
0
0
0
0
1.11022e-16
0
1.11022e-16
-1.11022e-16
1.12898e-09
3.62711e-09
1.93563e-08
1.3556e-08
2.21245e-08
8.61549e-10
7.91932e-09
9.60668e-10
3.44104e-09
3.1772e-09
4.07792e-10
8.38233e-09
1.7569e-09
8.87686e-09
7.18018e-09
8.16291e-14
1.81176e-08
1.08911e-08
7.69918e-11
2.99127e-08
1.4978e-08
1.80085e-11
3.53024e-08
1.66781e-08
1.09374e-09
2.73338e-08
7.74412e-09
1.52169e-08
1.20004e-08
8.59639e-10
7.36802e-09
4.13983e-09
1.19618e-11
4.40389e-09
1.20927e-09
3.31145e-10
2.81265e-09
4.02811e-10
2.3816e-10
1.84522e-09
1.23345e-09
1.79513e-08
5.38478e-10
3.57285e-10
5.4956e-14
0
-2.22045e-16
-2.22045e-16
0
0
0
2.22045e-16
-4.44089e-16
0
1.11022e-16
0
0
2.22045e-16
0
6.66134e-16
2.22045e-16
0
-2.22045e-16
0
0
0
-2.22045e-16
0
-3.33067e-16
0
1.11022e-16
-2.22045e-16
6.44472e-09
1.23823e-08
3.04272e-08
1.76736e-08
1.82573e-08
3.67202e-09
4.87624e-09
7.49799e-11
3.16335e-10
1.27561e-10
3.19128e-10
1.29922e-09
1.32103e-10
2.00949e-09
2.17561e-10
2.25694e-09
3.14819e-09
2.38502e-11
5.38401e-09
3.35872e-09
1.43259e-10
3.76349e-09
2.90039e-09
1.16327e-10
5.72468e-10
2.68011e-09
3.13918e-11
3.69623e-09
1.00323e-09
5.26168e-12
3.45705e-09
1.30866e-09
1.35737e-10
3.70537e-09
8.94306e-10
2.39885e-10
3.43744e-09
6.30995e-10
1.21627e-10
2.23324e-09
6.32674e-10
1.77948e-08
6.15846e-10
3.76296e-10
3.40838e-14
-4.44089e-16
-1.11022e-16
1.11022e-16
-1.11022e-16
-1.11022e-16
3.33067e-16
0
0
0
-2.22045e-16
2.22045e-16
-2.22045e-16
1.11022e-16
-2.22045e-16
0
2.22045e-16
0
0
0
-2.22045e-16
-4.44089e-16
-1.11022e-16
2.22045e-16
0
0
-4.44089e-16
-4.44089e-16
5.53163e-09
7.08463e-09
1.29107e-09
1.12195e-09
2.86528e-08
5.11347e-12
1.79729e-08
1.58357e-09
6.65338e-09
6.36213e-09
5.86251e-10
1.3784e-08
3.3409e-09
1.17359e-08
1.14095e-08
2.56924e-11
2.23137e-08
1.56904e-08
2.05364e-12
2.93684e-08
1.69118e-08
1.19307e-10
2.54733e-08
1.35303e-08
1.26843e-09
1.41309e-08
5.20061e-09
7.35954e-09
5.38084e-09
4.09528e-10
3.625e-09
1.47837e-09
8.30502e-12
1.79295e-09
2.076e-10
2.94165e-10
1.32202e-09
3.2134e-11
3.1154e-10
1.19869e-09
6.96819e-10
4.28393e-08
3.50759e-09
2.46246e-09
4.54348e-12
1.11022e-16
-4.44089e-16
-1.11022e-16
-2.22045e-16
2.22045e-16
0
2.22045e-16
-1.11022e-16
2.22045e-16
2.22045e-16
0
0
0
-2.22045e-16
2.22045e-16
2.22045e-16
-2.22045e-16
2.22045e-16
2.22045e-16
2.22045e-16
-4.44089e-16
3.33067e-16
0
-4.44089e-16
0
0
-4.44089e-16
1.20569e-09
2.10535e-10
1.05114e-08
1.03392e-08
2.68974e-08
5.44863e-09
5.21684e-09
1.01332e-09
2.13975e-10
1.13376e-10
1.17364e-09
6.22493e-10
2.63687e-10
6.71086e-10
1.10816e-10
6.23697e-09
1.26523e-09
1.07599e-09
8.3126e-09
7.19082e-10
1.53609e-09
6.16438e-09
4.03437e-10
5.79845e-10
1.70719e-09
2.46342e-10
1.78996e-10
6.07594e-10
4.83424e-12
2.32934e-10
5.1758e-10
5.83678e-12
8.42731e-10
5.36258e-10
8.02381e-11
1.61699e-09
3.97674e-10
2.42484e-10
1.67594e-09
1.50275e-10
1.86938e-09
4.41313e-08
3.77345e-09
2.57105e-09
2.14595e-12
2.22045e-16
-2.22045e-16
2.22045e-16
-1.11022e-16
2.22045e-16
2.22045e-16
4.44089e-16
-2.22045e-16
-3.33067e-16
0
0
2.22045e-16
0
2.22045e-16
-1.11022e-16
3.33067e-16
0
1.11022e-16
0
0
0
-4.44089e-16
-1.11022e-16
4.44089e-16
-2.22045e-16
3.33067e-16
-2.22045e-16
2.50327e-08
2.90533e-08
4.8907e-08
7.91644e-09
3.46079e-08
3.78063e-09
7.57075e-09
7.40322e-12
2.16529e-10
8.22896e-11
1.67233e-10
1.06215e-09
6.68664e-10
3.50209e-09
4.55622e-11
2.56214e-09
3.85227e-09
1.09642e-11
4.02453e-09
3.00095e-09
1.66514e-10
1.48516e-09
1.82293e-09
5.48916e-12
1.70719e-11
1.70331e-09
1.96727e-10
2.36953e-09
1.31733e-09
1.66713e-10
2.49114e-09
1.21015e-09
6.42564e-12
2.84628e-09
7.68648e-10
1.96706e-10
2.61485e-09
4.71719e-10
2.27316e-10
1.86562e-09
7.40965e-11
4.07227e-08
4.70672e-09
3.03627e-09
4.55169e-12
4.44089e-16
0
0
0
-4.44089e-16
2.22045e-16
2.22045e-16
-2.22045e-16
2.22045e-16
-2.22045e-16
0
0
1.11022e-16
-2.22045e-16
0
-1.11022e-16
4.44089e-16
-1.11022e-16
0
1.11022e-16
-2.22045e-16
-1.11022e-16
0
0
4.44089e-16
0
2.22045e-16
2.71139e-08
2.78968e-08
2.80213e-09
1.10842e-10
3.11133e-08
6.19145e-10
2.50552e-08
8.15581e-09
1.25397e-08
1.09361e-08
2.59203e-09
1.51298e-08
4.64935e-09
1.5923e-08
1.31159e-08
4.61151e-10
2.07857e-08
1.13332e-08
6.33762e-10
1.91258e-08
7.91213e-09
8.44972e-10
1.16477e-08
4.82832e-09
1.29796e-09
5.0912e-09
1.66115e-09
3.15126e-09
2.40731e-09
5.65401e-10
1.60789e-09
9.15956e-10
3.95461e-13
1.09647e-09
2.63053e-10
2.59694e-10
9.39476e-10
7.31352e-11
3.64762e-10
1.16254e-09
2.72341e-11
4.14788e-08
2.12513e-08
1.55097e-08
5.6999e-11
0
0
0
-2.22045e-16
0
0
2.22045e-16
2.22045e-16
1.11022e-16
0
-2.22045e-16
0
4.44089e-16
2.22045e-16
3.33067e-16
0
-6.66134e-16
1.11022e-16
3.33067e-16
-2.22045e-16
-4.44089e-16
0
4.44089e-16
-2.22045e-16
3.33067e-16
-1.11022e-16
-4.44089e-16
9.00148e-08
8.66835e-08
4.07212e-08
1.25829e-09
5.76335e-08
4.87983e-09
1.93799e-08
7.93755e-10
1.32998e-10
2.48012e-10
3.81361e-10
1.39744e-09
4.01143e-10
2.29265e-09
3.42051e-11
2.05543e-09
2.59592e-09
1.1981e-10
1.74074e-09
2.02303e-09
1.19404e-10
7.37534e-10
2.24874e-09
1.6876e-10
6.58646e-11
2.54995e-09
8.26255e-10
2.6227e-09
2.06486e-09
7.86851e-10
3.38078e-09
1.92642e-09
1.41718e-10
3.64627e-09
1.25642e-09
2.6331e-11
3.75592e-09
7.57185e-10
9.83685e-11
3.14242e-09
2.66494e-10
1.56486e-08
2.17422e-08
1.65181e-08
4.30872e-11
-1.11022e-16
2.22045e-16
0
0
3.33067e-16
1.11022e-16
0
-1.11022e-16
0
0
4.44089e-16
2.22045e-16
-2.22045e-16
0
-2.22045e-16
-2.22045e-16
-1.11022e-16
-2.22045e-16
-1.11022e-16
1.11022e-16
0
1.11022e-16
-1.11022e-16
0
-2.22045e-16
0
1.11022e-16
5.2112e-08
6.20493e-08
8.22202e-09
1.54429e-08
3.44908e-08
4.35092e-09
3.95708e-08
1.44416e-08
1.53651e-08
2.18296e-08
3.97471e-09
1.33819e-08
4.5919e-09
1.13054e-08
8.73742e-09
2.71732e-11
1.05564e-08
4.79263e-09
1.88801e-10
6.51201e-09
1.58504e-09
3.98777e-11
3.05538e-09
4.93186e-10
5.83622e-10
9.17302e-10
4.05796e-10
1.30253e-09
6.28729e-10
2.32282e-10
9.31932e-10
2.27485e-10
1.07553e-11
6.40207e-10
1.95599e-12
3.74213e-10
5.92809e-10
4.33344e-11
6.25341e-10
9.3107e-10
7.65865e-11
1.03802e-08
8.04419e-08
7.67043e-08
1.53722e-09
2.35123e-12
1.16962e-12
0
1.11022e-16
2.22045e-16
0
2.22045e-16
1.11022e-16
0
0
-3.33067e-16
-1.11022e-16
0
0
2.22045e-16
1.11022e-16
-2.22045e-16
-1.11022e-16
-4.44089e-16
0
-1.11022e-16
-2.22045e-16
-2.22045e-16
-1.11022e-16
-6.66134e-16
0
4.44089e-16
8.8669e-09
2.7873e-09
2.36364e-08
8.97781e-09
2.95545e-09
1.22905e-08
1.16221e-09
1.47519e-10
1.66853e-09
2.01975e-10
1.13134e-09
1.57537e-11
1.07017e-09
4.73089e-10
3.74524e-10
3.89729e-09
4.62902e-10
9.84378e-10
3.25061e-09
2.64108e-10
7.02639e-10
1.3325e-09
1.28304e-10
1.05973e-10
1.3024e-12
6.77894e-11
5.11085e-11
3.83539e-10
9.45942e-11
7.73922e-11
3.61205e-10
5.55594e-11
1.4755e-10
4.58772e-10
7.60203e-12
9.97927e-10
4.80108e-10
1.26443e-10
1.74142e-09
3.38506e-10
4.43077e-10
8.67827e-09
8.12066e-08
8.18394e-08
1.04673e-09
2.18203e-12
1.07625e-12
0
0
2.22045e-16
4.44089e-16
0
0
0
4.44089e-16
0
0
1.11022e-16
0
-4.44089e-16
-1.11022e-16
-2.22045e-16
-1.11022e-16
-2.22045e-16
0
2.22045e-16
-1.11022e-16
-2.22045e-16
1.11022e-16
0
2.22045e-16
0
2.38727e-07
2.64964e-07
4.91456e-08
3.86562e-08
8.48011e-08
4.07309e-09
3.14762e-08
7.02984e-09
6.93923e-11
2.3979e-09
8.07833e-11
6.76423e-10
3.50101e-11
1.24228e-09
1.02055e-10
2.09683e-09
1.76414e-09
2.16327e-12
2.46265e-09
1.85108e-09
1.85039e-11
4.96438e-10
1.92403e-09
3.51679e-10
2.01339e-10
2.33362e-09
1.25127e-09
2.26969e-09
2.2251e-09
1.18417e-09
2.6919e-09
1.55837e-09
2.64786e-10
2.91004e-09
9.22275e-10
2.4758e-13
2.69532e-09
5.27243e-10
1.45367e-10
2.74029e-09
3.43157e-10
1.24339e-09
8.49563e-08
9.86043e-08
2.71976e-09
2.498e-12
1.0254e-12
0
-2.22045e-16
0
2.22045e-16
-1.11022e-16
-1.11022e-16
0
-2.22045e-16
0
-2.22045e-16
-2.22045e-16
-2.22045e-16
2.22045e-16
0
0
-2.22045e-16
-2.22045e-16
0
0
2.22045e-16
1.11022e-16
2.22045e-16
2.22045e-16
2.22045e-16
0
1.71458e-08
4.93759e-08
1.16382e-10
6.04618e-08
5.55786e-08
2.56581e-08
4.14128e-08
1.18121e-08
1.1633e-08
3.01151e-08
4.33869e-09
6.6497e-09
3.28823e-09
2.87012e-09
2.36492e-09
4.46585e-10
2.22296e-09
1.69083e-10
1.05018e-09
9.41059e-10
2.30791e-11
1.11602e-10
1.01363e-10
7.51899e-12
9.77369e-11
3.28342e-11
6.91522e-11
3.07923e-10
8.74377e-11
7.08394e-11
3.00212e-10
6.87747e-11
3.1106e-11
1.31071e-10
4.42546e-12
4.89648e-10
9.8994e-11
1.01692e-10
9.98896e-10
3.2694e-10
7.41412e-11
8.96737e-10
1.30866e-07
3.76408e-07
2.81879e-08
4.65632e-10
2.489e-10
-2.22045e-16
-2.22045e-16
0
-2.22045e-16
0
-2.22045e-16
2.22045e-16
-1.11022e-16
1.11022e-16
2.22045e-16
2.22045e-16
-4.44089e-16
2.22045e-16
0
4.44089e-16
3.33067e-16
4.44089e-16
3.33067e-16
2.22045e-16
4.44089e-16
0
-1.11022e-16
2.22045e-16
-3.33067e-16
2.22045e-16
2.07341e-08
2.38475e-08
3.93336e-08
1.13051e-08
7.35801e-10
7.3263e-09
9.80988e-10
7.2394e-10
6.93601e-09
9.37252e-10
4.52503e-09
1.1542e-10
1.37644e-10
8.4408e-12
2.22074e-10
2.94731e-09
1.62476e-10
8.94302e-10
1.78225e-09
2.07165e-10
5.5225e-10
3.61306e-10
5.46699e-11
4.05749e-11
2.7302e-11
8.23555e-11
9.562e-11
2.93852e-10
1.09619e-10
1.83187e-10
3.24249e-10
5.50204e-11
1.65035e-12
2.85093e-10
2.2724e-12
3.77989e-10
3.38416e-10
7.28932e-11
1.4274e-09
4.09013e-10
3.54988e-10
1.72195e-09
2.29526e-08
3.60444e-07
2.59912e-08
4.54281e-10
2.45855e-10
1.11022e-16
-4.44089e-16
-4.44089e-16
2.22045e-16
2.22045e-16
0
0
2.22045e-16
4.44089e-16
-4.44089e-16
3.33067e-16
-2.22045e-16
2.22045e-16
2.22045e-16
0
-4.44089e-16
-1.11022e-16
1.11022e-16
-1.11022e-16
-4.44089e-16
2.22045e-16
-1.11022e-16
-2.22045e-16
-4.44089e-16
0
2.59774e-07
2.28099e-07
1.40771e-07
2.16254e-07
2.15201e-07
5.70192e-08
8.27979e-08
5.80339e-08
9.0003e-10
1.82961e-08
2.77283e-09
6.60093e-10
1.46859e-09
8.99967e-10
7.8318e-10
8.29705e-10
1.3827e-09
7.09723e-11
1.27781e-09
2.0039e-09
1.70744e-10
2.89734e-10
2.32811e-09
8.474e-10
2.08187e-10
2.66731e-09
2.27093e-09
1.71205e-09
2.77105e-09
2.28724e-09
2.33701e-09
2.34479e-09
5.59306e-10
2.64787e-09
1.21731e-09
1.97885e-11
2.70078e-09
7.79796e-10
1.14217e-10
2.76471e-09
5.53092e-10
1.24358e-10
1.71067e-09
3.3882e-07
5.59156e-08
5.76909e-10
2.98919e-10
4.44089e-16
-4.44089e-16
2.22045e-16
0
-2.22045e-16
0
2.22045e-16
1.11022e-16
-1.11022e-16
0
1.11022e-16
0
-2.22045e-16
1.11022e-16
-2.22045e-16
2.22045e-16
-2.22045e-16
-2.22045e-16
0
-2.22045e-16
-1.11022e-16
4.44089e-16
0
0
0
5.67239e-08
1.56098e-07
2.45978e-10
1.1549e-07
1.0994e-07
8.02868e-08
1.33969e-07
1.00268e-08
4.86963e-08
5.6269e-08
8.5917e-09
8.01293e-09
8.63899e-09
1.78089e-09
2.79569e-09
1.74604e-10
6.43052e-11
7.78955e-12
9.95684e-10
8.87523e-12
3.33333e-10
4.7398e-10
8.15858e-11
7.10151e-11
1.22916e-11
2.06981e-11
3.52792e-11
2.72838e-11
5.63205e-12
1.17684e-13
6.24403e-11
2.89768e-14
8.05178e-12
1.65956e-12
9.41014e-12
3.45925e-10
3.26494e-12
1.17458e-10
9.65012e-10
3.53725e-11
1.2779e-10
7.67296e-10
1.81849e-10
5.45672e-07
2.51271e-07
9.80637e-09
6.46973e-09
1.67477e-12
2.22045e-16
0
2.22045e-16
-1.11022e-16
2.22045e-16
-2.22045e-16
-3.33067e-16
2.22045e-16
-2.22045e-16
2.22045e-16
4.44089e-16
0
-1.11022e-16
-2.22045e-16
-1.11022e-16
6.66134e-16
-6.66134e-16
0
-2.22045e-16
-2.22045e-16
6.66134e-16
-1.11022e-16
2.22045e-16
4.44089e-16
6.76849e-07
7.17501e-09
2.06335e-07
4.45085e-07
4.16774e-07
2.71367e-07
2.83415e-07
4.05582e-08
2.60404e-08
4.55885e-08
6.94668e-09
3.207e-09
5.18797e-09
1.78423e-09
2.9757e-09
5.94842e-11
1.4826e-09
4.11922e-10
4.04372e-11
3.27829e-09
3.17111e-10
1.28852e-10
3.44635e-09
6.8799e-10
2.15015e-09
3.22457e-09
2.30247e-09
3.12467e-09
2.94788e-09
2.91406e-09
3.6664e-09
2.86175e-09
1.31495e-09
4.07049e-09
1.62407e-09
4.3691e-10
4.2562e-09
1.07298e-09
2.18301e-11
4.69618e-09
7.52552e-10
3.71825e-12
2.83016e-09
1.12574e-07
2.56459e-07
1.12505e-08
7.48568e-09
1.33016e-12
-1.11022e-16
0
0
0
0
-3.33067e-16
0
0
1.11022e-16
0
2.22045e-16
0
4.44089e-16
2.22045e-16
0
0
0
0
-2.22045e-16
-2.22045e-16
0
0
0
0
2.80753e-07
1.93607e-06
3.45559e-09
1.55574e-08
1.15265e-09
1.43482e-07
1.03664e-07
5.55837e-09
9.00051e-08
1.00042e-07
4.00519e-08
5.36005e-08
4.47917e-08
1.25036e-08
1.68925e-08
1.61174e-10
6.1604e-10
4.14683e-11
5.7345e-10
2.61469e-10
9.86991e-10
6.04012e-10
4.3486e-10
6.09573e-10
1.02655e-10
4.47011e-10
5.63848e-10
3.40217e-12
3.86802e-10
1.21673e-10
1.84919e-11
2.65228e-10
1.44948e-10
1.77802e-12
3.59826e-10
5.85548e-10
4.19762e-11
8.19941e-10
1.42077e-09
1.61055e-11
1.01095e-09
1.81711e-09
3.59745e-10
5.77693e-08
1.01975e-06
1.01331e-07
6.3913e-08
3.87791e-10
-2.22045e-16
-3.33067e-16
0
-2.22045e-16
0
-1.11022e-16
0
0
-4.44089e-16
0
0
4.44089e-16
1.11022e-16
1.11022e-16
2.22045e-16
0
-2.22045e-16
0
2.22045e-16
0
-2.22045e-16
-3.33067e-16
-3.33067e-16
-1.11022e-16
7.05492e-07
2.77225e-07
1.65264e-07
8.08123e-09
9.71565e-08
3.16384e-09
3.46534e-08
1.31098e-07
2.34025e-08
7.74471e-09
4.00376e-08
4.98569e-09
2.32213e-10
2.97027e-09
8.3612e-12
3.49852e-09
2.38876e-10
1.91972e-10
3.57634e-09
2.76523e-12
5.18312e-10
5.47704e-10
2.97884e-12
1.25634e-10
2.13174e-12
7.96374e-12
9.27147e-13
1.785e-10
5.3736e-11
1.02652e-10
2.81965e-10
9.03543e-11
7.34358e-11