/*--------------------------------*- C++ -*----------------------------------*\
| =========                 |                                                 |
| \\      /  F ield         | OpenFOAM: The Open Source CFD Toolbox           |
|  \\    /   O peration     | Version:  v2012                                 |
|   \\  /    A nd           | Website:  www.openfoam.com                      |
|    \\/     M anipulation  |                                                 |
\*---------------------------------------------------------------------------*/
FoamFile
{
    version     2.0;
    format      ascii;
    class       volScalarField;
    location    "1e-06";
    object      k;
}
// * * * * * * * * * * * * * * * * * * * * * * * * * * * * * * * * * * * * * //

dimensions      [0 2 -2 0 0 0 0];


internalField   nonuniform List<scalar> 
10248
(
0.0390956
0.036984
0.0166416
0.0104061
0.0106941
0.0139114
0.0130614
0.0147911
0.0165865
0.0168924
0.0190619
0.0235772
0.0257774
0.0335606
0.0297495
0.0334786
0.0332829
0.0314926
0.0161636
0.0413204
0.0427713
0.0486112
0.052694
0.0584811
0.0750322
0.0829165
0.0949057
0.116387
0.104927
0.120744
0.132672
0.134319
0.168948
0.212771
0.220315
0.268702
0.312154
0.318312
0.356538
0.396354
0.403636
0.447717
0.483204
0.487912
0.521848
0.553029
0.555544
0.582552
0.603542
0.602864
0.621967
0.638391
0.636283
0.654444
0.66831
0.672448
0.679719
0.691661
0.694365
0.69883
0.706782
0.709187
0.710146
0.694857
0.714057
0.711112
0.713818
0.712809
0.705504
0.710357
0.709028
0.697
0.0687284
0.0648269
0.0319284
0.0221058
0.0195709
0.0236574
0.023924
0.0250856
0.02925
0.0289228
0.031186
0.0409301
0.0417243
0.0522286
0.0531532
0.0538766
0.0606658
0.060939
0.0701112
0.0768545
0.0767336
0.0811471
0.0950876
0.0938604
0.109812
0.133034
0.131188
0.156901
0.161809
0.16333
0.181311
0.184819
0.202945
0.248087
0.254637
0.296582
0.346665
0.351829
0.386596
0.4351
0.440445
0.477127
0.526936
0.531617
0.563046
0.602999
0.6058
0.627151
0.655859
0.65699
0.670882
0.692849
0.69326
0.706056
0.722533
0.731454
0.732852
0.744481
0.75204
0.752854
0.756611
0.766387
0.765979
0.756473
0.773035
0.771168
0.767664
0.774535
0.771454
0.771355
0.772315
0.768761
0.111272
0.106375
0.0574909
0.0422167
0.0369512
0.0409102
0.0420679
0.0426942
0.0508722
0.0508657
0.052949
0.0670234
0.0668518
0.0778652
0.0805668
0.0833231
0.0939727
0.0954323
0.0977622
0.116704
0.117114
0.123805
0.138181
0.137543
0.153224
0.175334
0.175859
0.202047
0.20713
0.223585
0.244744
0.248301
0.258625
0.299851
0.30655
0.345202
0.401094
0.407441
0.440821
0.499693
0.506579
0.542703
0.605164
0.610332
0.637973
0.687099
0.690521
0.70842
0.74406
0.746213
0.758622
0.785341
0.787172
0.797836
0.816389
0.828552
0.827545
0.83802
0.850216
0.849301
0.84684
0.865875
0.864745
0.839819
0.875783
0.874668
0.867457
0.881576
0.88056
0.879388
0.882135
0.884756
0.113925
0.10882
0.066035
0.0429564
0.0389754
0.0426508
0.0426548
0.049261
0.051859
0.0519003
0.0595457
0.0677901
0.068963
0.0800085
0.0811233
0.0880277
0.0952573
0.0963108
0.113708
0.117783
0.118454
0.1312
0.13931
0.13924
0.156507
0.176377
0.178185
0.204246
0.208244
0.228415
0.248415
0.249824
0.268713
0.303827
0.309123
0.3583
0.405584
0.410799
0.459067
0.505929
0.511293
0.565422
0.612755
0.617162
0.662069
0.696464
0.698596
0.730192
0.755709
0.755811
0.777521
0.798744
0.797625
0.81388
0.832468
0.83996
0.841625
0.858752
0.862229
0.86262
0.880849
0.878726
0.877783
0.878319
0.889817
0.887798
0.892655
0.897421
0.894022
0.896358
0.90328
0.898983
0.149596
0.143947
0.0916797
0.0650582
0.0591271
0.0616849
0.0621932
0.0669644
0.0735044
0.0738047
0.0796627
0.0877316
0.0881449
0.0948951
0.0960524
0.101376
0.110947
0.112548
0.126352
0.135464
0.136874
0.148808
0.159628
0.160531
0.175802
0.194441
0.197569
0.225303
0.230382
0.258734
0.291215
0.294663
0.317176
0.359554
0.365753
0.411265
0.469931
0.476581
0.525
0.587184
0.594223
0.647018
0.709938
0.715759
0.755874
0.802688
0.805867
0.832989
0.86853
0.870149
0.888787
0.916593
0.917322
0.931431
0.952922
0.964569
0.963679
0.979611
0.989292
0.98815
0.997521
1.0081
1.00668
1.01002
1.02182
1.02011
1.01919
1.03172
1.0298
1.0305
1.0377
1.03849
0.179211
0.173138
0.115025
0.0864929
0.0789749
0.0790583
0.0802463
0.0819938
0.0898158
0.0900656
0.0926112
0.0973999
0.0974244
0.100644
0.101365
0.105701
0.115862
0.117163
0.127129
0.141024
0.142797
0.156098
0.170452
0.172521
0.189676
0.211416
0.214067
0.245035
0.25167
0.283841
0.326998
0.333056
0.361754
0.414255
0.422024
0.465254
0.536829
0.545485
0.593128
0.672118
0.681052
0.730759
0.809457
0.816846
0.851262
0.910782
0.915372
0.937104
0.982396
0.985763
1.00052
1.03446
1.03763
1.04921
1.07297
1.08936
1.0859
1.09947
1.11625
1.11367
1.11373
1.13688
1.13489
1.11987
1.15227
1.15102
1.14357
1.16312
1.16298
1.16152
1.16762
1.17372
0.182224
0.176007
0.122068
0.0876883
0.0816736
0.0811566
0.0810043
0.0866909
0.0907657
0.0908809
0.0951429
0.0977826
0.0980354
0.101293
0.101503
0.106547
0.1163
0.117407
0.125864
0.141482
0.143282
0.158173
0.171237
0.1737
0.192851
0.21269
0.217177
0.248663
0.253269
0.28953
0.331438
0.335644
0.373487
0.421129
0.427133
0.483412
0.546117
0.553277
0.618754
0.685109
0.692584
0.763094
0.826381
0.831921
0.886634
0.930662
0.933243
0.971813
1.00512
1.0056
1.03257
1.05998
1.05886
1.07829
1.102
1.11223
1.11295
1.13448
1.14021
1.13967
1.1606
1.16198
1.1604
1.16649
1.17885
1.17644
1.18365
1.19217
1.18853
1.19219
1.20283
1.20031
0.20916
0.202536
0.144321
0.109305
0.101451
0.0972622
0.0976634
0.0990928
0.101737
0.101705
0.102285
0.103991
0.103927
0.106927
0.107811
0.112798
0.124198
0.125605
0.13629
0.152524
0.154249
0.170297
0.189238
0.191467
0.214603
0.240443
0.243778
0.279353
0.285788
0.322153
0.372224
0.379011
0.420419
0.479793
0.487848
0.542743
0.619038
0.628259
0.692393
0.774128
0.783356
0.850292
0.927159
0.933451
0.982001
1.03802
1.04207
1.07453
1.11754
1.11986
1.142
1.17558
1.17697
1.19323
1.21903
1.23389
1.23195
1.25067
1.26355
1.26156
1.27306
1.28654
1.28462
1.29677
1.3043
1.30227
1.30224
1.31761
1.31567
1.31671
1.3258
1.32828
0.212449
0.205676
0.151919
0.110754
0.104836
0.0994699
0.098466
0.101949
0.102411
0.102237
0.103794
0.104358
0.104629
0.108046
0.108097
0.115172
0.125261
0.126274
0.141114
0.153626
0.155598
0.175727
0.190749
0.194217
0.220169
0.242688
0.249169
0.285107
0.288583
0.330871
0.378696
0.38319
0.435282
0.489043
0.495198
0.564916
0.631531
0.639188
0.722029
0.79108
0.798839
0.886686
0.947991
0.953105
1.0217
1.06321
1.06503
1.11499
1.14603
1.1451
1.18072
1.20727
1.20386
1.22931
1.25462
1.26277
1.26586
1.29238
1.29367
1.29417
1.32576
1.31794
1.31653
1.34742
1.33728
1.33395
1.34925
1.35319
1.34734
1.35434
1.36762
1.36095
0.240917
0.233766
0.174949
0.134462
0.126108
0.114275
0.113436
0.110218
0.109628
0.109285
0.109201
0.111743
0.111762
0.117398
0.118489
0.12631
0.140121
0.141571
0.154805
0.174118
0.175953
0.196026
0.219078
0.22171
0.250755
0.28084
0.285012
0.325953
0.33259
0.373695
0.430457
0.438047
0.490032
0.55817
0.567055
0.632488
0.7166
0.726785
0.802942
0.892347
0.902413
0.980007
1.06115
1.06831
1.12421
1.18426
1.18853
1.22679
1.27316
1.2755
1.30141
1.33789
1.33916
1.35769
1.38622
1.40266
1.40024
1.4214
1.43541
1.43282
1.44651
1.46078
1.45821
1.46623
1.48045
1.47792
1.47914
1.49518
1.49284
1.49398
1.50427
1.50711
0.270784
0.263617
0.200817
0.159376
0.148037
0.127034
0.126068
0.115891
0.115573
0.11533
0.115581
0.121978
0.12147
0.130019
0.132976
0.140738
0.159498
0.161857
0.17397
0.200455
0.202162
0.221605
0.253834
0.254951
0.286015
0.325206
0.325837
0.371712
0.383214
0.421922
0.487647
0.499487
0.548106
0.630304
0.642829
0.701627
0.802985
0.81638
0.883281
0.992467
1.00547
1.07058
1.17126
1.18116
1.22398
1.30174
1.30922
1.3355
1.39598
1.40246
1.41852
1.4637
1.47068
1.48199
1.51266
1.53823
1.53012
1.54561
1.57247
1.56677
1.56504
1.59855
1.595
1.5778
1.61803
1.61683
1.60423
1.63102
1.63305
1.628
1.63463
1.64751
0.275762
0.268022
0.209352
0.161734
0.152296
0.129019
0.12683
0.117473
0.116271
0.115893
0.117614
0.122877
0.12333
0.132738
0.13409
0.145361
0.162266
0.16389
0.180208
0.203492
0.20562
0.230233
0.257549
0.260732
0.295405
0.330057
0.335119
0.381974
0.389166
0.435931
0.499499
0.507995
0.568442
0.645405
0.65531
0.729401
0.822281
0.833534
0.918381
1.01696
1.02801
1.11216
1.20092
1.20873
1.26968
1.33629
1.34106
1.38292
1.43447
1.43719
1.46543
1.50578
1.50753
1.5274
1.55862
1.57757
1.57409
1.59651
1.61326
1.60971
1.62269
1.64072
1.63738
1.64017
1.66186
1.65891
1.65924
1.67737
1.67504
1.67548
1.68619
1.69055
0.310465
0.302891
0.2405
0.189838
0.176189
0.141753
0.139856
0.124215
0.12509
0.124913
0.127611
0.138089
0.137475
0.149977
0.153905
0.164295
0.186839
0.189724
0.205238
0.235687
0.237576
0.261227
0.298272
0.299336
0.335442
0.380149
0.380679
0.432472
0.445547
0.488863
0.561021
0.574361
0.629495
0.71888
0.73281
0.799678
0.907262
0.921971
0.997928
1.11263
1.12687
1.20065
1.30508
1.3159
1.36557
1.44667
1.45492
1.48608
1.54952
1.55669
1.57547
1.62328
1.63097
1.64344
1.67641
1.70427
1.695
1.71245
1.74096
1.73425
1.7354
1.76865
1.76445
1.75157
1.78913
1.78765
1.77551
1.80249
1.80474
1.79883
1.80615
1.81995
0.317081
0.308737
0.25051
0.193033
0.181457
0.14423
0.14098
0.126012
0.126396
0.126154
0.130751
0.139596
0.140503
0.153909
0.155696
0.170284
0.19079
0.192725
0.212502
0.239962
0.242437
0.271409
0.30334
0.307009
0.346874
0.386529
0.392309
0.445141
0.45327
0.505576
0.575546
0.585029
0.652176
0.736612
0.74757
0.829008
0.929221
0.94153
1.0339
1.13983
1.15189
1.24284
1.3377
1.34631
1.41296
1.48466
1.48993
1.53617
1.59169
1.59477
1.62595
1.66922
1.67125
1.69285
1.72624
1.74711
1.74299
1.76683
1.78531
1.78103
1.7949
1.81443
1.81043
1.81357
1.8366
1.83317
1.83378
1.85255
1.85001
1.85012
1.86119
1.86623
0.360428
0.352543
0.290151
0.229941
0.211926
0.16284
0.160583
0.138168
0.141495
0.141255
0.146024
0.161014
0.159975
0.176244
0.181437
0.193927
0.220713
0.22428
0.242473
0.277959
0.280022
0.307443
0.350173
0.350984
0.391937
0.442993
0.442983
0.500767
0.516018
0.563259
0.641779
0.657036
0.716846
0.813481
0.829209
0.901727
1.01649
1.0329
1.11495
1.23713
1.25305
1.33267
1.44399
1.45639
1.51079
1.59786
1.60754
1.64154
1.70981
1.71852
1.7384
1.78977
1.79926
1.81158
1.84689
1.8785
1.86703
1.88543
1.9175
1.90916
1.91036
1.94651
1.94147
1.92817
1.96748
1.96609
1.9521
1.98055
1.984
1.97599
1.98328
1.99965
0.369437
0.360637
0.303239
0.235023
0.219724
0.167328
0.162943
0.141541
0.143917
0.143666
0.150746
0.163389
0.164445
0.181571
0.184123
0.201549
0.226042
0.228467
0.251971
0.283675
0.286448
0.319437
0.356789
0.360622
0.405387
0.451075
0.456937
0.515748
0.525636
0.582473
0.658794
0.669864
0.741822
0.833694
0.846224
0.932998
1.04095
1.05481
1.15264
1.26696
1.28061
1.37686
1.47979
1.48985
1.56077
1.63959
1.64611
1.69484
1.75605
1.76044
1.79268
1.83995
1.84357
1.86523
1.90091
1.92557
1.91946
1.94362
1.96615
1.96036
1.97291
1.99664
1.99177
1.99433
2.01935
2.01579
2.01415
2.03499
2.03334
2.03158
2.04222
2.05003
0.426004
0.41822
0.355787
0.290068
0.26513
0.200398
0.197995
0.163565
0.168407
0.167638
0.172488
0.192102
0.190005
0.209485
0.216402
0.229867
0.26151
0.265972
0.285545
0.327471
0.329664
0.359906
0.409646
0.40985
0.455247
0.513662
0.512368
0.576003
0.594175
0.643947
0.728885
0.746624
0.808929
0.913269
0.931271
1.00671
1.12982
1.14839
1.23363
1.36532
1.38351
1.46655
1.58771
1.60241
1.65946
1.75525
1.76711
1.80192
1.87693
1.88804
1.9073
1.96319
1.97562
1.98646
2.02413
2.06091
2.04623
2.06466
2.10199
2.09147
2.09014
2.13196
2.126
2.10863
2.15294
2.15205
2.13397
2.16509
2.17075
2.15943
2.16607
2.18645
0.435972
0.42702
0.373878
0.29661
0.276701
0.20787
0.201676
0.170175
0.17181
0.171103
0.179185
0.19472
0.19555
0.215659
0.219123
0.239023
0.267129
0.270143
0.298104
0.332929
0.336013
0.373234
0.415315
0.419328
0.468798
0.519899
0.526033
0.590034
0.601396
0.662638
0.743707
0.755984
0.832929
0.929638
0.943252
1.03627
1.1485
1.16334
1.26862
1.38724
1.40187
1.50681
1.61354
1.62427
1.70421
1.78556
1.79214
1.84826
1.91076
1.91465
1.95249
2.00064
2.00319
2.02881
2.06578
2.09002
2.08517
2.11176
2.13262
2.12724
2.14459
2.16439
2.15927
2.17121
2.1879
2.18337
2.18591
2.20407
2.20072
2.20078
2.21218
2.21761
0.447574
0.437821
0.394553
0.304057
0.290948
0.218091
0.206982
0.180561
0.175913
0.175503
0.187378
0.197739
0.201824
0.222764
0.222261
0.247992
0.273378
0.274956
0.309498
0.338841
0.343253
0.386928
0.421373
0.42979
0.483465
0.526551
0.540415
0.605137
0.608993
0.68119
0.759405
0.765876
0.855555
0.946694
0.955871
1.06313
1.16774
1.17903
1.29995
1.40979
1.42111
1.5435
1.64069
1.64772
1.74639
1.8173
1.81885
1.89395
1.94672
1.94342
1.99912
2.04077
2.03306
2.07406
2.11066
2.12141
2.1276
2.16237
2.16557
2.16641
2.20071
2.19916
2.19554
2.22594
2.22527
2.21747
2.23889
2.24581
2.23324
2.24557
2.26175
2.25096
0.526919
0.517978
0.471554
0.390379
0.365061
0.277855
0.26907
0.220292
0.215079
0.212965
0.218938
0.23597
0.235812
0.25793
0.262686
0.284205
0.31576
0.319594
0.351105
0.389742
0.393102
0.434506
0.481472
0.485333
0.539346
0.596205
0.602032
0.670816
0.684346
0.748855
0.834344
0.848523
0.92925
1.03054
1.0459
1.14373
1.26044
1.27701
1.38836
1.51237
1.52883
1.64179
1.75464
1.76702
1.85493
1.94096
1.94896
2.01122
2.07682
2.08182
2.12322
2.17337
2.17675
2.20422
2.24287
2.26919
2.26359
2.29188
2.31374
2.3075
2.32787
2.34643
2.34058
2.35487
2.3701
2.36516
2.36887
2.38587
2.38252
2.38209
2.39369
2.39934
0.545587
0.535439
0.494627
0.405281
0.387177
0.29561
0.280233
0.233281
0.222798
0.220822
0.228543
0.241473
0.244553
0.267328
0.268244
0.294441
0.324959
0.327263
0.362201
0.399207
0.403747
0.448972
0.491775
0.499622
0.556778
0.607944
0.620323
0.690386
0.697667
0.771021
0.856028
0.865299
0.955098
1.05514
1.0668
1.17363
1.28896
1.30265
1.42317
1.54636
1.56028
1.68333
1.79561
1.80519
1.90465
1.98964
1.99375
2.06749
2.13112
2.13064
2.18354
2.2322
2.22815
2.26628
2.30568
2.32353
2.32539
2.35783
2.36997
2.36788
2.39418
2.40448
2.39932
2.41848
2.43029
2.42259
2.43637
2.44911
2.4389
2.44678
2.46086
2.45673
0.655902
0.646292
0.601604
0.527486
0.495257
0.389869
0.378276
0.301178
0.282134
0.276793
0.274037
0.291495
0.288691
0.311405
0.318263
0.339035
0.374831
0.379814
0.412226
0.457349
0.460694
0.504758
0.559005
0.561652
0.619665
0.684416
0.687894
0.761692
0.779219
0.844206
0.935508
0.953219
1.03411
1.1427
1.16131
1.25924
1.38486
1.40464
1.51656
1.65233
1.67238
1.78743
1.91505
1.93155
2.02102
2.12056
2.13286
2.19403
2.27007
2.27995
2.3173
2.37412
2.38368
2.40601
2.44765
2.48354
2.4711
2.49815
2.52998
2.51925
2.53389
2.56289
2.55533
2.55911
2.58532
2.58193
2.57625
2.59841
2.60034
2.59242
2.60228
2.61654
0.681932
0.6708
0.629558
0.550223
0.526309
0.41606
0.396914
0.31723
0.294665
0.28925
0.285675
0.299564
0.300217
0.322943
0.325995
0.351157
0.386193
0.389628
0.424656
0.469015
0.473558
0.520432
0.571468
0.578139
0.638475
0.698179
0.708184
0.782867
0.794716
0.868101
0.95897
0.972138
1.06148
1.16912
1.18427
1.29053
1.41519
1.43228
1.55282
1.68819
1.70594
1.83088
1.95762
1.97137
2.07334
2.17274
2.18126
2.25361
2.3285
2.33304
2.38144
2.43713
2.43964
2.47229
2.51436
2.54273
2.5375
2.56722
2.59118
2.5844
2.60275
2.62598
2.61889
2.62694
2.6505
2.64406
2.64771
2.66624
2.66131
2.66153
2.6728
2.67872
0.843517
0.830221
0.768625
0.71508
0.672043
0.555133
0.543181
0.422283
0.385409
0.373954
0.350357
0.367388
0.358682
0.379478
0.389775
0.404862
0.446185
0.452576
0.481951
0.536475
0.539297
0.583051
0.647469
0.647597
0.708162
0.782732
0.781646
0.860318
0.883195
0.945603
1.04384
1.06599
1.14348
1.26136
1.28385
1.37795
1.51511
1.53868
1.64717
1.7979
1.82221
1.93587
2.08399
2.10559
2.19266
2.31063
2.32861
2.3853
2.4761
2.49246
2.52224
2.58813
2.60602
2.62008
2.66537
2.71341
2.6919
2.71626
2.76125
2.74488
2.74943
2.7937
2.78444
2.77264
2.81404
2.81326
2.79349
2.82353
2.83285
2.81467
2.82206
2.8475
0.875589
0.860212
0.80932
0.739983
0.712641
0.589032
0.565107
0.450593
0.40185
0.390562
0.367328
0.376406
0.373407
0.393166
0.397895
0.421061
0.45804
0.462488
0.500138
0.547551
0.552104
0.602317
0.658257
0.664028
0.727801
0.79356
0.802087
0.880318
0.895479
0.97012
1.06449
1.08059
1.17197
1.28332
1.30106
1.41051
1.53917
1.5588
1.68434
1.82532
1.84588
1.97921
2.11551
2.13287
2.24347
2.35043
2.36188
2.441
2.52112
2.52819
2.5791
2.63741
2.64259
2.67543
2.71899
2.75183
2.74414
2.77466
2.8019
2.7932
2.81344
2.83692
2.82893
2.84325
2.86059
2.85437
2.85715
2.8746
2.87135
2.86912
2.87956
2.88788
0.915175
0.8963
0.851738
0.767626
0.75306
0.630746
0.593343
0.489152
0.422259
0.410848
0.389683
0.387072
0.38937
0.408978
0.407232
0.436751
0.471412
0.473507
0.516731
0.559859
0.565829
0.620599
0.670124
0.680811
0.747669
0.805479
0.821846
0.901101
0.908055
0.9926
1.08615
1.09565
1.19712
1.30632
1.31884
1.43857
1.56424
1.57957
1.71596
1.85376
1.8704
2.01608
2.14714
2.16033
2.28796
2.39196
2.39687
2.49232
2.56881
2.56645
2.63446
2.6901
2.68222
2.73187
2.7763
2.79321
2.79931
2.83577
2.84557
2.84535
2.87607
2.88326
2.8773
2.90252
2.91049
2.89923
2.91862
2.92953
2.91319
2.92619
2.94046
2.9309
1.18781
1.15822
1.06125
0.995843
0.961059
0.836706
0.809042
0.662186
0.571611
0.550185
0.493962
0.488533
0.477959
0.489329
0.495544
0.512065
0.549311
0.554548
0.591733
0.642614
0.646619
0.698741
0.759893
0.763865
0.830497
0.902408
0.908179
0.989723
1.00862
1.08288
1.18113
1.20056
1.29219
1.40808
1.42883
1.53916
1.67319
1.69581
1.82347
1.9722
1.99628
2.1351
2.28705
2.30773
2.42491
2.54385
2.56003
2.64442
2.73352
2.74541
2.79661
2.85934
2.86973
2.89974
2.94594
2.98589
2.97275
3.00431
3.03708
3.02454
3.04455
3.07144
3.06193
3.07122
3.09312
3.08829
3.08606
3.10434
3.10541
3.09702
3.1069
3.11991
1.25403
1.22136
1.10934
1.0393
1.01491
0.890551
0.853786
0.702289
0.607405
0.585276
0.519492
0.508054
0.501469
0.510577
0.512099
0.530916
0.568621
0.572055
0.609089
0.661215
0.666491
0.719052
0.778552
0.786468
0.85406
0.921664
0.933289
1.01572
1.02949
1.1103
1.20949
1.22475
1.32207
1.43927
1.45678
1.57211
1.70794
1.72799
1.86058
2.01194
2.03396
2.17821
2.33002
2.34982
2.47821
2.60277
2.61532
2.70859
2.80048
2.80677
2.86765
2.93145
2.93445
2.97457
3.02143
3.05396
3.04894
3.08097
3.10758
3.09993
3.11938
3.14415
3.13534
3.14437
3.1681
3.15946
3.16407
3.18165
3.17449
3.17522
3.18504
3.19045
1.71041
1.64921
1.43756
1.3623
1.29749
1.17426
1.15769
0.963215
0.846697
0.807713
0.691645
0.668119
0.637378
0.629971
0.641713
0.635707
0.675459
0.681562
0.706864
0.76815
0.769212
0.816049
0.889877
0.887427
0.953846
1.03816
1.03428
1.11975
1.14644
1.21293
1.31896
1.3445
1.428
1.55462
1.58034
1.68222
1.82945
1.85658
1.97619
2.14165
2.17095
2.30354
2.48189
2.51027
2.62552
2.76995
2.79461
2.87228
2.98276
3.00494
3.04406
3.11943
3.14277
3.15814
3.20932
3.26701
3.23917
3.26678
3.31846
3.29692
3.30273
3.35067
3.3386
3.32573
3.36816
3.36774
3.34378
3.37322
3.3864
3.36073
3.36736
3.39664
1.80448
1.73881
1.51477
1.41283
1.37075
1.24288
1.20599
1.04154
0.894837
0.856989
0.73331
0.693457
0.672745
0.658749
0.661411
0.66563
0.698262
0.701799
0.735284
0.78771
0.791699
0.84436
0.907593
0.91302
0.98178
1.05468
1.06306
1.14719
1.16518
1.24496
1.34651
1.36552
1.46333
1.58299
1.60384
1.72092
1.85935
1.88267
2.01868
2.17431
2.20007
2.35134
2.51724
2.54254
2.68276
2.81734
2.83532
2.93808
3.03732
3.04881
3.11251
3.17898
3.18727
3.2253
3.27352
3.31348
3.30308
3.33606
3.36771
3.35615
3.37805
3.403
3.3928
3.40601
3.4242
3.41719
3.41885
3.43405
3.43179
3.42635
3.43479
3.44475
1.90972
1.8377
1.61752
1.47014
1.44259
1.31323
1.26338
1.11099
0.952371
0.913634
0.790669
0.724306
0.711656
0.693152
0.684984
0.695064
0.724382
0.724221
0.762449
0.810196
0.815358
0.871301
0.928132
0.938472
1.00929
1.07406
1.09
1.17512
1.18463
1.27333
1.37521
1.38736
1.49342
1.61282
1.62817
1.75297
1.89086
1.90954
2.0532
2.20846
2.22993
2.38974
2.55511
2.57201
2.72638
2.86563
2.87708
2.99337
3.0938
3.09537
3.17408
3.24124
3.23577
3.28988
3.33965
3.36365
3.36777
3.40419
3.42075
3.41839
3.44528
3.45933
3.45097
3.47063
3.48444
3.47082
3.48598
3.49881
3.48103
3.49199
3.50286
3.49591
2.49078
2.40774
2.16142
1.977
1.88952
1.72622
1.69686
1.50608
1.33271
1.27674
1.09871
1.00505
0.956941
0.899947
0.901652
0.871046
0.890913
0.892743
0.913971
0.96635
0.966358
1.0148
1.08261
1.08165
1.14911
1.22867
1.22884
1.31389
1.33699
1.41085
1.51574
1.53885
1.63195
1.75617
1.78032
1.89351
2.03781
2.06408
2.19713
2.36071
2.38997
2.54102
2.72511
2.76058
2.90501
3.05776
3.08213
3.19001
3.30438
3.32325
3.38523
3.45923
3.47545
3.50642
3.55823
3.60783
3.5885
3.62194
3.66148
3.64398
3.6624
3.69416
3.68188
3.6862
3.7112
3.7068
3.69844
3.7162
3.72109
3.70469
3.71222
3.72859
2.59583
2.51795
2.25616
2.05834
1.9803
1.80568
1.76665
1.58394
1.40632
1.35231
1.15097
1.05237
1.01027
0.94241
0.937214
0.903932
0.924905
0.924209
0.932771
0.995613
0.997856
1.04328
1.10867
1.11378
1.18024
1.25232
1.26121
1.34593
1.36221
1.44351
1.5485
1.56607
1.66534
1.78971
1.80957
1.92826
2.07262
2.09545
2.23415
2.39757
2.42367
2.58205
2.76207
2.79397
2.95524
3.10871
3.12781
3.25067
3.36321
3.37244
3.45106
3.52242
3.52511
3.5741
3.62426
3.65914
3.65576
3.68966
3.71594
3.70846
3.73021
3.75197
3.74204
3.75312
3.77269
3.76188
3.76909
3.78132
3.77104
3.77294
3.7796
3.78108
2.67914
2.60998
2.42553
2.15011
2.1137
1.92475
1.85512
1.70235
1.50004
1.4464
1.27639
1.11163
1.09351
1.01756
0.984395
0.972161
0.97333
0.963731
1.00082
1.03364
1.03739
1.09685
1.14137
1.15492
1.22758
1.28198
1.30426
1.38975
1.38994
1.48887
1.59051
1.59591
1.71286
1.83096
1.84144
1.97773
2.11425
2.12933
2.28555
2.44055
2.4595
2.63546
2.80849
2.8291
3.00893
3.16379
3.17424
3.31951
3.42923
3.42483
3.52542
3.59566
3.57939
3.64967
3.70222
3.71464
3.72957
3.77158
3.77456
3.77856
3.81493
3.81448
3.80728
3.83902
3.84018
3.82152
3.8489
3.85483
3.82518
3.84691
3.85901
3.83647
2.8368
2.87535
2.99737
2.82197
2.73456
2.51435
2.45689
2.2486
2.0469
1.98527
1.76848
1.59343
1.52145
1.38394
1.36588
1.27839
1.2575
1.25137
1.24757
1.28736
1.28315
1.32077
1.38094
1.37782
1.43828
1.51182
1.51188
1.59263
1.61279
1.68701
1.78926
1.80998
1.90494
2.02691
2.0494
2.16598
2.30908
2.33439
2.4723
2.63496
2.66391
2.82343
3.00904
3.05356
3.22853
3.39545
3.42018
3.55448
3.67885
3.69608
3.77733
3.85319
3.86372
3.90702
3.95935
4.00302
3.99047
4.02634
4.05771
4.04357
4.06804
4.0895
4.07713
4.09074
4.10446
4.09629
4.09718
4.10668
4.10415
4.09451
4.1003
4.10663
2.80681
2.8889
3.07634
2.92244
2.85302
2.62858
2.57123
2.34672
2.16088
2.10121
1.86699
1.68982
1.62135
1.47225
1.44679
1.34608
1.32791
1.31728
1.29995
1.34662
1.34288
1.37326
1.43382
1.43401
1.49215
1.56039
1.56516
1.64682
1.66142
1.73881
1.84421
1.86041
1.95582
2.08292
2.10186
2.21696
2.36673
2.38917
2.52493
2.69435
2.72077
2.87853
3.07204
3.10458
3.28074
3.46588
3.49055
3.63061
3.76305
3.77485
3.86161
3.94269
3.94593
3.9969
4.05005
4.08767
4.08299
4.116
4.14513
4.13641
4.15405
4.17941
4.16813
4.17458
4.19636
4.18394
4.18586
4.19921
4.18747
4.18654
4.18983
4.19132
2.34816
2.52554
3.02552
3.26439
3.26959
3.26589
3.2376
3.0475
2.89242
2.81632
2.56182
2.39435
2.26795
2.07832
2.0718
1.87613
1.82229
1.80529
1.73639
1.77942
1.75358
1.75731
1.83122
1.79571
1.83831
1.93083
1.89198
1.96787
2.00416
2.04093
2.14797
2.17885
2.24109
2.37335
2.40202
2.49007
2.64695
2.67602
2.78686
2.96351
2.99519
3.12879
3.33399
3.37898
3.55248
3.75673
3.78824
3.90747
4.06156
4.09421
4.15366
4.24641
4.27664
4.29277
4.35092
4.4214
4.38139
4.41151
4.47033
4.43868
4.44428
4.49398
4.47577
4.45927
4.49839
4.49708
4.46396
4.48734
4.50462
4.46387
4.4652
4.49523
2.17595
2.38242
3.08958
3.31625
3.42306
3.4341
3.35665
3.25049
3.0373
2.96987
2.74474
2.52182
2.43508
2.22019
2.17733
2.01431
1.92799
1.90448
1.84093
1.86275
1.84741
1.8514
1.90009
1.88564
1.92358
1.98884
1.97817
2.0457
2.06499
2.12424
2.22048
2.2399
2.32231
2.44197
2.46324
2.57009
2.71316
2.73727
2.86619
3.0278
3.05556
3.20612
3.39765
3.43487
3.63125
3.82216
3.85421
4.00342
4.14152
4.16096
4.25125
4.33115
4.34215
4.38846
4.44058
4.48554
4.47265
4.50669
4.5381
4.52334
4.54566
4.56583
4.55253
4.56451
4.57495
4.56562
4.56433
4.56938
4.56563
4.55358
4.55438
4.55875
2.05466
2.2724
2.95288
3.29544
3.4073
3.48163
3.43244
3.34624
3.1598
3.09681
2.87016
2.64322
2.5662
2.35272
2.29487
2.13118
2.04365
2.00989
1.94828
1.96004
1.94366
1.94856
1.98201
1.97336
2.01188
2.05923
2.05873
2.12692
2.13106
2.19984
2.29694
2.30479
2.39459
2.515
2.52728
2.64025
2.78389
2.80079
2.93441
3.09686
3.1181
3.27256
3.46554
3.49587
3.69209
3.88999
3.91973
4.07396
4.21901
4.22949
4.32874
4.41258
4.41029
4.46833
4.5222
4.55385
4.55356
4.5869
4.60959
4.6032
4.62215
4.64074
4.62908
4.63803
4.65303
4.63687
4.64065
4.64922
4.63016
4.63189
4.63257
4.62512
1.32525
1.45788
2.15419
2.78416
3.0142
3.5254
3.61251
3.87548
3.9255
3.86889
3.74787
3.58413
3.46879
3.25814
3.22038
2.99565
2.8802
2.84137
2.73214
2.73073
2.68605
2.65348
2.68842
2.63453
2.64321
2.70652
2.65184
2.69915
2.72488
2.73809
2.8219
2.84389
2.88802
3.00007
3.02111
3.09549
3.23598
3.2583
3.35916
3.51912
3.54396
3.66784
3.86095
3.89865
4.07763
4.29065
4.32005
4.4458
4.60002
4.62869
4.7022
4.79043
4.81239
4.8384
4.89276
4.95274
4.91956
4.94982
4.99547
4.96716
4.97819
5.01281
4.99382
4.98677
5.00986
5.00346
4.97948
4.99053
4.99858
4.96356
4.96133
4.97719
1.15082
1.28955
1.87481
2.61725
2.88086
3.56686
3.63327
4.15132
4.06331
4.02727
3.95424
3.73973
3.66727
3.43727
3.36994
3.17913
3.03979
2.99749
2.87565
2.87069
2.83828
2.78442
2.8082
2.77422
2.76596
2.80839
2.77779
2.81395
2.82675
2.8514
2.9297
2.94258
2.99221
3.10109
3.11607
3.19358
3.3314
3.34971
3.45381
3.61025
3.63176
3.75763
3.94822
3.9814
4.16166
4.37173
4.39958
4.54459
4.68881
4.7061
4.80193
4.88152
4.88762
4.93798
4.98686
5.02438
5.01615
5.04621
5.07057
5.05865
5.07746
5.0917
5.07845
5.08874
5.09262
5.07967
5.07868
5.07686
5.06605
5.05643
5.05135
5.04634
1.08582
1.2148
1.79967
2.49062
2.73503
3.38279
3.53484
3.97131
4.10675
4.09192
4.05226
3.8695
3.81486
3.61033
3.52226
3.35493
3.22197
3.16187
3.08443
3.04091
3.00705
2.98399
2.95774
2.93912
2.94454
2.93764
2.93569
2.97367
2.94622
3.00239
3.07233
3.0558
3.13437
3.22915
3.22242
3.32622
3.44838
3.44982
3.57803
3.72031
3.72704
3.87714
4.05366
4.07185
4.26782
4.46309
4.47651
4.63993
4.78193
4.78605
4.89542
4.9769
4.96396
5.03001
5.08162
5.10002
5.10667
5.13965
5.14912
5.14645
5.16801
5.1739
5.16184
5.17536
5.17825
5.1566
5.16463
5.16494
5.13513
5.14138
5.13915
5.117
0.670679
0.720656
1.05163
1.58936
1.75677
2.49055
2.71382
3.4581
4.05173
4.17938
4.55765
4.64782
4.6197
4.57278
4.51401
4.41218
4.31938
4.27453
4.21423
4.1827
4.133
4.0913
4.07409
4.01216
3.98286
3.99448
3.93062
3.93316
3.93369
3.91447
3.94898
3.9491
3.95952
4.02254
4.0247
4.06895
4.16637
4.17381
4.25223
4.37757
4.39037
4.49814
4.66049
4.68524
4.83668
5.02017
5.04007
5.1367
5.26828
5.28358
5.35774
5.43171
5.44301
5.47515
5.5205
5.56206
5.53877
5.56473
5.59171
5.56935
5.58223
5.59803
5.57969
5.57886
5.58336
5.57125
5.55535
5.55237
5.54855
5.5212
5.5131
5.51062
0.6148
0.659304
0.901966
1.41143
1.54205
2.27883
2.53677
3.36093
3.98473
4.16218
4.70292
4.73137
4.77163
4.72587
4.65078
4.59762
4.50071
4.45789
4.40462
4.37431
4.33701
4.27586
4.25864
4.21333
4.16393
4.16231
4.11505
4.1102
4.09897
4.07838
4.11659
4.10711
4.10273
4.17689
4.17179
4.19544
4.30781
4.30969
4.36896
4.5094
4.51716
4.60956
4.78607
4.80405
4.94073
5.12602
5.13671
5.23437
5.36363
5.37159
5.45451
5.52829
5.52629
5.57302
5.61481
5.63971
5.63543
5.65628
5.67211
5.66289
5.67053
5.68139
5.66792
5.66572
5.6692
5.65161
5.64487
5.63939
5.61968
5.61113
5.59854
5.58276
0.593692
0.632064
0.875043
1.32739
1.44028
2.06803
2.32553
3.01433
3.75114
3.92348
4.43215
4.72119
4.73732
4.8124
4.73815
4.75787
4.7104
4.64277
4.68728
4.61747
4.5863
4.61127
4.49815
4.50532
4.50659
4.38314
4.42943
4.43136
4.31213
4.39792
4.40362
4.3128
4.4093
4.42877
4.36295
4.47989
4.52911
4.48362
4.6281
4.70821
4.67552
4.85116
4.97209
4.95062
5.15207
5.27785
5.25217
5.40124
5.49989
5.47352
5.59901
5.66193
5.61743
5.70453
5.74781
5.72701
5.75499
5.79033
5.76187
5.77122
5.80554
5.7758
5.76507
5.79729
5.77016
5.73749
5.76545
5.74842
5.69477
5.71805
5.71563
5.65894
0.458198
0.471982
0.551844
0.765485
0.808812
1.18177
1.34562
1.84808
2.67403
2.89685
3.72267
4.31051
4.53466
4.99693
4.99216
5.3244
5.4054
5.4034
5.65433
5.62039
5.62161
5.7498
5.68211
5.68011
5.70487
5.64859
5.64239
5.62137
5.5647
5.57492
5.53497
5.49137
5.499
5.4707
5.44008
5.46323
5.47208
5.45451
5.50948
5.56056
5.55599
5.65712
5.7519
5.75332
5.8659
5.95072
5.95378
5.99616
6.06287
6.05828
6.11852
6.16444
6.15855
6.19096
6.21795
6.23186
6.2209
6.23533
6.23733
6.22291
6.23295
6.22399
6.20735
6.21078
6.19229
6.17458
6.16623
6.14688
6.12922
6.11102
6.09395
6.07054
0.44737
0.459033
0.53867
0.712648
0.760948
1.0907
1.22445
1.73687
2.44678
2.68548
3.45495
4.11288
4.34146
4.80064
4.89249
5.18331
5.36726
5.39842
5.59297
5.68952
5.69981
5.80062
5.8223
5.82072
5.84862
5.82385
5.81921
5.81536
5.75615
5.76781
5.75107
5.69542
5.69806
5.68873
5.6427
5.65837
5.67841
5.64569
5.6912
5.74969
5.73141
5.82416
5.92749
5.9175
6.03525
6.10679
6.07918
6.12951
6.19505
6.17914
6.24209
6.29036
6.26772
6.30968
6.33764
6.33453
6.33605
6.34841
6.34043
6.33379
6.33807
6.32832
6.31281
6.31015
6.2982
6.27337
6.26702
6.25289
6.21992
6.21319
6.19604
6.16148
0.398751
0.402573
0.431011
0.495814
0.51452
0.652668
0.701569
0.959982
1.38867
1.5175
2.09629
2.76627
2.98795
3.63736
3.80341
4.33028
4.764
4.8813
5.29383
5.60243
5.69648
6.00238
6.18542
6.24809
6.42821
6.51812
6.54502
6.62429
6.60973
6.66213
6.67835
6.65303
6.66734
6.65182
6.62223
6.62285
6.60883
6.58181
6.59099
6.60429
6.58972
6.64087
6.70442
6.70512
6.78747
6.7922
6.78572
6.78254
6.80275
6.79021
6.80871
6.83429
6.83024
6.83394
6.84809
6.8595
6.83159
6.83265
6.83286
6.80656
6.79979
6.79149
6.7694
6.75297
6.73761
6.7215
6.69358
6.67272
6.66328
6.6241
6.59985
6.57949
0.394282
0.39727
0.417823
0.470979
0.482533
0.595425
0.645325
0.833976
1.22034
1.3335
1.83648
2.49291
2.70747
3.38525
3.58088
4.14867
4.58247
4.71606
5.22696
5.49936
5.62267
6.01899
6.16019
6.26911
6.49124
6.5545
6.64115
6.7186
6.68449
6.80841
6.80304
6.76875
6.84129
6.7956
6.7627
6.80313
6.75827
6.73019
6.76248
6.74831
6.733
6.80145
6.85055
6.86182
6.93593
6.91912
6.90105
6.90588
6.91609
6.90032
6.92782
6.94624
6.93066
6.94848
6.957
6.95362
6.94361
6.93795