/*--------------------------------*- C++ -*----------------------------------*\
| =========                 |                                                 |
| \\      /  F ield         | OpenFOAM: The Open Source CFD Toolbox           |
|  \\    /   O peration     | Version:  v2012                                 |
|   \\  /    A nd           | Website:  www.openfoam.com                      |
|    \\/     M anipulation  |                                                 |
\*---------------------------------------------------------------------------*/
FoamFile
{
    version     2.0;
    format      ascii;
    class       volScalarField;
    location    "1e-06";
    object      kMean;
}
// * * * * * * * * * * * * * * * * * * * * * * * * * * * * * * * * * * * * * //

dimensions      [0 2 -2 0 0 0 0];


internalField   nonuniform List<scalar> 
10248
(
0.0392507
0.0371376
0.0167008
0.0104219
0.0107154
0.0139252
0.0130637
0.0148091
0.0165906
0.016898
0.0190615
0.0235639
0.0257812
0.0335756
0.0297333
0.0335456
0.0333604
0.0315641
0.0161249
0.0413973
0.0428654
0.0487324
0.0527455
0.0585482
0.0750966
0.0828463
0.0949331
0.11625
0.10481
0.120754
0.132703
0.134285
0.169512
0.213549
0.221013
0.269896
0.313233
0.319314
0.358014
0.397667
0.403891
0.446047
0.484396
0.488888
0.523989
0.554833
0.557074
0.584811
0.605397
0.604326
0.624195
0.640325
0.637695
0.656533
0.670234
0.673706
0.681628
0.693608
0.695701
0.700551
0.708729
0.710579
0.71172
0.694355
0.715487
0.712385
0.715657
0.714271
0.70658
0.711907
0.710546
0.698056
0.0687186
0.0648219
0.0319557
0.0221221
0.0195878
0.0236784
0.0239414
0.0251018
0.0292624
0.0289347
0.0312076
0.0409438
0.0417454
0.0522576
0.0531611
0.053894
0.060662
0.0609275
0.0701324
0.0768374
0.0767229
0.0811509
0.0950823
0.0938622
0.109814
0.133026
0.131197
0.156899
0.161771
0.163269
0.181307
0.18477
0.203114
0.248395
0.254858
0.296996
0.347044
0.352112
0.387133
0.435538
0.440769
0.477514
0.527245
0.531804
0.563619
0.603427
0.606069
0.627713
0.656271
0.657231
0.671367
0.693236
0.693426
0.706474
0.722894
0.7316
0.733208
0.744901
0.752214
0.753175
0.757135
0.766587
0.766266
0.756578
0.773244
0.771333
0.76807
0.774722
0.771496
0.771571
0.772499
0.768701
0.111552
0.106661
0.0576076
0.0423263
0.0370354
0.0409984
0.0421676
0.0427459
0.0510003
0.0509672
0.0530186
0.0671973
0.0669595
0.0780474
0.0807794
0.0834702
0.094237
0.0957093
0.0978283
0.117057
0.117463
0.12396
0.138619
0.137801
0.153461
0.175857
0.176317
0.202615
0.207729
0.224088
0.245571
0.248859
0.259066
0.300715
0.30736
0.345725
0.402228
0.408455
0.441452
0.501162
0.507734
0.543181
0.606487
0.611691
0.639106
0.688949
0.692344
0.709981
0.746385
0.748551
0.760692
0.78781
0.789702
0.800176
0.818859
0.831226
0.829939
0.840312
0.852944
0.851902
0.848673
0.868707
0.867565
0.841569
0.878712
0.877561
0.869744
0.884472
0.883568
0.882122
0.884896
0.887806
0.113755
0.108669
0.0660137
0.042926
0.0389587
0.0426321
0.042639
0.0492516
0.0518562
0.0518912
0.0595277
0.0677804
0.0689839
0.0800254
0.0811931
0.0880705
0.0953632
0.0963995
0.113717
0.117915
0.118579
0.131235
0.139433
0.139371
0.156567
0.176523
0.178356
0.204471
0.208416
0.228588
0.248583
0.249933
0.268679
0.303786
0.309064
0.358231
0.405509
0.41066
0.458907
0.505556
0.510842
0.564775
0.611775
0.616075
0.661443
0.695456
0.697415
0.729313
0.754476
0.754484
0.776385
0.797379
0.796078
0.812479
0.830887
0.838143
0.839941
0.857187
0.860302
0.860751
0.87959
0.876706
0.875832
0.876373
0.887703
0.885642
0.890935
0.895219
0.891698
0.89418
0.901111
0.896451
0.14956
0.143936
0.0917077
0.0650626
0.0591326
0.0616718
0.0621717
0.0669391
0.0734495
0.0737404
0.0796139
0.0876526
0.0880689
0.0948206
0.0959597
0.101305
0.110842
0.112411
0.126234
0.135335
0.136727
0.148705
0.159505
0.160397
0.175696
0.194337
0.197448
0.225194
0.230191
0.258534
0.291018
0.294388
0.316998
0.359403
0.365487
0.411041
0.469684
0.476193
0.524757
0.586884
0.593737
0.646402
0.709119
0.714912
0.755459
0.802157
0.805166
0.83245
0.867889
0.869362
0.888135
0.915912
0.916502
0.930698
0.952185
0.963741
0.962878
0.97895
0.988449
0.987321
0.997006
1.00725
1.00584
1.01022
1.02099
1.01925
1.01854
1.03091
1.02893
1.02971
1.03699
1.03761
0.179558
0.173518
0.115203
0.0866758
0.0791095
0.0791924
0.0803728
0.0820524
0.089967
0.0901576
0.0926638
0.0975329
0.0974818
0.100749
0.101443
0.105732
0.115992
0.11727
0.127195
0.141189
0.142934
0.156158
0.170688
0.172642
0.189809
0.211743
0.214258
0.245395
0.252021
0.284188
0.327672
0.333579
0.362229
0.415313
0.422964
0.465935
0.538371
0.546895
0.594133
0.674325
0.683124
0.73185
0.811852
0.819357
0.853168
0.91408
0.918685
0.939532
0.986055
0.989526
1.00356
1.03831
1.04173
1.0528
1.0768
1.09384
1.08994
1.10313
1.12087
1.11807
1.11673
1.1416
1.13959
1.12274
1.15707
1.15588
1.14731
1.16789
1.16799
1.16614
1.17204
1.17889
0.181991
0.175807
0.122041
0.0876268
0.0816438
0.0811253
0.080982
0.0866679
0.09075
0.090902
0.0951427
0.0978034
0.0980812
0.101321
0.101553
0.10656
0.116338
0.117454
0.125829
0.141519
0.143317
0.158182
0.171231
0.173685
0.192778
0.212582
0.21705
0.24854
0.253063
0.289341
0.331239
0.335303
0.373087
0.420501
0.426327
0.482737
0.545053
0.551977
0.617736
0.683401
0.690573
0.761264
0.823613
0.828984
0.884698
0.927756
0.930021
0.969381
1.00184
1.00199
1.02959
1.05646
1.05495
1.07481
1.09834
1.10804
1.10905
1.13102
1.13589
1.13547
1.15777
1.15756
1.15603
1.16247
1.17438
1.17187
1.18014
1.18772
1.18382
1.18786
1.19872
1.19546
0.209517
0.202935
0.144521
0.109519
0.101614
0.0974077
0.0977942
0.0991499
0.101868
0.101774
0.102323
0.104098
0.103974
0.107018
0.107874
0.112835
0.124326
0.125681
0.136364
0.152707
0.154367
0.170388
0.189522
0.191645
0.214813
0.24089
0.244057
0.279842
0.286266
0.32254
0.373003
0.379697
0.421024
0.481069
0.489044
0.543655
0.620926
0.630036
0.69372
0.776781
0.78588
0.851355
0.930079
0.93643
0.9843
1.04187
1.04589
1.07733
1.12172
1.12413
1.14539
1.17994
1.1816
1.19724
1.22335
1.23895
1.23644
1.25475
1.26875
1.26644
1.27639
1.29184
1.28976
1.30123
1.30963
1.30766
1.30629
1.32286
1.3212
1.32171
1.33059
1.33395
0.21218
0.20547
0.151898
0.110688
0.104813
0.0994484
0.0984679
0.101941
0.102415
0.102278
0.103801
0.104369
0.104655
0.10805
0.108104
0.115147
0.125237
0.126233
0.141094
0.153573
0.155508
0.175656
0.190603
0.194044
0.219959
0.242386
0.248859
0.284793
0.288106
0.330441
0.378178
0.382467
0.434622
0.488013
0.493888
0.563895
0.629872
0.63718
0.720561
0.788575
0.7959
0.883771
0.94429
0.949072
1.01909
1.05914
1.0605
1.11171
1.14144
1.14002
1.1767
1.20238
1.19838
1.22457
1.2496
1.25691
1.26051
1.2877
1.28764
1.28836
1.32207
1.3118
1.3104
1.3436
1.3311
1.32764
1.3446
1.34713
1.34085
1.34851
1.36212
1.35433
0.240811
0.233706
0.174956
0.134457
0.126128
0.114268
0.113431
0.110209
0.109602
0.109258
0.109174
0.111704
0.111719
0.117365
0.118428
0.126254
0.140075
0.141488
0.154734
0.17406
0.17585
0.195951
0.219005
0.221584
0.250648
0.28074
0.284854
0.32589
0.33236
0.373496
0.430352
0.437735
0.489822
0.558043
0.566678
0.632256
0.716423
0.726297
0.802686
0.892086
0.901771
0.978853
1.06036
1.06729
1.12379
1.18368
1.18761
1.22618
1.27242
1.27442
1.30062
1.33708
1.33802
1.35678
1.38535
1.40152
1.39921
1.42062
1.43426
1.43171
1.4458
1.45964
1.45705
1.46601
1.47936
1.47674
1.47838
1.49419
1.49162
1.49298
1.50346
1.5059
0.271239
0.264088
0.201072
0.159654
0.148242
0.127159
0.12618
0.115918
0.115661
0.115375
0.115608
0.122101
0.12153
0.130142
0.133117
0.140817
0.159725
0.162072
0.1741
0.200822
0.202457
0.221824
0.254405
0.255364
0.286438
0.32607
0.326401
0.372558
0.384171
0.422647
0.488935
0.500852
0.549086
0.6323
0.644885
0.702982
0.805835
0.819261
0.885083
0.996279
1.00927
1.07235
1.1756
1.1857
1.2269
1.30708
1.31478
1.33916
1.40169
1.4086
1.42302
1.46958
1.47732
1.48739
1.51837
1.54541
1.53628
1.55088
1.57978
1.57356
1.5694
1.60591
1.60225
1.58135
1.62534
1.62435
1.60942
1.63803
1.64076
1.63468
1.64075
1.65532
0.275374
0.267709
0.209224
0.161561
0.152254
0.128962
0.126832
0.117458
0.11625
0.115891
0.117576
0.122811
0.123266
0.132664
0.133966
0.145244
0.162109
0.163682
0.180013
0.203217
0.205298
0.229957
0.257093
0.260259
0.294921
0.329345
0.334461
0.3813
0.388142
0.435072
0.498445
0.506541
0.567309
0.643754
0.653195
0.727887
0.819905
0.830626
0.916409
1.01371
1.02412
1.1091
1.19657
1.20379
1.26651
1.33145
1.33553
1.37909
1.42914
1.43107
1.46081
1.50022
1.50097
1.52202
1.55302
1.57065
1.568
1.59134
1.60622
1.60312
1.61825
1.63366
1.63043
1.63614
1.65489
1.65167
1.65418
1.67073
1.6676
1.66909
1.68038
1.68306
0.310985
0.303439
0.240813
0.190157
0.17643
0.141878
0.139991
0.124252
0.125195
0.124984
0.127661
0.138266
0.137573
0.150148
0.154108
0.164417
0.187143
0.190014
0.205447
0.236174
0.237973
0.26154
0.299011
0.299873
0.335986
0.381231
0.381378
0.433495
0.446741
0.489748
0.562538
0.576002
0.630646
0.721099
0.735112
0.801209
0.91031
0.925058
0.999915
1.11658
1.13079
1.20263
1.30953
1.32056
1.3686
1.45205
1.46058
1.48974
1.55523
1.56292
1.57987
1.6291
1.63769
1.6487
1.68198
1.7115
1.70103
1.71756
1.74828
1.74094
1.73982
1.77598
1.77162
1.7557
1.79633
1.79512
1.78049
1.8093
1.81241
1.80527
1.81199
1.82767
0.316553
0.308306
0.250272
0.192756
0.181373
0.144128
0.140937
0.125958
0.126329
0.126091
0.130668
0.139466
0.140374
0.153782
0.155481
0.170103
0.190551
0.192406
0.212214
0.239563
0.241978
0.27102
0.302715
0.306381
0.346246
0.385597
0.39148
0.444294
0.451968
0.504524
0.574267
0.583242
0.650833
0.734719
0.745106
0.827264
0.926584
0.93825
1.03167
1.1363
1.14758
1.23959
1.33298
1.34086
1.40943
1.47941
1.48383
1.53201
1.58595
1.588
1.62099
1.66324
1.66399
1.68707
1.72022
1.73948
1.73642
1.76127
1.77757
1.77388
1.78999
1.8067
1.80284
1.80888
1.82904
1.82524
1.82839
1.84542
1.84184
1.8433
1.85502
1.85805
0.361062
0.353224
0.290559
0.230347
0.212258
0.162999
0.160795
0.138238
0.141651
0.141377
0.146111
0.161265
0.160122
0.176477
0.181721
0.194102
0.221113
0.22467
0.24275
0.278587
0.280541
0.307855
0.351103
0.351657
0.392612
0.444321
0.443828
0.501978
0.51747
0.564308
0.643527
0.658963
0.71816
0.815942
0.831791
0.903412
1.01979
1.03626
1.11709
1.24132
1.25723
1.33487
1.44872
1.4614
1.51398
1.60358
1.61363
1.6454
1.71586
1.72522
1.743
1.7959
1.8065
1.81708
1.85271
1.88629
1.87337
1.89078
1.92535
1.91624
1.91505
1.95433
1.9491
1.93248
1.9751
1.97407
1.95726
1.98768
1.99221
1.98269
1.98934
2.00788
0.36873
0.360005
0.302848
0.23452
0.219513
0.167107
0.162766
0.141412
0.143767
0.143509
0.150597
0.163167
0.164234
0.181371
0.183793
0.201295
0.225704
0.228017
0.251614
0.283139
0.285843
0.318938
0.355986
0.359834
0.404612
0.449921
0.45594
0.514738
0.524067
0.581257
0.657325
0.667787
0.740332
0.831616
0.843473
0.931138
1.03814
1.05125
1.15033
1.26326
1.27599
1.37354
1.47484
1.48402
1.5571
1.6341
1.6396
1.69052
1.75004
1.7532
1.78752
1.8337
1.8358
1.85921
1.89463
1.91743
1.91259
1.9378
1.95793
1.95285
1.96779
1.98849
1.98376
1.98977
2.01143
2.00739
2.0086
2.02759
2.02466
2.02452
2.03584
2.04138
0.426864
0.41915
0.356341
0.290714
0.265681
0.20068
0.198423
0.163712
0.168664
0.167862
0.17263
0.19247
0.190226
0.209802
0.216805
0.230102
0.262034
0.266499
0.285856
0.328278
0.330341
0.36041
0.410818
0.410694
0.456077
0.515307
0.513393
0.577448
0.595959
0.645185
0.730937
0.748942
0.81042
0.916106
0.934306
1.00855
1.13359
1.15231
1.23594
1.37013
1.3884
1.46901
1.5933
1.60841
1.66307
1.76207
1.77453
1.80644
1.88423
1.89633
1.9128
1.97062
1.98465
1.9931
2.03121
2.07066
2.05397
2.07116
2.11181
2.10019
2.09564
2.1417
2.13546
2.11313
2.16237
2.16203
2.14015
2.17383
2.18107
2.16761
2.17343
2.19677
0.436079
0.427181
0.374005
0.296675
0.276903
0.207892
0.201801
0.170174
0.171857
0.171123
0.179182
0.194775
0.195547
0.215714
0.219128
0.239029
0.267208
0.27014
0.298135
0.333033
0.336003
0.373249
0.415443
0.419308
0.468803
0.520055
0.526015
0.59021
0.601401
0.662653
0.743939
0.755981
0.833002
0.929938
0.943247
1.03642
1.14887
1.16334
1.26888
1.38767
1.40177
1.50678
1.61374
1.62408
1.70448
1.78602
1.79225
1.84858
1.91125
1.91486
1.9527
2.00108
2.00348
2.02897
2.06602
2.09053
2.08532
2.11197
2.13313
2.12748
2.14493
2.1649
2.15959
2.17242
2.18839
2.18377
2.18631
2.20451
2.20116
2.20104
2.21247
2.21811
0.446642
0.436916
0.393903
0.303116
0.290453
0.21763
0.206529
0.180332
0.17562
0.175196
0.187156
0.197391
0.201507
0.222492
0.221788
0.24763
0.272939
0.274353
0.309029
0.338166
0.34249
0.386313
0.420392
0.42884
0.482575
0.525178
0.539245
0.604011
0.607153
0.679763
0.757792
0.763507
0.853767
0.944443
0.952806
1.06085
1.16471
1.17511
1.29704
1.40578
1.41601
1.53943
1.63521
1.64112
1.74175
1.81111
1.81135
1.88871
1.93993
1.93502
1.99312
2.0337
2.02396
2.06721
2.1036
2.11179
2.11977
2.15587
2.15588
2.15773
2.19475
2.18957
2.18616
2.21957
2.21601
2.20759
2.23226
2.23727
2.22302
2.23753
2.25455
2.24075
0.528008
0.519115
0.472468
0.391369
0.36598
0.278379
0.269831
0.220633
0.21549
0.213327
0.219207
0.236457
0.23613
0.258354
0.263176
0.284587
0.316395
0.32019
0.351646
0.390663
0.393842
0.435205
0.482747
0.486239
0.540298
0.597914
0.60314
0.672338
0.686133
0.750245
0.836397
0.850748
0.931002
1.03326
1.04869
1.14597
1.26392
1.28048
1.39118
1.51672
1.53305
1.64487
1.75959
1.77214
1.85906
1.94703
1.95534
2.01598
2.08326
2.08893
2.1284
2.17985
2.1845
2.21
2.24898
2.27764
2.27005
2.29763
2.32222
2.31473
2.3335
2.35479
2.34849
2.36101
2.37814
2.3736
2.37474
2.39327
2.39133
2.3889
2.39998
2.40817
0.544386
0.534227
0.493503
0.403781
0.386252
0.294712
0.279357
0.232729
0.222265
0.220307
0.228133
0.240963
0.244098
0.266932
0.267619
0.293928
0.324403
0.326525
0.361524
0.398407
0.402851
0.44814
0.490659
0.498539
0.555711
0.60644
0.619013
0.689154
0.695691
0.769443
0.854371
0.862843
0.953132
1.05293
1.06373
1.17115
1.28609
1.29884
1.42006
1.54265
1.55539
1.67898
1.79064
1.79894
1.89977
1.98389
1.98656
2.06212
2.12476
2.12252
2.17756
2.22554
2.21935
2.25967
2.2989
2.3143
2.31797
2.35134
2.36073
2.3597
2.38768
2.39541
2.39047
2.41155
2.42164
2.41321
2.42978
2.44119
2.42914
2.43927
2.45399
2.44706
0.6574
0.647817
0.602903
0.529007
0.496652
0.390837
0.379611
0.301928
0.282824
0.27743
0.274506
0.292193
0.28916
0.311982
0.31894
0.339561
0.375628
0.38058
0.412937
0.45846
0.461596
0.505646
0.560503
0.562714
0.620801
0.686375
0.689154
0.763396
0.781229
0.845763
0.937731
0.955654
1.03604
1.14556
1.16428
1.26165
1.38847
1.40828
1.51955
1.65681
1.67679
1.79061
1.92017
1.9369
2.0254
2.12692
2.13967
2.19917
2.27685
2.2876
2.32283
2.38095
2.39203
2.41212
2.45413
2.49261
2.47793
2.50441
2.53903
2.52692
2.54022
2.57176
2.56377
2.56571
2.59378
2.59097
2.58253
2.60614
2.6098
2.59959
2.609
2.62596
0.680253
0.669101
0.628029
0.548118
0.524877
0.414503
0.395367
0.316168
0.293753
0.288417
0.285007
0.298803
0.299568
0.322361
0.32515
0.350491
0.385466
0.3887
0.423821
0.468034
0.472478
0.519428
0.570155
0.576878
0.637216
0.696467
0.706713
0.781461
0.792529
0.8664
0.957157
0.969495
1.05943
1.16679
1.18104
1.28803
1.41224
1.42833
1.54975
1.68442
1.70092
1.8265
1.95298
1.96531
2.06845
2.16683
2.1738
2.24819
2.32191
2.32454
2.37527
2.43016
2.43037
2.46542
2.50717
2.53307
2.52979
2.56026
2.58155
2.57592
2.59589
2.61658
2.6097
2.62001
2.64158
2.63427
2.64098
2.65807
2.65107
2.65379
2.66555
2.66867
0.845751
0.832543
0.77017
0.717284
0.673973
0.556751
0.545523
0.423516
0.386578
0.37507
0.351077
0.36843
0.359377
0.38026
0.390756
0.405498
0.447213
0.4536
0.482703
0.537862
0.540432
0.584017
0.649295
0.648861
0.709453
0.785078
0.783061
0.86225
0.885559
0.947261
1.04636
1.06881
1.14543
1.26458
1.28726
1.38028
1.51915
1.54282
1.65
1.80292
1.82729
1.93872
2.08909
2.11124
2.19694
2.31804
2.33676
2.3907
2.48415
2.50185
2.52841
2.59628
2.61631
2.62721
2.67311
2.72459
2.70013
2.72356
2.77237
2.75428
2.75613
2.80455
2.79482
2.77878
2.82434
2.82443
2.80043
2.83289
2.8446
2.82329
2.83005
2.85909
0.875912
0.860548
0.809496
0.740115
0.713055
0.589072
0.565474
0.450658
0.401939
0.3907
0.367331
0.3765
0.373437
0.393246
0.397911
0.421089
0.458146
0.462475
0.500184
0.547681
0.552077
0.602361
0.658409
0.664
0.727826
0.793737
0.80208
0.880547
0.895465
0.970192
1.06477
1.08056
1.17211
1.28367
1.30102
1.41074
1.5396
1.55875
1.68467
1.82581
1.84576
1.97897
2.11564
2.13235
2.2438
2.3509
2.36187
2.44159
2.52168
2.52833
2.57956
2.63788
2.6428
2.67574
2.7192
2.75236
2.74431
2.77496
2.80243
2.79339
2.81406
2.83742
2.82916
2.84472
2.86104
2.85471
2.85784
2.87499
2.87175
2.86946
2.87987
2.88838
0.912777
0.893867
0.849564
0.764898
0.750924
0.628451
0.591077
0.487417
0.420658
0.409464
0.388711
0.385942
0.388425
0.408172
0.406082
0.435838
0.470479
0.472313
0.515698
0.558667
0.564509
0.619392
0.668591
0.679314
0.746216
0.803543
0.820126
0.89954
0.905599
0.990618
1.08418
1.09274
1.19475
1.30383
1.31535
1.43569
1.56111
1.57533
1.71242
1.84982
1.86507
2.01086
2.14303
2.15411
2.28215
2.38548
2.38857
2.48585
2.56157
2.55692
2.62717
2.68235
2.67167
2.72389
2.76827
2.78211
2.79051
2.82791
2.83453
2.83573
2.86818
2.87253
2.86687
2.8942
2.90035
2.88807
2.91049
2.92032
2.90146
2.91734
2.93228
2.91937
1.19116
1.16168
1.06386
0.998616
0.963718
0.839088
0.812073
0.664516
0.573459
0.551993
0.495258
0.489947
0.47905
0.490425
0.496803
0.513078
0.550562
0.555753
0.59289
0.644163
0.647895
0.700058
0.761822
0.765274
0.832029
0.90478
0.909785
0.991792
1.01096
1.08482
1.18367
1.20325
1.29452
1.41118
1.43197
1.54197
1.67696
1.6995
1.82683
1.97675
2.00071
2.13821
2.29078
2.31226
2.42991
2.55055
2.56707
2.65042
2.74079
2.75345
2.80296
2.86668
2.87855
2.90646
2.95294
2.99557
2.97996
3.01131
3.04667
3.0325
3.05185
3.08074
3.07069
3.0788
3.10191
3.09777
3.09323
3.1124
3.11545
3.10458
3.1142
3.12984
1.25049
1.21761
1.10596
1.03592
1.01201
0.887578
0.850649
0.699326
0.60488
0.58298
0.517597
0.506372
0.499993
0.509344
0.510561
0.529639
0.56736
0.570558
0.607679
0.659738
0.664908
0.717512
0.776756
0.784734
0.852319
0.919491
0.931357
1.01391
1.02687
1.10814
1.20734
1.22173
1.31955
1.43667
1.45325
1.56912
1.7048
1.72383
1.85704
2.00813
2.0289
2.17344
2.32585
2.34401
2.47305
2.59665
2.60749
2.70242
2.79353
2.79764
2.86061
2.92389
2.9243
2.96688
3.01341
3.04347
3.04053
3.07299
3.09719
3.09085
3.11134
3.1341
3.12554
3.13625
3.15861
3.14896
3.15633
3.1729
3.16341
3.16692
3.17698
3.17971
1.7161
1.65527
1.44149
1.36635
1.30094
1.17735
1.16206
0.966242
0.849735
0.810942
0.693882
0.670368
0.639181
0.631554
0.643682
0.63702
0.677187
0.683282
0.708213
0.770203
0.770893
0.817554
0.892354
0.889155
0.955633
1.04114
1.03611
1.12215
1.1493
1.21502
1.32191
1.34773
1.43037
1.55822
1.58405
1.68495
1.83378
1.86089
1.97937
2.14683
2.17605
2.3069
2.4851
2.51476
2.62967
2.77767
2.80293
2.87823
2.99128
3.01475
3.0507
3.12799
3.15354
3.16557
3.21744
3.27887
3.2476
3.27454
3.33016
3.30651
3.31
3.36196
3.34926
3.33265
3.37875
3.37933
3.35119
3.38282
3.39871
3.36951
3.3757
3.40873
1.80561
1.7403
1.51519
1.41343
1.37157
1.24333
1.20663
1.04224
0.895082
0.857537
0.73342
0.693666
0.67297
0.65889
0.661541
0.665753
0.698435
0.701857
0.735384
0.787898
0.791726
0.844463
0.907796
0.913048
0.98188
1.05491
1.06312
1.14751
1.16521
1.24513
1.34688
1.36553
1.46358
1.58342
1.60383
1.72127
1.85986
1.88265
2.01914
2.17491
2.20002
2.35168
2.51634
2.5415
2.68309
2.8179
2.83524
2.93899
3.03806
3.04897
3.11334
3.17962
3.18748
3.2259
3.27393
3.31408
3.30345
3.33668
3.3683
3.35645
3.37916
3.40355
3.39312
3.40765
3.42468
3.41758
3.41995
3.43452
3.43223
3.42694
3.43537
3.4453
1.90677
1.83393
1.613
1.46587
1.43855
1.30949
1.25923
1.10715
0.948555
0.910132
0.787659
0.72142
0.70921
0.691103
0.682739
0.693237
0.722652
0.722233
0.760627
0.80829
0.813304
0.869338
0.925902
0.936263
1.00712
1.07145
1.08758
1.17292
1.18151
1.27066
1.37267
1.38384
1.49036
1.60984
1.62415
1.74944
1.88735
1.90491
2.04909
2.20433
2.22444
2.38463
2.5496
2.56675
2.72082
2.85904
2.86855
2.98612
3.0863
3.08547
3.1659
3.23288
3.22459
3.28099
3.33075
3.35207
3.35827
3.39521
3.40933
3.40836
3.4361
3.44831
3.44031
3.46122
3.47405
3.45945
3.47682
3.48921
3.46901
3.48261
3.49384
3.48411
2.49734
2.41597
2.16761
1.9831
1.89525
1.73086
1.70257
1.5104
1.33714
1.28162
1.1028
1.00868
0.960297
0.90264
0.904635
0.873363
0.893322
0.895119
0.916344
0.968978
0.968623
1.01714
1.08561
1.08398
1.15161
1.23212
1.23134
1.3169
1.34027
1.41371
1.5192
1.54244
1.63519
1.76019
1.78431
1.89721
2.04247
2.06858
2.20135
2.3661
2.39513
2.54579
2.72738
2.7624
2.90936
3.06556
3.09022
3.1973
3.31315
3.33278
3.39305
3.46809
3.48588
3.5146
3.56684
3.61952
3.59718
3.63064
3.67299
3.65344
3.67126
3.70524
3.69227
3.6952
3.72165
3.71807
3.70717
3.72585
3.73308
3.71377
3.72118
3.74039
2.59774
2.5204
2.25652
2.05946
1.98129
1.80612
1.76758
1.58422
1.40664
1.35312
1.15072
1.05272
1.01049
0.942358
0.937475
0.903684
0.925056
0.924377
0.932116
0.995845
0.997897
1.04297
1.10892
1.11375
1.18009
1.25257
1.26108
1.3461
1.36227
1.44335
1.54877
1.56611
1.66511
1.79007
1.80959
1.92798
2.07307
2.09544
2.23383
2.39811
2.42364
2.58173
2.76163
2.79112
2.95441
3.10912
3.12757
3.25057
3.36384
3.37258
3.45111
3.52281
3.52529
3.57417
3.62422
3.65977
3.65585
3.6895
3.71657
3.7087
3.72988
3.75255
3.7424
3.75262
3.77318
3.7623
3.76918
3.78162
3.77152
3.77324
3.77958
3.78166
2.68063
2.60795
2.42197
2.14636
2.10988
1.92074
1.85032
1.69802
1.49521
1.44202
1.27262
1.10719
1.08992
1.01434
0.980841
0.969383
0.970625
0.960942
0.998571
1.03114
1.03474
1.09444
1.13859
1.15223
1.22507
1.27883
1.30143
1.38723
1.38618
1.48588
1.58763
1.5918
1.70958
1.82764
1.83687
1.97407
2.11043
2.12419
2.28143
2.43622
2.45369
2.63071
2.80293
2.82189
3.00409
3.15767
3.16554
3.31253
3.42187
3.41488
3.51734
3.58738
3.56818
3.64073
3.69355
3.70322
3.72002
3.76299
3.76336
3.76855
3.80638
3.80372
3.79667
3.83042
3.83005
3.81027
3.84002
3.84548
3.81333
3.8376
3.85037
3.82498
2.83763
2.87905
3.00287
2.82961
2.74286
2.52108
2.46484
2.25433
2.05284
1.99162
1.77387
1.59878
1.52682
1.38825
1.37069
1.28227
1.26112
1.25486
1.251
1.29086
1.28632
1.32413
1.38471
1.38095
1.44158
1.51595
1.51511
1.59629
1.61674
1.69057
1.79329
1.81413
1.90882
2.03138
2.05382
2.17024
2.31404
2.33917
2.47697
2.64043
2.6691
2.82854
3.01483
3.05208
3.23091
3.40253
3.42766
3.56188
3.68713
3.70471
3.78502
3.86136
3.87299
3.91485
3.96733
4.01331
3.99852
4.03455
4.0678
4.05211
4.07662
4.09922
4.08629
4.09956
4.11365
4.10616
4.10566
4.11531
4.11467
4.10292
4.10858
4.11688
2.81114
2.88637
3.07434
2.92345
2.85101
2.62615
2.56703
2.34097
2.15537
2.09565
1.86112
1.68381
1.61566
1.46689
1.44125
1.34104
1.32338
1.31265
1.29557
1.34264
1.33871
1.36907
1.4298
1.42991
1.488
1.55609
1.56091
1.64295
1.65677
1.73426
1.84015
1.85546
1.95097
2.07846
2.09647
2.21183
2.3618
2.38325
2.51936
2.68899
2.71432
2.87252
3.06588
3.09634
3.27453
3.45994
3.48184
3.62294
3.75516
3.76509
3.85307
3.93372
3.93493
3.98773
4.04062
4.07656
4.07343
4.10652
4.13421
4.12656
4.14447
4.16885
4.15783
4.16501
4.18629
4.17307
4.17667
4.18967
4.17605
4.1774
4.18063
4.18031
2.34307
2.51835
3.02188
3.26723
3.27247
3.27232
3.24727
3.05323
2.90034
2.82468
2.56785
2.40216
2.27529
2.08478
2.07995
1.88185
1.82835
1.81158
1.74134
1.78512
1.75885
1.76216
1.83707
1.80052
1.84319
1.93703
1.89665
1.97303
2.00997
2.04579
2.15352
2.18473
2.24611
2.37941
2.40812
2.49524
2.65357
2.68244
2.79231
2.97065
3.00197
3.13446
3.34159
3.38307
3.55149
3.76339
3.79655
3.9146
4.0707
4.10434
4.16095
4.25524
4.28778
4.30054
4.35933
4.43355
4.38992
4.4197
4.48218
4.4482
4.45212
4.50533
4.48629
4.46695
4.509
4.50856
4.47188
4.49694
4.51699
4.47262
4.47366
4.50713
2.1815
2.38177
3.09443
3.31883
3.42706
3.43773
3.35947
3.25303
3.0391
2.97225
2.7466
2.52306
2.43716
2.22132
2.17853
2.01548
1.9288
1.90539
1.84165
1.86349
1.84819
1.8521
1.9008
1.88639
1.92427
1.98953
1.9789
2.0465
2.06552
2.12508
2.2213
2.2404
2.32315
2.44281
2.4637
2.57091
2.71407
2.73771
2.86708
3.02877
3.05595
3.20702
3.39871
3.43447
3.62599
3.8217
3.85334
4.00443
4.14275
4.16138
4.25264
4.33236
4.34268
4.38972
4.44163
4.48645
4.47366
4.50806
4.539
4.52422
4.54748
4.56669
4.55331
4.56665
4.57581
4.56638
4.56613
4.57033
4.56636
4.55487
4.55564
4.55951
2.06157
2.26975
2.95038
3.2997
3.40429
3.48488
3.42987
3.3422
3.157
3.09183
2.86329
2.6368
2.5594
2.34596
2.28716
2.1242
2.03669
2.00294
1.94136
1.95344
1.93697
1.94208
1.97579
1.96708
2.00587
2.05301
2.05265
2.12134
2.1247
2.19368
2.29126
2.29827
2.38816
2.50902
2.52041
2.63333
2.77758
2.79344
2.92726
3.09012
3.11019
3.2651
3.45836
3.4869
3.68027
3.88376
3.90988
4.06486
4.21017
4.21878
4.31892
4.40311
4.3991
4.45853
4.51242
4.54272
4.54353
4.57703
4.59867
4.59307
4.61216
4.63015
4.61866
4.628
4.64286
4.62604
4.6309
4.63946
4.61884
4.62233
4.623
4.61418
1.31904
1.44684
2.14523
2.7774
3.00662
3.52465
3.6161
3.87751
3.93326
3.87877
3.75496
3.59361
3.47901
3.26707
3.23203
3.00402
2.88969
2.8512
2.74102
2.73996
2.69495
2.66216
2.69735
2.64265
2.65123
2.71547
2.65947
2.70704
2.73327
2.74572
2.82991
2.85207
2.89582
3.00839
3.02928
3.1036
3.24463
3.26663
3.36737
3.52814
3.55253
3.6762
3.87037
3.90663
4.07747
4.29264
4.32747
4.45401
4.60924
4.63827
4.71011
4.79952
4.82317
4.84697
4.90186
4.96446
4.92849
4.95883
5.00687
4.97668
4.9871
5.02374
5.00404
4.99556
5.0202
5.01441
4.98827
5.00017
5.01027
4.97262
4.97035
4.98845
1.15552
1.28938
1.877
2.62294
2.88099
3.57448
3.63421
4.1585
4.06632
4.03077
3.95703
3.74178
3.67027
3.43891
3.37198
3.18055
3.04112
2.99904
2.87624
2.8719
2.83955
2.78488
2.80932
2.77527
2.76644
2.80945
2.77856
2.81467
2.82772
2.85202
2.93054
2.94348
2.99274
3.10206
3.11691
3.19411
3.33246
3.35051
3.4543
3.61133
3.6325
3.75793
3.94936
3.98194
4.15818
4.3683
4.39776
4.54496
4.68996
4.70669
4.803
4.88258
4.88836
4.93908
4.98777
5.02546
5.01712
5.04725
5.07162
5.05962
5.07871
5.09268
5.07941
5.09022
5.09354
5.08063
5.08006
5.07776
5.06698
5.05762
5.05234
5.04724
1.09202
1.21574
1.80537
2.49876
2.73156
3.38719
3.53003
3.96514
4.11073
4.08892
4.04847
3.86759
3.81038
3.60528
3.51634
3.34824
3.21466
3.15437
3.07603
3.03252
2.99868
2.97534
2.94902
2.93068
2.93609
2.92886
2.9273
2.96553
2.93752
2.99415
3.06451
3.04731
3.12648
3.22166
3.21404
3.31856
3.44093
3.44132
3.5702
3.71257
3.71812
3.86873
4.04559
4.06208
4.25718
4.45418
4.46705
4.63092
4.77441
4.77597
4.88636
4.96829
4.95386
5.0211
5.0729
5.0902
5.09764
5.13096
5.13958
5.13742
5.15926
5.16466
5.15268
5.16659
5.16939
5.14721
5.15604
5.15641
5.1254
5.13292
5.13077
5.1076
0.668405
0.715562
1.04638
1.58248
1.74466
2.48262
2.70483
3.45087
4.04999
4.18155
4.56016
4.65447
4.63023
4.58103
4.52667
4.42081
4.33076
4.28679
4.22597
4.19508
4.14501
4.10376
4.08656
4.02402
3.99507
4.00693
3.94232
3.94491
3.94553
3.92596
3.96023
3.96026
3.97054
4.0332
4.03525
4.07958
4.17678
4.18401
4.26274
4.38804
4.40052
4.50901
4.67134
4.69463
4.84069
5.01744
5.04297
5.14447
5.27507
5.29186
5.36589
5.44069
5.45275
5.48377
5.52928
5.57242
5.54735
5.57361
5.60174
5.57817
5.59127
5.60765
5.5889
5.58792
5.59252
5.5809
5.56412
5.56114
5.55871
5.52975
5.52171
5.52038
0.616748
0.659511
0.90398
1.41777
1.54124
2.28683
2.53707
3.36728
3.99054
4.16373
4.70913
4.73465
4.77608
4.72896
4.65397
4.59998
4.50275
4.46021
4.40589
4.37619
4.33864
4.27649
4.26033
4.21445
4.16441
4.16386
4.11576
4.11079
4.10043
4.07856
4.11729
4.10839
4.10254
4.17763
4.17288
4.1951
4.30862
4.31065
4.3686
4.51026
4.51805
4.60915
4.78701
4.80458
4.93623
5.11675
5.13214
5.23326
5.36395
5.37211
5.4546
5.52889
5.52717
5.57339
5.61512
5.64089
5.63595
5.65647
5.67322
5.66368
5.67055
5.68239
5.66888
5.66575
5.66999
5.65265
5.64515
5.63992
5.62074
5.61174
5.59874
5.58374
0.595851
0.632599
0.87898
1.33519
1.4409
2.07567
2.32457
3.01249
3.75551
3.91682
4.42471
4.72632
4.73486
4.81062
4.73862
4.75367
4.70593
4.63873
4.68046
4.61086
4.57935
4.60345
4.48983
4.49723
4.49827
4.37357
4.42114
4.42272
4.30213
4.38968
4.39462
4.30275
4.40128
4.41955
4.35308
4.47216
4.52011
4.47405
4.62055
4.69953
4.66596
4.8436
4.96356
4.93993
5.1407
5.26421
5.24048
5.39419
5.49331
5.46409
5.59171
5.65484
5.60858
5.69715
5.74086
5.71859
5.74757
5.78362
5.75392
5.76378
5.79905
5.7683
5.75749
5.79084
5.76306
5.72973
5.75887
5.74174
5.68671
5.71139
5.70923
5.6512
0.457456
0.470506
0.549513
0.762456
0.801989
1.17637
1.33612
1.83857
2.66604
2.88666
3.71556
4.30413
4.53415
4.99857
4.99591
5.32931
5.413
5.4113
5.66461
5.63019
5.6317
5.76068
5.69429
5.69173
5.71594
5.66248
5.65439
5.63275
5.57846
5.58659
5.54646
5.50461
5.51008
5.48212
5.45245
5.47363
5.48312
5.46589
5.51923
5.5711
5.56661
5.66647
5.76219
5.76274
5.87019
5.94869
5.95282
6.00049
6.06788
6.06583
6.12494
6.17124
6.16685
6.19801
6.22462
6.24043
6.22797
6.24205
6.24553
6.23022
6.23982
6.23179
6.21502
6.21781
6.19964
6.18267
6.17336
6.1538
6.13777
6.1181
6.10065
6.07866
0.448018
0.459216
0.540112
0.715666
0.761537
1.09638
1.22572
1.74405
2.45696
2.6854
3.45861
4.12208
4.3381
4.80699
4.89444
5.1896
5.37291
5.40331
5.59576
5.69233
5.70135
5.79966
5.82165
5.81882
5.84461
5.82007
5.81453
5.80928
5.75034
5.7609
5.74352
5.68803
5.68984
5.68039
5.63438
5.64959
5.66988
5.63696
5.68241
5.74136
5.72252
5.81548
5.91952
5.90754
6.01407
6.09087
6.06645
6.1211
6.18738
6.1704
6.23411
6.28295
6.25989
6.30248
6.33051
6.32709
6.32903
6.34148
6.33332
6.32702
6.33127
6.32151
6.30616
6.30347
6.29161
6.26664
6.26049
6.24644
6.213
6.20682
6.18964
6.15469
0.398237
0.401946
0.43029
0.494635
0.512165
0.650309
0.696486
0.955173
1.38224
1.50495
2.08489
2.75429
2.97272
3.62593
3.79256
4.3218
4.7601
4.87718
5.29159
5.60279
5.69588
6.00583
6.19101
6.25227
6.4354
6.52719
6.5527
6.63404
6.61972
6.67185
6.68898
6.66412
6.67813
6.66286
6.63363
6.63394
6.61976
6.59284
6.60171
6.61469
6.59989
6.65072
6.71279
6.70925
6.7794
6.79367
6.78666
6.78527
6.80688
6.79727
6.81553
6.84109
6.83816
6.84086
6.85504
6.86757
6.83842
6.83979
6.84056
6.81346
6.80711
6.79884
6.77653
6.76033
6.74466
6.72904
6.70065
6.67958
6.67131
6.63088
6.60671
6.58709
0.393361
0.396418
0.417413
0.471448
0.482396
0.597202
0.645957
0.836337
1.22628
1.33414
1.84245
2.50207
2.70835
3.39532
3.58318
4.15503
4.59181
4.72117
5.23843
5.50453
5.62554
6.02627
6.1648
6.27337
6.49661
6.55953
6.64732
6.72467
6.68914
6.81343
6.80593
6.77091
6.84408
6.796
6.7626
6.80374
6.7569
6.72838
6.7611
6.74546
6.7294
6.79664
6.83784
6.83864
6.92168
6.9114
6.89339
6.90076
6.9111
6.89472
6.92368
6.94151
6.92574
6.94423
6.95231
6.94852
6.93894
6.93326
6.92369