/*--------------------------------*- C++ -*----------------------------------*\
| =========                 |                                                 |
| \\      /  F ield         | OpenFOAM: The Open Source CFD Toolbox           |
|  \\    /   O peration     | Version:  v2012                                 |
|   \\  /    A nd           | Website:  www.openfoam.com                      |
|    \\/     M anipulation  |                                                 |
\*---------------------------------------------------------------------------*/
FoamFile
{
    version     2.0;
    format      ascii;
    class       volScalarField;
    location    "1e-06";
    object      kPrime2Mean;
}
// * * * * * * * * * * * * * * * * * * * * * * * * * * * * * * * * * * * * * //

dimensions      [0 4 -4 0 0 0 0];


internalField   nonuniform List<scalar> 
10248
(
1.14793e-08
1.12643e-08
1.6749e-09
1.18955e-10
2.1622e-10
9.1903e-11
2.87834e-12
1.60466e-10
1.05681e-11
1.8876e-11
5.46738e-13
7.18239e-11
9.70432e-12
1.08456e-10
1.0251e-10
2.20639e-09
2.98116e-09
2.57039e-09
7.16016e-10
2.98722e-09
4.36057e-09
7.17453e-09
1.38085e-09
2.16335e-09
2.08626e-09
2.14253e-09
3.95477e-10
8.73451e-09
6.45954e-09
4.05752e-11
5.01727e-10
5.39295e-10
1.53879e-07
2.93305e-07
2.36313e-07
6.88468e-07
5.63577e-07
4.86267e-07
1.05666e-06
8.40716e-07
1.61383e-07
1.10171e-06
4.91967e-07
4.57581e-07
2.25602e-06
1.61987e-06
1.1723e-06
2.52485e-06
1.71998e-06
1.07908e-06
2.46161e-06
1.86914e-06
1.00983e-06
2.17069e-06
1.85055e-06
8.0568e-07
1.81773e-06
1.88837e-06
9.02957e-07
1.47838e-06
1.88023e-06
9.7572e-07
1.24499e-06
1.17562e-07
1.02537e-06
8.14672e-07
1.67361e-06
1.06735e-06
5.84076e-07
1.19328e-06
1.14517e-06
5.61414e-07
5.17373e-11
1.58839e-11
3.5257e-10
1.27052e-10
1.36674e-10
2.09723e-10
1.42646e-10
1.26908e-10
6.94162e-11
6.31589e-11
2.14469e-10
9.15625e-11
2.14774e-10
3.92773e-10
3.17115e-11
1.45162e-10
7.61358e-12
6.49221e-11
2.06688e-10
1.60731e-10
6.47749e-11
5.1629e-12
2.25474e-11
1.15434e-12
2.14401e-12
4.6469e-11
2.37094e-11
9.12057e-12
7.47768e-10
1.84768e-09
1.2896e-11
1.21582e-09
1.36138e-08
4.50215e-08
2.3151e-08
8.15423e-08
6.74685e-08
3.75587e-08
1.36927e-07
8.98275e-08
5.06397e-08
7.53656e-08
4.29283e-08
1.56729e-08
1.56735e-07
8.51135e-08
3.30721e-08
1.4979e-07
7.83981e-08
2.5795e-08
1.09511e-07
6.82298e-08
1.1534e-08
7.98357e-08
5.90603e-08
8.54466e-09
5.696e-08
8.05065e-08
1.23826e-08
4.53318e-08
1.27809e-07
1.65868e-08
3.58403e-08
4.73734e-09
1.79376e-08
1.07311e-08
7.45834e-08
1.39671e-08
4.63199e-10
1.93262e-08
1.38107e-08
3.26545e-09
3.74761e-08
3.92859e-08
6.50967e-09
5.74546e-09
3.39109e-09
3.73038e-09
4.76132e-09
1.27882e-09
7.84641e-09
4.92906e-09
2.32877e-09
1.44183e-08
5.52709e-09
1.58791e-08
2.16156e-08
1.04087e-08
3.3397e-08
3.67048e-08
2.09096e-09
5.98247e-08
5.85799e-08
1.14039e-08
9.17788e-08
3.20067e-08
2.66585e-08
1.30939e-07
1.00218e-07
1.54957e-07
1.71595e-07
1.20789e-07
3.27965e-07
1.49194e-07
9.30697e-08
3.58316e-07
3.14326e-07
1.28801e-07
6.19329e-07
4.95277e-07
1.90144e-07
1.04275e-06
6.60902e-07
1.3795e-07
7.9152e-07
8.90467e-07
6.20784e-07
1.66307e-06
1.62121e-06
1.13918e-06
2.6426e-06
2.67698e-06
2.1023e-06
2.98956e-06
3.14142e-06
2.67629e-06
2.99644e-06
3.50869e-06
2.81016e-06
2.56685e-06
3.65287e-06
3.32331e-06
1.63227e-06
3.93962e-06
3.909e-06
1.5122e-06
4.22797e-06
4.11895e-06
2.56234e-06
4.1215e-06
4.46203e-06
3.67486e-06
3.74136e-06
4.58944e-06
1.38608e-08
1.09828e-08
2.18431e-10
4.47843e-10
1.35415e-10
1.67373e-10
1.20492e-10
4.22408e-11
3.99776e-12
4.09446e-11
1.55997e-10
4.66502e-11
2.10508e-10
1.36445e-10
2.32247e-09
9.08769e-10
5.35862e-09
3.75689e-09
5.09391e-11
8.28582e-09
7.42938e-09
6.21366e-10
7.1886e-09
8.23421e-09
1.68145e-09
1.01526e-08
1.41517e-08
2.41026e-08
1.39546e-08
1.49571e-08
1.35437e-08
5.677e-09
5.49172e-10
8.50979e-10
1.65386e-09
2.18667e-09
2.70395e-09
9.17106e-09
1.23465e-08
6.77738e-08
9.63465e-08
1.77499e-07
5.11998e-07
5.76069e-07
1.88949e-07
4.94349e-07
6.78192e-07
3.75386e-07
7.43339e-07
8.56334e-07
6.22167e-07
9.05617e-07
1.16981e-06
9.53846e-07
1.22406e-06
1.61964e-06
1.38712e-06
1.19959e-06
1.82151e-06
1.71298e-06
7.76052e-07
2.00505e-06
1.86699e-06
1.87254e-06
2.19773e-06
2.28462e-06
1.45234e-06
2.38395e-06
2.65563e-06
2.32981e-06
2.31327e-06
3.15353e-06
6.65623e-10
7.25637e-11
3.65958e-10
8.11065e-12
1.35333e-11
8.42547e-11
2.24324e-10
3.08853e-10
1.47327e-09
2.01655e-09
1.14817e-09
3.04234e-09
2.81549e-09
2.71431e-09
4.19218e-09
2.47834e-09
5.42243e-09
9.09669e-09
6.82024e-09
8.16987e-09
1.06079e-08
5.18755e-09
7.53037e-09
8.76081e-09
5.58985e-09
5.47551e-09
7.3129e-09
5.97454e-09
1.82247e-08
1.98141e-08
1.97516e-08
3.75947e-08
1.57798e-08
1.19962e-08
3.59071e-08
2.49215e-08
3.22139e-08
7.65455e-08
3.00866e-08
4.84849e-08
1.18642e-07
1.70336e-07
4.05253e-07
3.79749e-07
9.04009e-08
1.54599e-07
2.62074e-07
1.53951e-07
2.24645e-07
3.33486e-07
2.27898e-07
2.55951e-07
3.65817e-07
2.91193e-07
2.96974e-07
3.77477e-07
3.49967e-07
2.40584e-07
3.93745e-07
3.78384e-07
1.46721e-07
3.9977e-07
3.95016e-07
1.66117e-08
3.91228e-07
4.05845e-07
2.28193e-07
3.6371e-07
4.26005e-07
3.4977e-07
2.83042e-07
4.3015e-07
5.87235e-08
6.99291e-08
1.52632e-08
1.60481e-08
8.70151e-09
8.65593e-09
7.7123e-09
1.65164e-09
1.10082e-08
4.06137e-09
1.3311e-09
8.49489e-09
1.58477e-09
5.31404e-09
2.96403e-09
4.48423e-10
8.09557e-09
5.4906e-09
2.11901e-09
1.31292e-08
9.13473e-09
1.70395e-09
2.6742e-08
7.0592e-09
8.48417e-09
5.16442e-08
1.75844e-08
6.28939e-08
5.9942e-08
5.90293e-08
2.21418e-07
1.33493e-07
1.10528e-07
5.47651e-07
4.34454e-07
2.28017e-07
1.17249e-06
9.84151e-07
5.00293e-07
2.4148e-06
2.15631e-06
6.50551e-07
2.80255e-06
3.14564e-06
1.82559e-06
5.48105e-06
5.5532e-06
2.98162e-06
6.77933e-06
7.19437e-06
4.72131e-06
7.52375e-06
8.53502e-06
6.54283e-06
7.49115e-06
1.02068e-05
8.32872e-06
6.83124e-06
1.08944e-05
9.91256e-06
4.5895e-06
1.14316e-05
1.12875e-05
4.24481e-06
1.17908e-05
1.21361e-05
7.14772e-06
1.16634e-05
1.28948e-05
1.09125e-05
1.00121e-05
1.37179e-05
2.66836e-08
1.98369e-08
3.81762e-10
1.85525e-09
4.3837e-10
4.81368e-10
2.43355e-10
2.57672e-10
1.24135e-10
2.12793e-10
1.48898e-13
1.99484e-10
1.01531e-09
3.66855e-10
1.16895e-09
8.46597e-11
6.63369e-10
1.04714e-09
5.90828e-10
6.34507e-10
5.78464e-10
3.76458e-11
2.89165e-11
1.13064e-10
2.66398e-09
5.8494e-09
7.79614e-09
7.5066e-09
2.08923e-08
1.74566e-08
1.98109e-08
5.74799e-08
7.941e-08
1.98153e-07
3.23095e-07
2.27194e-07
5.73889e-07
8.48969e-07
5.21391e-07
1.49075e-06
2.0378e-06
1.5978e-06
4.19762e-06
4.42976e-06
1.91956e-06
4.38589e-06
5.36953e-06
3.05358e-06
5.635e-06
6.76546e-06
4.60065e-06
6.50138e-06
7.97951e-06
6.32239e-06
7.03807e-06
9.22316e-06
7.96029e-06
6.30165e-06
9.85926e-06
9.25727e-06
4.21833e-06
1.03301e-05
1.00771e-05
8.49563e-06
1.06002e-05
1.10028e-05
6.50705e-06
1.0475e-05
1.17455e-05
9.94562e-06
8.98565e-06
1.24569e-05
6.23278e-08
7.76543e-08
1.92154e-08
2.19734e-08
1.26873e-08
1.01965e-08
8.22972e-09
1.55819e-09
8.17467e-09
2.27935e-09
7.11658e-10
5.5027e-09
1.06524e-09
3.93507e-09
1.9053e-09
6.51206e-10
7.8796e-09
2.75111e-09
2.58347e-09
1.61412e-08
6.61571e-09
3.9186e-09
3.88633e-08
1.53345e-08
2.13422e-08
9.6942e-08
3.76524e-08
1.16602e-07
1.11296e-07
7.27496e-08
2.96325e-07
2.29935e-07
1.79695e-07
8.04755e-07
7.08622e-07
4.14201e-07
1.77814e-06
1.58309e-06
8.87003e-07
3.55776e-06
3.25495e-06
9.29769e-07
4.06015e-06
4.55848e-06
2.72882e-06
7.67884e-06
7.6336e-06
4.09244e-06
9.10744e-06
9.56559e-06
6.03692e-06
9.96313e-06
1.12749e-05
8.43225e-06
9.84485e-06
1.35264e-05
1.06776e-05
8.75946e-06
1.43147e-05
1.26044e-05
5.86774e-06
1.48535e-05
1.40112e-05
1.05074e-05
1.50928e-05
1.54164e-05
8.66602e-06
1.46835e-05
1.6322e-05
1.33183e-05
1.22264e-05
1.71194e-05
3.49656e-08
2.0518e-08
2.11398e-10
2.1292e-09
2.69298e-10
2.2079e-10
2.12791e-12
3.14579e-11
8.05507e-12
8.23436e-10
2.96772e-11
6.29731e-11
3.32639e-10
6.4531e-12
2.51911e-11
3.00002e-10
2.70477e-10
8.15916e-10
1.90878e-10
1.37675e-09
3.80549e-09
2.40327e-09
1.0215e-08
1.42664e-08
2.10789e-08
4.41188e-08
4.61383e-08
4.77423e-08
1.09991e-07
8.93819e-08
1.31317e-07
2.53756e-07
2.12485e-07
5.21983e-07
8.41079e-07
5.12442e-07
1.36636e-06
1.99195e-06
1.06924e-06
3.13826e-06
4.26619e-06
3.72582e-06
7.08823e-06
8.17189e-06
3.44286e-06
8.40261e-06
1.03504e-05
5.41837e-06
1.06777e-05
1.30337e-05
8.18518e-06
1.21556e-05
1.52391e-05
1.13843e-05
1.28527e-05
1.75398e-05
1.4596e-05
1.1207e-05
1.85987e-05
1.72393e-05
6.99671e-06
1.92721e-05
1.92256e-05
7.58032e-06
1.95249e-05
2.04283e-05
1.10938e-05
1.88574e-05
2.1532e-05
1.74758e-05
1.55554e-05
2.25009e-05
5.725e-09
1.83795e-09
1.46161e-11
1.1827e-11
1.91227e-10
2.30866e-11
1.34753e-11
3.68757e-11
3.43767e-10
3.38725e-10
3.59009e-10
7.219e-10
8.6861e-10
5.21978e-10
1.77402e-09
1.4998e-09
1.0191e-09
3.38909e-09
2.42478e-09
1.66223e-09
5.2368e-09
2.75379e-09
2.70562e-09
7.80552e-09
5.6354e-09
5.10321e-09
1.21636e-08
2.08889e-09
2.63618e-08
1.95624e-08
5.9527e-09
4.91768e-08
2.20005e-08
9.06479e-09
7.32784e-08
2.75616e-08
1.85083e-08
1.24632e-07
3.43078e-08
4.00972e-08
2.12774e-07
6.3113e-07
3.8625e-07
5.65224e-07
9.89548e-08
1.91546e-07
4.66657e-07
1.99137e-07
3.11712e-07
6.4957e-07
3.40908e-07
3.69643e-07
7.32443e-07
4.61424e-07
4.25381e-07
7.44557e-07
6.04612e-07
3.4102e-07
7.62131e-07
6.95008e-07
2.83019e-07
7.46254e-07
7.66848e-07
2.79557e-08
6.89432e-07
8.06156e-07
3.24686e-07
5.71198e-07
8.58212e-07
5.76289e-07
3.81129e-07
8.39702e-07
1.01752e-07
1.08092e-07
3.15075e-08
3.72265e-08
2.0262e-08
7.57647e-09
6.07677e-09
3.53193e-10
3.75058e-09
9.87239e-10
3.60247e-10
7.35465e-09
1.74316e-09
7.35093e-09
9.61823e-09
2.99779e-09
2.49609e-08
2.25298e-08
8.21573e-09
6.55932e-08
4.25256e-08
2.3394e-08
1.59039e-07
8.3732e-08
8.78012e-08
3.66524e-07
1.56701e-07
3.51998e-07
4.52651e-07
2.60288e-07
8.2069e-07
9.2924e-07
4.79668e-07
1.99074e-06
2.12875e-06
9.2451e-07
4.10671e-06
4.22659e-06
1.65553e-06
7.43888e-06
7.50305e-06
1.78123e-06
9.74149e-06
1.0737e-05
4.49046e-06
1.49348e-05
1.63442e-05
7.04993e-06
1.72623e-05
2.00296e-05
1.07513e-05
1.8401e-05
2.35044e-05
1.55453e-05
1.73994e-05
2.76038e-05
2.03422e-05
1.48187e-05
2.86997e-05
2.47443e-05
1.019e-05
2.91739e-05
2.82554e-05
6.75451e-06
2.87416e-05
3.05142e-05
1.44205e-05
2.64445e-05
3.2091e-05
2.40221e-05
2.01636e-05
3.29324e-05
7.4039e-08
4.84491e-08
8.16717e-09
1.47031e-08
8.97042e-10
1.61548e-09
1.9994e-12
1.12305e-10
2.17431e-10
1.29934e-12
7.10189e-10
2.13449e-09
1.95007e-09
2.67426e-09
7.4951e-09
6.71117e-09
1.19557e-08
2.11582e-08
1.86117e-08
3.74872e-08
5.09006e-08
3.72145e-08
1.02857e-07
1.09761e-07
1.1552e-07
2.53401e-07
2.14034e-07
2.28014e-07
5.23227e-07
3.67753e-07
5.62908e-07
1.06534e-06
6.46438e-07
1.40088e-06
2.28465e-06
1.17319e-06
2.95031e-06
4.38787e-06
2.02108e-06
5.59363e-06
7.92312e-06
4.81092e-06
1.02662e-05
1.30761e-05
5.38487e-06
1.28226e-05
1.65968e-05
7.95031e-06
1.55727e-05
2.0545e-05
1.16258e-05
1.70528e-05
2.37759e-05
1.5947e-05
1.73304e-05
2.66091e-05
2.04727e-05
1.48109e-05
2.76466e-05
2.41272e-05
1.09035e-05
2.79102e-05
2.69438e-05
8.99569e-06
2.71896e-05
2.92757e-05
1.42261e-05
2.47634e-05
3.10501e-05
2.28682e-05
1.89339e-05
3.157e-05
1.33427e-07
1.47104e-07
4.76306e-08
4.92267e-08
2.78515e-08
7.48969e-09
8.67155e-09
6.38995e-10
5.43936e-09
2.3966e-09
1.22067e-09
1.51274e-08
4.63419e-09
1.42433e-08
2.00272e-08
7.13935e-09
4.50118e-08
4.10856e-08
2.12938e-08
1.15941e-07
7.72678e-08
4.82226e-08
2.68002e-07
1.42643e-07
1.46802e-07
5.80168e-07
2.43487e-07
5.1951e-07
7.13865e-07
3.93706e-07
1.15287e-06
1.36001e-06
6.73402e-07
2.50334e-06
2.7168e-06
1.20817e-06
4.79548e-06
4.96555e-06
2.06993e-06
8.18055e-06
8.21807e-06
2.19155e-06
1.05746e-05
1.17107e-05
4.98971e-06
1.5748e-05
1.75561e-05
7.36775e-06
1.79301e-05
2.14157e-05
1.07347e-05
1.8741e-05
2.50483e-05
1.53888e-05
1.72667e-05
2.91918e-05
2.03379e-05
1.45995e-05
3.00304e-05
2.50649e-05
1.0933e-05
3.01307e-05
2.88617e-05
9.55482e-06
2.91539e-05
3.14125e-05
1.39194e-05
2.61035e-05
3.31042e-05
2.33228e-05
1.92442e-05
3.36104e-05
1.37524e-07
9.18701e-08
2.78048e-08
3.74255e-08
3.51364e-09
5.08589e-09
9.24851e-10
1.43854e-09
2.18704e-09
1.90578e-09
3.34726e-09
8.27023e-09
7.98119e-09
7.96935e-09
2.26522e-08
1.59166e-08
2.81808e-08
4.99104e-08
4.04971e-08
7.88039e-08
1.03211e-07
7.45566e-08
1.94563e-07
1.94889e-07
1.9508e-07
4.36421e-07
3.41679e-07
3.61038e-07
8.50907e-07
5.5548e-07
8.34836e-07
1.61844e-06
9.14719e-07
1.85526e-06
3.12087e-06
1.56575e-06
3.6604e-06
5.61541e-06
2.60406e-06
6.64876e-06
9.78036e-06
5.45756e-06
1.20572e-05
1.59901e-05
6.70932e-06
1.51391e-05
2.03614e-05
9.42472e-06
1.82571e-05
2.5215e-05
1.34766e-05
1.98905e-05
2.92618e-05
1.84448e-05
2.011e-05
3.26321e-05
2.39684e-05
1.7232e-05
3.3653e-05
2.86279e-05
1.34157e-05
3.36152e-05
3.235e-05
1.22275e-05
3.22247e-05
3.54067e-05
1.62755e-05
2.86751e-05
3.76724e-05
2.62081e-05
2.14782e-05
3.79565e-05
1.9803e-07
2.27768e-07
8.0874e-08
8.00125e-08
5.34749e-08
1.22943e-08
2.18023e-08
2.36821e-09
1.17377e-08
7.19603e-09
3.70894e-09
3.07965e-08
1.0567e-08
2.63484e-08
3.93931e-08
1.4928e-08
7.81437e-08
7.43915e-08
3.76652e-08
1.93921e-07
1.3298e-07
8.38083e-08
4.27534e-07
2.25309e-07
2.26999e-07
8.79637e-07
3.57565e-07
7.32656e-07
1.06189e-06
5.55828e-07
1.54101e-06
1.88943e-06
8.82833e-07
3.09851e-06
3.44328e-06
1.47487e-06
5.63626e-06
5.9403e-06
2.41335e-06
9.31434e-06
9.47182e-06
2.73677e-06
1.20699e-05
1.36299e-05
5.60284e-06
1.79335e-05
2.0524e-05
8.2785e-06
2.03125e-05
2.51108e-05
1.18494e-05
2.09971e-05
2.94467e-05
1.69727e-05
1.90893e-05
3.42263e-05
2.26552e-05
1.6161e-05
3.49293e-05
2.83245e-05
1.24311e-05
3.4673e-05
3.29802e-05
1.05113e-05
3.30165e-05
3.62282e-05
1.51269e-05
2.88815e-05
3.8398e-05
2.55778e-05
2.08914e-05
3.86708e-05
2.46516e-07
1.98209e-07
7.47681e-08
1.23558e-07
2.19015e-08
2.36348e-08
1.53639e-08
8.0598e-09
1.09656e-08
1.19396e-08
1.06995e-08
2.40692e-08
2.15127e-08
1.94838e-08
5.31353e-08
3.1355e-08
5.65589e-08
9.9289e-08
6.22272e-08
1.42306e-07
1.80526e-07
1.23107e-07
3.22326e-07
3.08268e-07
2.99193e-07
6.72574e-07
4.9638e-07
5.17579e-07
1.24135e-06
7.45075e-07
1.10763e-06
2.20079e-06
1.13396e-06
2.25444e-06
3.91744e-06
1.79304e-06
4.19571e-06
6.67486e-06
2.82886e-06
7.36922e-06
1.12913e-05
5.74087e-06
1.34059e-05
1.85126e-05
7.33121e-06
1.68623e-05
2.35776e-05
1.03027e-05
2.02608e-05
2.92581e-05
1.48077e-05
2.20108e-05
3.40591e-05
2.03532e-05
2.22918e-05
3.77627e-05
2.66477e-05
1.91686e-05
3.86195e-05
3.21294e-05
1.47893e-05
3.81313e-05
3.67284e-05
1.17292e-05
3.59886e-05
4.04541e-05
1.74961e-05
3.13718e-05
4.32847e-05
2.85627e-05
2.33137e-05
4.31141e-05
3.60612e-07
4.21106e-07
1.48632e-07
2.0242e-07
1.45997e-07
3.83772e-08
8.80207e-08
1.03691e-08
3.19332e-08
2.42235e-08
9.68753e-09
6.55332e-08
2.36164e-08
4.85818e-08
7.88418e-08
2.68786e-08
1.33889e-07
1.35773e-07
4.71183e-08
3.18466e-07
2.24745e-07
1.24731e-07
6.76082e-07
3.51056e-07
3.39743e-07
1.33777e-06
5.20942e-07
1.03359e-06
1.58408e-06
7.643e-07
2.10032e-06
2.6968e-06
1.11812e-06
4.0526e-06
4.67247e-06
1.7277e-06
7.21685e-06
7.86057e-06
2.72516e-06
1.19552e-05
1.25524e-05
3.26947e-06
1.62745e-05
1.89065e-05
6.8379e-06
2.45335e-05
2.92744e-05
1.08521e-05
2.83155e-05
3.67409e-05
1.60925e-05
2.94885e-05
4.36218e-05
2.36294e-05
2.68649e-05
5.10695e-05
3.22068e-05
2.26227e-05
5.19131e-05
4.09208e-05
1.62599e-05
5.10901e-05
4.82919e-05
1.08278e-05
4.79843e-05
5.37488e-05
2.05417e-05
4.11558e-05
5.76036e-05
3.62056e-05
2.92913e-05
5.76543e-05
5.52568e-09
1.24767e-08
7.87765e-09
2.08223e-09
1.97946e-08
2.51843e-10
7.51252e-09
1.07333e-12
1.05294e-09
1.79074e-10
4.86994e-12
1.40377e-09
7.32817e-12
1.41217e-09
1.03653e-11
2.05999e-11
2.92758e-09
7.34218e-12
4.57244e-10
5.07359e-09
6.21386e-11
1.05916e-10
7.63654e-09
2.09643e-10
7.68155e-12
1.11178e-08
1.86284e-10
1.4388e-08
8.70565e-12
9.30053e-11
2.50403e-08
2.53403e-11
2.68608e-09
4.20136e-08
5.50919e-11
1.28183e-08
6.60118e-08
2.83065e-11
3.57849e-08
9.02707e-08
3.29372e-09
1.55718e-09
2.00181e-08
1.80561e-08
4.27554e-08
1.01507e-07
6.49686e-09
5.86373e-08
1.18063e-07
2.39442e-08
2.86187e-08
9.96332e-08
4.42515e-08
1.6026e-08
3.11816e-08
1.33736e-07
1.31583e-08
2.26685e-08
1.35343e-07
2.99448e-08
6.51283e-08
1.34856e-07
5.17098e-08
8.25107e-07
1.25036e-07
8.26807e-08
9.30407e-08
1.01345e-07
9.86985e-08
3.44173e-08
4.28855e-08
1.27708e-07
4.25589e-07
4.00943e-07
2.0674e-07
4.30654e-07
1.20112e-07
1.03106e-07
9.97811e-08
2.54833e-08
4.18602e-08
4.56596e-08
2.3913e-08
5.87686e-08
4.85443e-08
3.62273e-08
1.08636e-07
6.39555e-08
9.45788e-08
1.76926e-07
1.078e-07
2.24018e-07
2.8498e-07
1.86066e-07
4.75153e-07
4.43401e-07
3.90947e-07
9.36074e-07
6.76932e-07
6.32905e-07
1.68126e-06
1.01516e-06
1.30988e-06
2.80759e-06
1.60925e-06
2.5765e-06
4.74347e-06
2.65724e-06
4.72705e-06
7.85219e-06
4.36749e-06
8.35975e-06
1.33039e-05
8.55944e-06
1.57081e-05
2.26758e-05
1.13499e-05
2.04045e-05
2.97424e-05
1.45825e-05
2.46355e-05
3.74208e-05
1.91223e-05
2.6778e-05
4.41272e-05
2.50203e-05
2.67392e-05
4.97445e-05
3.27858e-05
2.27303e-05
5.06546e-05
4.05098e-05
1.91901e-05
4.96608e-05
4.73738e-05
2.21386e-05
4.63693e-05
5.26009e-05
2.38237e-05
3.94521e-05
5.63867e-05
3.48615e-05
2.80449e-05
5.6383e-05
5.83907e-07
6.35535e-07
4.101e-07
4.82322e-07
4.12625e-07
1.34667e-07
2.82877e-07
5.66561e-08
8.26889e-08
6.41319e-08
3.53871e-08
1.15945e-07
4.94689e-08
8.82039e-08
1.18034e-07
7.1877e-08
1.98186e-07
1.75377e-07
1.44919e-07
4.18645e-07
2.72396e-07
2.42389e-07
8.08446e-07
4.11115e-07
4.55174e-07
1.46469e-06
6.19869e-07
1.16154e-06
1.61852e-06
9.83462e-07
2.13603e-06
2.53609e-06
1.57849e-06
3.78137e-06
4.03532e-06
2.60693e-06
6.31271e-06
6.35914e-06
4.229e-06
1.00246e-05
9.7154e-06
5.25027e-06
1.32612e-05
1.43945e-05
9.40374e-06
2.02462e-05
2.26513e-05
1.26517e-05
2.30471e-05
2.83941e-05
1.50812e-05
2.34979e-05
3.38695e-05
1.88572e-05
2.10825e-05
4.0413e-05
2.3753e-05
1.87116e-05
4.08354e-05
2.98124e-05
1.80183e-05
3.98251e-05
3.56436e-05
2.14703e-05
3.68973e-05
4.07202e-05
1.96578e-05
3.13132e-05
4.43339e-05
2.6548e-05
2.26175e-05
4.47253e-05
7.10028e-07
7.23547e-07
6.21837e-07
1.1019e-06
4.20785e-07
3.93568e-07
3.76692e-07
1.49024e-07
1.38474e-07
1.29866e-07
8.17409e-08
1.27468e-07
1.0099e-07
7.72326e-08
1.91398e-07
1.29016e-07
1.52743e-07
2.68091e-07
2.26324e-07
3.19421e-07
3.97278e-07
3.44274e-07
6.26015e-07
5.8425e-07
5.70861e-07
1.14575e-06
8.59861e-07
7.74303e-07
1.97358e-06
1.26173e-06
1.41572e-06
3.07826e-06
1.98208e-06
2.53985e-06
4.85248e-06
3.19657e-06
4.35867e-06
7.61478e-06
5.10471e-06
7.41139e-06
1.25422e-05
9.9273e-06
1.33981e-05
2.05453e-05
1.29373e-05
1.83432e-05
2.82469e-05
1.58189e-05
2.24068e-05
3.61607e-05
1.95894e-05
2.46511e-05
4.28119e-05
2.41537e-05
2.55278e-05
4.76068e-05
3.06166e-05
2.3524e-05
4.78972e-05
3.73715e-05
2.3649e-05
4.6204e-05
4.3877e-05
2.68883e-05
4.21896e-05
4.94574e-05
2.43943e-05
3.53148e-05
5.36828e-05
3.17206e-05
2.66181e-05
5.27738e-05
1.10138e-06
1.14354e-06
8.29497e-07
1.14073e-06
9.54251e-07
4.60312e-07
8.72514e-07
2.75538e-07
2.33801e-07
1.98786e-07
1.07845e-07
2.38938e-07
1.08483e-07
1.63213e-07
2.25662e-07
1.36469e-07
3.1282e-07
2.90981e-07
2.50406e-07
6.1145e-07
4.05659e-07
3.92714e-07
1.11789e-06
5.65783e-07
6.49276e-07
1.92627e-06
8.02242e-07
1.46033e-06
2.05136e-06
1.23578e-06
2.50797e-06
3.04489e-06
1.91134e-06
4.22257e-06
4.59884e-06
3.02717e-06
6.79705e-06
6.98535e-06
4.74268e-06
1.06128e-05
1.06089e-05
5.64475e-06
1.39929e-05
1.53098e-05
1.05559e-05
2.20685e-05
2.56377e-05
1.46346e-05
2.54547e-05
3.27316e-05
1.71135e-05
2.59793e-05
3.91225e-05
2.10221e-05
2.35693e-05
4.63991e-05
2.63579e-05
2.20896e-05
4.63479e-05
3.33087e-05
2.26559e-05
4.45362e-05
4.03617e-05
2.46273e-05
4.05783e-05
4.63575e-05
2.23496e-05
3.3975e-05
5.09089e-05
2.92311e-05
2.56336e-05
5.05313e-05
1.38669e-06
1.42141e-06
1.14882e-06
2.17887e-06
1.01244e-06
1.18818e-06
1.18056e-06
5.53082e-07
4.06879e-07
3.40107e-07
2.18759e-07
2.84684e-07
2.06218e-07
1.67391e-07
3.5084e-07
2.18489e-07
2.62318e-07
4.25821e-07
3.44241e-07
4.8176e-07
5.78225e-07
5.01644e-07
8.68848e-07
7.94204e-07
7.94342e-07
1.48838e-06
1.08798e-06
1.00796e-06
2.42477e-06
1.46916e-06
1.69658e-06
3.57573e-06
2.14972e-06
2.84251e-06
5.39709e-06
3.2673e-06
4.64142e-06
8.18893e-06
4.97745e-06
7.62427e-06
1.32454e-05
1.01667e-05
1.16464e-05
1.94103e-05
1.29598e-05
1.95169e-05
3.05899e-05
1.61471e-05
2.41707e-05
3.98106e-05
2.09109e-05
2.70742e-05
4.77548e-05
2.61802e-05
2.88292e-05
5.24611e-05
3.32183e-05
2.70923e-05
5.23925e-05
4.04186e-05
2.62643e-05
4.9964e-05
4.76446e-05
2.68074e-05
4.51573e-05
5.42878e-05
2.54348e-05
3.79367e-05
5.95552e-05
3.38962e-05
2.9726e-05
5.75174e-05
2.42756e-06
2.62035e-06
1.16092e-06
2.36814e-06
1.81222e-06
1.27508e-06
2.66549e-06
7.38243e-07
6.64794e-07
6.05406e-07
2.52401e-07
5.30049e-07
2.3525e-07
2.98188e-07
4.70403e-07
1.97842e-07
5.16607e-07
5.13818e-07
2.78467e-07
9.45413e-07
6.35215e-07
4.60629e-07
1.64727e-06
7.91777e-07
8.26116e-07
2.73013e-06
9.95597e-07
1.85315e-06
2.79258e-06
1.37542e-06
3.15941e-06
4.00796e-06
1.90683e-06
5.22792e-06
5.89554e-06
2.76474e-06
8.34489e-06
8.82042e-06
4.1084e-06
1.29205e-05
1.35344e-05
4.39359e-06
1.33547e-05
1.64528e-05
9.60003e-06
2.87191e-05
3.50368e-05
1.54132e-05
3.41568e-05
4.67844e-05
2.01468e-05
3.51925e-05
5.63054e-05
2.708e-05
3.18394e-05
6.65387e-05
3.62196e-05
2.84134e-05
6.60245e-05
4.71642e-05
2.39893e-05
6.29079e-05
5.76622e-05
2.01094e-05
5.67506e-05
6.6759e-05
2.57509e-05
4.6873e-05
7.40634e-05
3.9841e-05
3.42152e-05
7.21792e-05
4.97288e-08
5.41163e-08
1.54294e-08
8.62113e-09
8.34694e-08
8.88115e-10
6.5058e-08
2.20086e-09
3.84839e-09
9.22817e-09
5.27989e-12
4.14154e-09
4.35879e-10
2.98277e-09
1.01802e-10
3.85205e-10
5.22582e-09
9.73474e-11
1.05296e-09
7.82351e-09
3.73464e-10
9.46419e-10
1.08061e-08
3.77295e-10
2.95865e-10
1.44238e-08
2.05206e-11
2.48174e-08
1.47829e-10
2.60182e-09
3.72462e-08
4.67501e-10
1.04984e-08
5.68361e-08
1.06291e-09
2.70915e-08
8.44896e-08
1.67055e-09
5.81573e-08
1.15952e-07
5.02372e-09
3.50432e-08
4.73542e-09
1.33684e-07
6.14971e-08
9.93025e-08
3.00753e-10
1.88531e-07
1.4812e-07
1.07953e-08
1.20029e-07
1.12057e-07
2.47811e-08
5.77639e-08
2.72408e-08
1.45775e-07
1.87726e-08
5.10162e-08
1.44066e-07
2.0468e-08
2.2224e-07
1.32049e-07
2.98635e-08
1.19966e-06
1.05457e-07
5.94015e-08
2.72216e-07
7.6729e-08
8.28754e-08
6.26461e-08
5.35519e-08
1.28466e-07
2.79911e-06
2.88005e-06
2.30831e-06
3.62512e-06
2.20637e-06
2.55918e-06
2.51317e-06
1.47122e-06
1.24733e-06
9.2071e-07
4.58703e-07
6.23681e-07
4.34897e-07
3.18049e-07
6.4436e-07
4.08015e-07
4.2756e-07
6.97587e-07
5.23983e-07
7.00342e-07
8.55129e-07
7.18088e-07
1.16396e-06
1.10326e-06
1.04544e-06
1.86529e-06
1.46606e-06
1.21748e-06
2.99696e-06
1.95853e-06
1.93972e-06
4.23044e-06
2.83451e-06
3.13647e-06
6.14568e-06
4.22069e-06
4.99576e-06
9.13225e-06
6.43297e-06
8.01788e-06
1.44446e-05
1.34884e-05
9.14516e-06
1.95426e-05
1.72765e-05
2.21766e-05
3.60593e-05
2.20725e-05
2.76605e-05
4.74989e-05
2.78537e-05
3.1623e-05
5.84465e-05
3.36164e-05
3.40996e-05
6.53884e-05
4.09871e-05
3.27905e-05
6.48702e-05
4.89949e-05
3.32623e-05
6.13509e-05
5.78129e-05
3.71128e-05
5.47984e-05
6.62739e-05
3.53513e-05
4.53082e-05
7.33173e-05
4.17506e-05
3.57853e-05
7.11076e-05
5.45362e-06
5.84869e-06
3.3374e-06
3.77644e-06
3.44357e-06
2.78288e-06
4.50863e-06
2.66774e-06
1.67999e-06
1.59389e-06
8.25305e-07
9.82588e-07
5.87701e-07
5.90484e-07
7.82575e-07
5.07632e-07
7.73097e-07
7.20171e-07
6.65653e-07
1.19127e-06
8.12675e-07
8.65769e-07
1.85752e-06
9.97221e-07
1.18006e-06
2.82577e-06
1.30434e-06
2.15452e-06
2.76911e-06
1.9223e-06
3.25775e-06
3.71296e-06
2.78479e-06
4.94424e-06
5.11254e-06
4.07947e-06
7.35842e-06
7.17332e-06
5.94554e-06
1.08674e-05
1.05223e-05
6.41148e-06
6.94688e-06
1.09366e-05
1.32996e-05
2.40922e-05
2.70299e-05
1.96691e-05
2.87474e-05
3.58202e-05
2.22135e-05
2.94798e-05
4.30513e-05
2.49563e-05
2.71527e-05
5.20066e-05
2.89313e-05
2.7219e-05
5.11701e-05
3.52961e-05
2.95546e-05
4.82331e-05
4.27766e-05
3.19059e-05
4.31289e-05
5.02038e-05
2.86701e-05
3.62395e-05
5.64548e-05
3.2001e-05
2.97452e-05
5.53929e-05
6.11773e-06
6.86019e-06
5.57787e-06
5.60447e-06
4.14324e-06
4.30766e-06
4.83178e-06
4.30726e-06
3.10838e-06
2.57783e-06
1.7458e-06
1.38647e-06
1.05904e-06
7.4656e-07
1.16332e-06
8.02403e-07
7.88402e-07
1.10569e-06
9.82078e-07
1.08811e-06
1.24109e-06
1.17751e-06
1.61943e-06
1.49681e-06
1.51534e-06
2.38645e-06
1.86708e-06
1.64319e-06
3.46207e-06
2.34186e-06
2.36542e-06
4.6232e-06
3.2367e-06
3.49864e-06
6.36421e-06
4.57157e-06
5.15074e-06
8.9297e-06
6.47439e-06
7.6759e-06
1.34007e-05
1.14297e-05
1.00534e-05
1.67105e-05
1.35037e-05
2.02404e-05
3.30789e-05
2.04792e-05
2.61696e-05
4.46664e-05
2.65485e-05
3.09898e-05
5.58904e-05
3.19468e-05
3.49678e-05
6.0423e-05
3.84703e-05
3.45993e-05
5.94035e-05
4.51719e-05
3.52149e-05
5.56903e-05
5.26812e-05
3.59568e-05
4.97567e-05
6.05158e-05
3.28255e-05
4.22776e-05
6.75663e-05
3.79545e-05
3.57482e-05
6.40603e-05
1.56584e-05
1.7885e-05
7.46312e-06
7.99682e-06
5.76005e-06
4.62574e-06
9.31933e-06
4.44997e-06
4.46293e-06
5.04445e-06
2.41474e-06
2.45817e-06
1.56913e-06
1.21916e-06
1.89e-06
8.42476e-07
1.45856e-06
1.44899e-06
8.92201e-07
2.067e-06
1.3889e-06
1.11561e-06
3.02102e-06
1.4765e-06
1.58028e-06
4.38944e-06
1.66541e-06
2.85966e-06
4.04965e-06
2.17208e-06
4.3296e-06
5.21965e-06
2.81705e-06
6.48703e-06
6.94134e-06
3.77794e-06
9.49045e-06
9.45836e-06
5.14296e-06
1.37177e-05
1.34319e-05
6.12627e-06
5.55606e-06
9.88756e-06
8.43412e-06
3.0275e-05
3.60161e-05
1.84704e-05
3.78012e-05
5.03238e-05
2.3013e-05
3.81713e-05
6.08053e-05
2.88627e-05
3.45299e-05
7.38188e-05
3.73218e-05
3.1607e-05
7.20667e-05
4.82967e-05
2.76975e-05
6.71466e-05
5.99309e-05
2.51309e-05
5.90543e-05
7.09071e-05
2.88177e-05
4.85121e-05
7.99093e-05
4.06279e-05
3.66225e-05
7.74505e-05
5.92391e-07
1.04477e-06
8.33317e-08
1.71639e-07
3.29159e-07
9.89425e-08
1.99551e-07
2.3997e-07
2.92865e-08
1.44726e-07
5.95228e-09
2.09971e-08
2.46484e-08
9.64474e-09
8.15192e-09
7.39219e-09
1.41537e-08
1.55051e-09
4.88653e-09
1.66185e-08
3.54222e-10
5.274e-09
1.9346e-08
4.11032e-10
4.86686e-09
2.26586e-08
1.8925e-09
4.90347e-08
2.2239e-10
1.42912e-08
6.53314e-08
1.14713e-11
3.19522e-08
8.96924e-08
7.92779e-11
6.11967e-08
1.23849e-07
4.01385e-10
1.07231e-07
1.70691e-07
1.1035e-09
1.02419e-07
5.88647e-07
9.29394e-07
5.39617e-08
1.38468e-07
6.40512e-09
4.30231e-07
2.67729e-07
1.35452e-08
3.70351e-07
2.06699e-07
2.54408e-08
1.99704e-07
9.4586e-08
1.84292e-07
7.76057e-08
2.18053e-07
1.75579e-07
5.24055e-08
6.70461e-07
1.53784e-07
5.26763e-08
1.46452e-06
1.21869e-07
7.86498e-08
6.64127e-07
1.13551e-07
9.98883e-08
1.88728e-07
1.81643e-07
1.51504e-07
4.18095e-06
6.91254e-06
9.90406e-06
8.83367e-06
7.97147e-06
6.79179e-06
8.35085e-06
7.14977e-06
7.03717e-06
5.93693e-06
4.42015e-06
4.05186e-06
2.90512e-06
2.03815e-06
2.43355e-06
1.62732e-06
1.45764e-06
1.92949e-06
1.62624e-06
1.78343e-06
2.06411e-06
1.89086e-06
2.45175e-06
2.39522e-06
2.31668e-06
3.37344e-06
2.89698e-06
2.40981e-06
4.83738e-06
3.53615e-06
3.23037e-06
6.1487e-06
4.66223e-06
4.47649e-06
8.05597e-06
6.27088e-06
6.22055e-06
1.07904e-05
8.5052e-06
8.69024e-06
1.51119e-05
1.30121e-05
1.86598e-05
1.46253e-05
1.47204e-05
2.18628e-05
3.74386e-05
2.72473e-05
2.91573e-05
5.04743e-05
3.44912e-05
3.6289e-05
6.47706e-05
4.11235e-05
4.13374e-05
7.02305e-05
4.70607e-05
4.21312e-05
6.84277e-05
5.2556e-05
4.42089e-05
6.38076e-05
5.93704e-05
4.65935e-05
5.6749e-05
6.75269e-05
4.4147e-05
4.85674e-05
7.56411e-05
4.62482e-05
4.28158e-05
7.33601e-05
2.0801e-05
3.29662e-05
1.84747e-05
1.7992e-05
1.5975e-05
1.03916e-05
1.58073e-05
9.0414e-06
9.47081e-06
1.14876e-05
8.12781e-06
6.40288e-06
5.45866e-06
3.51527e-06
4.2963e-06
2.61167e-06
2.81984e-06
2.75063e-06
2.75406e-06
3.37618e-06
2.51073e-06
2.67944e-06
4.42451e-06
2.67061e-06
3.07576e-06
5.86995e-06
3.06887e-06
4.4621e-06
5.33756e-06
4.06202e-06
5.93181e-06
6.42868e-06
5.26046e-06
8.04515e-06
8.00978e-06
6.8966e-06
1.0898e-05
1.02562e-05
9.03316e-06
1.47041e-05
1.36138e-05
1.18044e-05
7.46834e-06
1.19223e-06
9.03297e-06
2.98901e-05
3.35278e-05
2.74779e-05
3.95793e-05
4.71191e-05
3.16159e-05
4.0398e-05
5.64275e-05
3.46526e-05
3.84587e-05
7.10625e-05
3.91378e-05
3.92166e-05
6.91141e-05
4.64959e-05
4.08471e-05
6.42446e-05
5.62718e-05
4.22597e-05
5.71313e-05
6.62751e-05
3.97682e-05
4.86641e-05
7.52071e-05
4.29654e-05
4.19085e-05
7.31118e-05
1.69998e-06
2.81878e-06
5.89689e-08
5.87265e-07
4.55282e-07
9.10687e-08
4.13211e-07
3.66337e-08
5.01396e-08
3.13648e-07
3.06916e-08
6.17223e-08
2.31783e-08
1.38417e-09
3.31586e-08
2.9875e-08
1.10522e-08
1.35627e-08
2.09368e-07
2.53845e-08
8.1404e-10
4.74662e-08
2.92409e-08
7.19337e-10
1.00619e-08
3.09757e-08
7.35519e-09
1.27756e-08
1.71908e-09
1.19126e-08
3.30433e-08
6.77244e-10
2.57785e-08
6.02623e-08
1.13132e-10
4.09163e-08
9.51791e-08
2.14069e-11
5.0089e-08
1.40295e-07
3.06637e-10
4.6677e-08
6.36315e-08
5.35888e-06
3.31535e-07
7.22121e-08
3.59598e-08
7.85556e-09
1.87197e-07
1.12655e-08
1.94005e-09
7.36635e-08
2.06862e-08
4.6561e-09
3.30157e-10
2.02448e-07
7.17119e-09
1.22884e-08
2.01571e-07
3.41068e-08
5.6173e-08
1.75538e-07
7.16172e-08
1.25255e-07
1.23518e-07
9.30414e-08
5.6144e-09
4.55058e-08
1.17226e-07
5.1927e-08
1.061e-10
1.70207e-07
1.15992e-06
1.99481e-06
6.139e-06
6.78875e-06
7.08243e-06
7.76106e-06
1.11631e-05
9.08345e-06
1.12629e-05
9.24316e-06
6.87301e-06
9.49515e-06
6.23738e-06
5.0408e-06
6.00633e-06
3.75594e-06
3.52226e-06
3.71527e-06
2.42219e-06
3.03403e-06
3.40819e-06
2.82276e-06
3.79055e-06
3.53169e-06
3.08161e-06
4.88666e-06
3.90492e-06
3.1351e-06
6.9402e-06
4.39193e-06
4.1225e-06
8.35798e-06
5.32446e-06
5.50123e-06
1.03735e-05
6.68549e-06
7.2747e-06
1.31579e-05
8.49426e-06
9.39936e-06
1.68829e-05
1.12541e-05
1.53295e-05
3.16531e-05
1.08519e-05
1.63219e-05
3.7484e-05
2.49197e-05
2.74164e-05
5.02848e-05
3.32743e-05
3.50918e-05
6.39538e-05
4.09179e-05
3.85925e-05
6.69789e-05
4.67968e-05
3.79468e-05
6.42933e-05
5.11772e-05
3.77224e-05
5.94097e-05
5.75213e-05
3.81756e-05
5.2755e-05
6.48375e-05
4.07247e-05
4.50566e-05
7.216e-05
4.48648e-05
3.85043e-05
6.82338e-05
3.28235e-07