/*--------------------------------*- C++ -*----------------------------------*\
| =========                 |                                                 |
| \\      /  F ield         | OpenFOAM: The Open Source CFD Toolbox           |
|  \\    /   O peration     | Version:  v2012                                 |
|   \\  /    A nd           | Website:  www.openfoam.com                      |
|    \\/     M anipulation  |                                                 |
\*---------------------------------------------------------------------------*/
FoamFile
{
    version     2.0;
    format      ascii;
    class       volScalarField;
    location    "1e-06";
    object      nut;
}
// * * * * * * * * * * * * * * * * * * * * * * * * * * * * * * * * * * * * * //

dimensions      [0 2 -1 0 0 0 0];


internalField   nonuniform List<scalar> 
10248
(
4.55751e-07
4.26026e-07
1.88187e-07
1.13154e-07
1.21747e-07
1.57343e-07
1.40691e-07
1.58841e-07
1.81419e-07
1.83957e-07
2.05441e-07
2.42499e-07
2.77492e-07
3.58957e-07
3.02615e-07
3.5209e-07
3.50753e-07
3.25545e-07
1.42575e-07
4.23337e-07
4.41232e-07
5.01393e-07
5.07769e-07
5.71982e-07
7.14821e-07
7.31427e-07
8.6748e-07
1.06608e-06
9.37491e-07
1.15744e-06
1.22662e-06
1.15935e-06
1.39958e-06
1.64947e-06
1.64296e-06
2.07534e-06
2.44401e-06
2.43189e-06
2.82185e-06
3.22574e-06
3.20601e-06
3.64606e-06
4.03684e-06
3.98319e-06
4.45686e-06
4.81019e-06
4.6976e-06
5.21e-06
5.46806e-06
5.26743e-06
5.81199e-06
6.04249e-06
5.73497e-06
6.32007e-06
6.57566e-06
6.29843e-06
6.71625e-06
7.02988e-06
6.74737e-06
7.01364e-06
7.2525e-06
7.13794e-06
7.19697e-06
5.99384e-06
7.42564e-06
7.2606e-06
7.65977e-06
7.67644e-06
7.2438e-06
7.75876e-06
7.9302e-06
7.47012e-06
1.23372e-06
1.15048e-06
5.28363e-07
3.80994e-07
3.13578e-07
3.83825e-07
3.9626e-07
3.83279e-07
4.67119e-07
4.52989e-07
4.61067e-07
6.28613e-07
6.04161e-07
7.39434e-07
7.65919e-07
7.13264e-07
8.32481e-07
8.35977e-07
1.07832e-06
1.03487e-06
1.01601e-06
1.04464e-06
1.22741e-06
1.17303e-06
1.33256e-06
1.61943e-06
1.52897e-06
1.85255e-06
1.93539e-06
1.95485e-06
2.17826e-06
2.22676e-06
2.16571e-06
2.65959e-06
2.75775e-06
3.03752e-06
3.82011e-06
3.89245e-06
4.02946e-06
4.95568e-06
5.03271e-06
5.13836e-06
6.13675e-06
6.21412e-06
6.25098e-06
7.23907e-06
7.32254e-06
7.26534e-06
8.12067e-06
8.23007e-06
8.14817e-06
8.84495e-06
9.00514e-06
8.93722e-06
9.44732e-06
9.9103e-06
9.60254e-06
9.89838e-06
1.03667e-05
1.01578e-05
1.00961e-05
1.073e-05
1.06308e-05
1.17402e-05
1.09674e-05
1.0964e-05
1.05346e-05
1.11496e-05
1.12808e-05
1.10416e-05
1.12849e-05
1.16293e-05
3.9179e-06
3.70213e-06
1.77746e-06
1.31164e-06
1.08699e-06
1.23358e-06
1.2834e-06
1.14296e-06
1.37892e-06
1.35137e-06
1.31259e-06
1.66276e-06
1.59989e-06
1.73643e-06
1.79356e-06
1.67159e-06
1.90756e-06
1.92363e-06
1.80402e-06
2.28269e-06
2.26576e-06
2.28597e-06
2.65996e-06
2.60247e-06
2.86176e-06
3.34931e-06
3.233e-06
3.75825e-06
3.90416e-06
3.99261e-06
4.51792e-06
4.62472e-06
4.55753e-06
5.70692e-06
5.89589e-06
6.26625e-06
7.76074e-06
7.89479e-06
7.85355e-06
9.82176e-06
9.97237e-06
9.88425e-06
1.19887e-05
1.21228e-05
1.18899e-05
1.38985e-05
1.4045e-05
1.37196e-05
1.5383e-05
1.55755e-05
1.52873e-05
1.65435e-05
1.68275e-05
1.66021e-05
1.74188e-05
1.82127e-05
1.76702e-05
1.79696e-05
1.88969e-05
1.85318e-05
1.79183e-05
1.94552e-05
1.92567e-05
1.726e-05
1.99082e-05
1.99109e-05
1.90098e-05
2.02912e-05
2.05362e-05
2.01368e-05
2.05066e-05
2.12692e-05
4.12906e-06
3.88108e-06
2.29395e-06
1.35142e-06
1.18997e-06
1.32877e-06
1.31696e-06
1.50403e-06
1.42683e-06
1.40186e-06
1.58833e-06
1.69629e-06
1.69506e-06
1.83751e-06
1.82221e-06
1.883e-06
1.96392e-06
1.96179e-06
2.25828e-06
2.32938e-06
2.32475e-06
2.61037e-06
2.70868e-06
2.69734e-06
3.07414e-06
3.40659e-06
3.40645e-06
3.93969e-06
3.97197e-06
4.30591e-06
4.70315e-06
4.72144e-06
5.12372e-06
5.94396e-06
6.05798e-06
7.27238e-06
8.0683e-06
8.1341e-06
9.26018e-06
1.02376e-05
1.03154e-05
1.16601e-05
1.25397e-05
1.25954e-05
1.37619e-05
1.45775e-05
1.46096e-05
1.54218e-05
1.61961e-05
1.62153e-05
1.67093e-05
1.75049e-05
1.75257e-05
1.77833e-05
1.85993e-05
1.89976e-05
1.86994e-05
1.95806e-05
1.97352e-05
1.9488e-05
2.07273e-05
2.03548e-05
2.01918e-05
2.17427e-05
2.08947e-05
2.08212e-05
2.09983e-05
2.14368e-05
2.14562e-05
2.13869e-05
2.21117e-05
2.22658e-05
7.86387e-06
7.43328e-06
4.26724e-06
2.75312e-06
2.42231e-06
2.59657e-06
2.60415e-06
2.6847e-06
2.65546e-06
2.6172e-06
2.68138e-06
2.87649e-06
2.84284e-06
2.94623e-06
2.96416e-06
2.94525e-06
3.14779e-06
3.16082e-06
3.60821e-06
3.72267e-06
3.71297e-06
4.01026e-06
4.42347e-06
4.39254e-06
4.99404e-06
5.68969e-06
5.65567e-06
6.57499e-06
6.67883e-06
7.06945e-06
7.92918e-06
8.04636e-06
8.71933e-06
1.06006e-05
1.08169e-05
1.22979e-05
1.4087e-05
1.42363e-05
1.54261e-05
1.77762e-05
1.7941e-05
1.92888e-05
2.15785e-05
2.17037e-05
2.26998e-05
2.48265e-05
2.49208e-05
2.54976e-05
2.73443e-05
2.7439e-05
2.77126e-05
2.92685e-05
2.93986e-05
2.95084e-05
3.07722e-05
3.15498e-05
3.09814e-05
3.19346e-05
3.26327e-05
3.22075e-05
3.28383e-05
3.35631e-05
3.33091e-05
3.51829e-05
3.44034e-05
3.43021e-05
3.39173e-05
3.52059e-05
3.52956e-05
3.50718e-05
3.59814e-05
3.6568e-05
1.17255e-05
1.11096e-05
6.32488e-06
4.38814e-06
3.87676e-06
3.93783e-06
3.97787e-06
3.79913e-06
3.88917e-06
3.8427e-06
3.75437e-06
4.1002e-06
4.0189e-06
4.19996e-06
4.27829e-06
4.20189e-06
4.65495e-06
4.68896e-06
4.78211e-06
5.58423e-06
5.56576e-06
5.83794e-06
6.81142e-06
6.73168e-06
7.63893e-06
8.96753e-06
8.80173e-06
1.02157e-05
1.05041e-05
1.08174e-05
1.23519e-05
1.26831e-05
1.35174e-05
1.69041e-05
1.73053e-05
1.86581e-05
2.21017e-05
2.24267e-05
2.32929e-05
2.77867e-05
2.81153e-05
2.88841e-05
3.34391e-05
3.37248e-05
3.39887e-05
3.81723e-05
3.84209e-05
3.82592e-05
4.17124e-05
4.20011e-05
4.16699e-05
4.42845e-05
4.47054e-05
4.44125e-05
4.61587e-05
4.76145e-05
4.66022e-05
4.73435e-05
4.90776e-05
4.83825e-05
4.76866e-05
5.03373e-05
4.99324e-05
4.78727e-05
5.14647e-05
5.13722e-05
4.9904e-05
5.24544e-05
5.27509e-05
5.21755e-05
5.3086e-05
5.44825e-05
1.21022e-05
1.14406e-05
6.96271e-06
4.47801e-06
4.08731e-06
4.09725e-06
4.03901e-06
4.15574e-06
3.96479e-06
3.92015e-06
4.05845e-06
4.1526e-06
4.16153e-06
4.37116e-06
4.32964e-06
4.53987e-06
4.77851e-06
4.77282e-06
5.30485e-06
5.69863e-06
5.70867e-06
6.44674e-06
6.94447e-06
6.98848e-06
8.18742e-06
9.14865e-06
9.29658e-06
1.07396e-05
1.07272e-05
1.16431e-05
1.28998e-05
1.30051e-05
1.49262e-05
1.76511e-05
1.7858e-05
2.08801e-05
2.31011e-05
2.32536e-05
2.63658e-05
2.91499e-05
2.9305e-05
3.2713e-05
3.52135e-05
3.52998e-05
3.82617e-05
4.03579e-05
4.03202e-05
4.24715e-05
4.42465e-05
4.41131e-05
4.54832e-05
4.71826e-05
4.69781e-05
4.77973e-05
4.95451e-05
5.01061e-05
4.96824e-05
5.15782e-05
5.17105e-05
5.1298e-05
5.3646e-05
5.31254e-05
5.27778e-05
5.48351e-05
5.44615e-05
5.41864e-05
5.48689e-05
5.58143e-05
5.55794e-05
5.57658e-05
5.73756e-05
5.74827e-05
1.58174e-05
1.49771e-05
9.07379e-06
6.26392e-06
5.67891e-06
5.43805e-06
5.41581e-06
5.24938e-06
5.21529e-06
5.16874e-06
5.24497e-06
5.62588e-06
5.57323e-06
5.96422e-06
6.03452e-06
6.22996e-06
6.89984e-06
6.93844e-06
7.77821e-06
8.43301e-06
8.42609e-06
9.21799e-06
1.04885e-05
1.04382e-05
1.20465e-05
1.38185e-05
1.37431e-05
1.57644e-05
1.60257e-05
1.6898e-05
1.91208e-05
1.94964e-05
2.15449e-05
2.59643e-05
2.63915e-05
2.92328e-05
3.34213e-05
3.37843e-05
3.66552e-05
4.16842e-05
4.20285e-05
4.49763e-05
4.98492e-05
5.00837e-05
5.2336e-05
5.66039e-05
5.67494e-05
5.80633e-05
6.16243e-05
6.17236e-05
6.23371e-05
6.52494e-05
6.53845e-05
6.56849e-05
6.79767e-05
6.93124e-05
6.83605e-05
6.99913e-05
7.13168e-05
7.05879e-05
7.15617e-05
7.30696e-05
7.25931e-05
7.55846e-05
7.46854e-05
7.44134e-05
7.38368e-05
7.61897e-05
7.61877e-05
7.59289e-05
7.7514e-05
7.85323e-05
1.62414e-05
1.53588e-05
9.77249e-06
6.37768e-06
5.94958e-06
5.61838e-06
5.48745e-06
5.57334e-06
5.30672e-06
5.26776e-06
5.61596e-06
5.70002e-06
5.78751e-06
6.22648e-06
6.11724e-06
6.73874e-06
7.11043e-06
7.08621e-06
8.30379e-06
8.63816e-06
8.69124e-06
1.0192e-05
1.07306e-05
1.09146e-05
1.29458e-05
1.41374e-05
1.45828e-05
1.66175e-05
1.64178e-05
1.82348e-05
2.00425e-05
2.00678e-05
2.36618e-05
2.71595e-05
2.73085e-05
3.22818e-05
3.49981e-05
3.51218e-05
4.07071e-05
4.37875e-05
4.38968e-05
4.99904e-05
5.25336e-05
5.25055e-05
5.80492e-05
5.99049e-05
5.96546e-05
6.39439e-05
6.54196e-05
6.49322e-05
6.78842e-05
6.95509e-05
6.88167e-05
7.07308e-05
7.29362e-05
7.30429e-05
7.29879e-05
7.60336e-05
7.52447e-05
7.49577e-05
7.95645e-05
7.72143e-05
7.68126e-05
8.20915e-05
7.9118e-05
7.85965e-05
8.08643e-05
8.11182e-05
8.03722e-05
8.12412e-05
8.36508e-05
8.29356e-05
2.01066e-05
1.90347e-05
1.17962e-05
6.33331e-06
6.25898e-06
5.02598e-06
4.63482e-06
4.97608e-06
4.34346e-06
4.3845e-06
5.67005e-06
5.53342e-06
6.05778e-06
7.37811e-06
6.98687e-06
9.18034e-06
1.01148e-05
1.00617e-05
1.15275e-05
1.27111e-05
1.27232e-05
1.42236e-05
1.59673e-05
1.59729e-05
1.84237e-05
2.07168e-05
2.07618e-05
2.35608e-05
2.38154e-05
2.55441e-05
2.87808e-05
2.92034e-05
3.26556e-05
3.82836e-05
3.87586e-05
4.31431e-05
4.86311e-05
4.90692e-05
5.38766e-05
6.01887e-05
6.05956e-05
6.55762e-05
7.16687e-05
7.19291e-05
7.59389e-05
8.11334e-05
8.12235e-05
8.38493e-05
8.81356e-05
8.8111e-05
8.95432e-05
9.31407e-05
9.30973e-05
9.38966e-05
9.69139e-05
9.84493e-05
9.73665e-05
9.97767e-05
0.00010118
0.000100277
0.000102131
0.000103569
0.000102896
0.000105596
0.000105774
0.000105308
0.000105181
0.000107836
0.000107623
0.000107513
0.000109724
0.000110757
2.42223e-05
2.30275e-05
1.46774e-05
1.09035e-05
9.85648e-06
8.75731e-06
8.81672e-06
8.1308e-06
8.80967e-06
8.77117e-06
9.09862e-06
1.05769e-05
1.03397e-05
1.15518e-05
1.2014e-05
1.23615e-05
1.44688e-05
1.46742e-05
1.51511e-05
1.82361e-05
1.8176e-05
1.93704e-05
2.29078e-05
2.25467e-05
2.5219e-05
2.91225e-05
2.84069e-05
3.20418e-05
3.31789e-05
3.44124e-05
3.94742e-05
4.06385e-05
4.31815e-05
5.1433e-05
5.25151e-05
5.53751e-05
6.44928e-05
6.5496e-05
6.83639e-05
7.90154e-05
7.99674e-05
8.25436e-05
9.33686e-05
9.41924e-05
9.5512e-05
0.000105102
0.000105851
0.000105799
0.000113606
0.000114454
0.000113589
0.000119448
0.000120655
0.000119748
0.000123497
0.00012721
0.000124681
0.000125968
0.000130484
0.000128751
0.000127022
0.000133272
0.000132277
0.000127934
0.00013569
0.000135478
0.000131979
0.000137615
0.000138425
0.00013684
0.000138458
0.000142118
2.4879e-05
2.35965e-05
1.55888e-05
1.11364e-05
1.02991e-05
9.07216e-06
8.95052e-06
8.68348e-06
9.02091e-06
8.98991e-06
9.78304e-06
1.07867e-05
1.08381e-05
1.21806e-05
1.22573e-05
1.34337e-05
1.50424e-05
1.50916e-05
1.6915e-05
1.88253e-05
1.88625e-05
2.11808e-05
2.3585e-05
2.36503e-05
2.70037e-05
2.99533e-05
3.01034e-05
3.38593e-05
3.41651e-05
3.69496e-05
4.15379e-05
4.20407e-05
4.68916e-05
5.39607e-05
5.45237e-05
6.03874e-05
6.77044e-05
6.82638e-05
7.48439e-05
8.31376e-05
8.36584e-05
9.03816e-05
9.85008e-05
9.88432e-05
0.000104377
0.000111278
0.000111369
0.000115
0.00012059
0.000120509
0.000122556
0.000127203
0.00012711
0.000128275
0.000132146
0.000134196
0.000132806
0.000135837
0.000137805
0.000136609
0.000138693
0.000140946
0.000140012
0.000141886
0.000143817
0.000143151
0.000143028
0.000146452
0.000146119
0.000146
0.00014875
0.000150177
2.97777e-05
2.84492e-05
1.93148e-05
1.47358e-05
1.32879e-05
1.15523e-05
1.16576e-05
1.08062e-05
1.20004e-05
1.19638e-05
1.27542e-05
1.49602e-05
1.46204e-05
1.64937e-05
1.71606e-05
1.78761e-05
2.0804e-05
2.10978e-05
2.21604e-05
2.60943e-05
2.60111e-05
2.79165e-05
3.23967e-05
3.19188e-05
3.53991e-05
4.02962e-05
3.93968e-05
4.40793e-05
4.5558e-05
4.7572e-05
5.41686e-05
5.56351e-05
5.9217e-05
6.90223e-05
7.03727e-05
7.45144e-05
8.55025e-05
8.67748e-05
9.13151e-05
0.000103849
0.000105058
0.000109396
0.000122058
0.000123091
0.000125844
0.000136951
0.000137883
0.000138697
0.000147749
0.000148773
0.000148246
0.000155154
0.000156592
0.000155743
0.000160325
0.000164867
0.000161795
0.000163665
0.000169002
0.000166847
0.000165667
0.000172504
0.000171246
0.000167563
0.00017552
0.000175217
0.000171526
0.000177904
0.000178854
0.000176979
0.000179067
0.000183434
3.06818e-05
2.92414e-05
2.05839e-05
1.51486e-05
1.40339e-05
1.21003e-05
1.19122e-05
1.16031e-05
1.23801e-05
1.23622e-05
1.37551e-05
1.53301e-05
1.54303e-05
1.74622e-05
1.75775e-05
1.93738e-05
2.17002e-05
2.17692e-05
2.42937e-05
2.70047e-05
2.70625e-05
3.02235e-05
3.3412e-05
3.35168e-05
3.77676e-05
4.14996e-05
4.17214e-05
4.6544e-05
4.69669e-05
5.08882e-05
5.69627e-05
5.75826e-05
6.37975e-05
7.2363e-05
7.30486e-05
8.04607e-05
8.96541e-05
9.03602e-05
9.88033e-05
0.000109064
0.000109725
0.000118379
0.000128459
0.000128899
0.000136102
0.000144582
0.000144694
0.000149542
0.000156328
0.000156211
0.000159036
0.000164634
0.000164488
0.000166142
0.000170816
0.000173383
0.000171751
0.000175443
0.000177923
0.000176462
0.000179057
0.000181856
0.000180673
0.000182778
0.000185422
0.000184548
0.00018467
0.000188657
0.000188181
0.000188148
0.00019143
0.000193193
3.69135e-05
3.56196e-05
2.62207e-05
2.10732e-05
1.89153e-05
1.63386e-05
1.65493e-05
1.51021e-05
1.70512e-05
1.69819e-05
1.81837e-05
2.1355e-05
2.08063e-05
2.34082e-05
2.43868e-05
2.53695e-05
2.93067e-05
2.97307e-05
3.11949e-05
3.63049e-05
3.61794e-05
3.86969e-05
4.43915e-05
4.37191e-05
4.79988e-05
5.41551e-05
5.29356e-05
5.87958e-05
6.07892e-05
6.35076e-05
7.18332e-05
7.37454e-05
7.81747e-05
8.98418e-05
9.15949e-05
9.67814e-05
0.000110086
0.00011175
0.000117589
0.000132585
0.000134176
0.000139856
0.000154996
0.000156385
0.000160171
0.000173395
0.00017468
0.000176012
0.000186744
0.000188161
0.000187681
0.000195881
0.000197833
0.000196797
0.000202273
0.000208082
0.00020421
0.000206507
0.00021319
0.000210457
0.000209271
0.000217484
0.00021592
0.000211867
0.000221124
0.000220832
0.000216483
0.000223938
0.000225303
0.000222863
0.000225305
0.000230877
3.81444e-05
3.67251e-05
2.8217e-05
2.18629e-05
2.02838e-05
1.73724e-05
1.70794e-05
1.64567e-05
1.77268e-05
1.76878e-05
1.9687e-05
2.19737e-05
2.20478e-05
2.48189e-05
2.50584e-05
2.74354e-05
3.06233e-05
3.07475e-05
3.40713e-05
3.76323e-05
3.76875e-05
4.16437e-05
4.5838e-05
4.58963e-05
5.10224e-05
5.58247e-05
5.59699e-05
6.19809e-05
6.27123e-05
6.76786e-05
7.54308e-05
7.63271e-05
8.37335e-05
9.40791e-05
9.5031e-05
0.000103848
0.000115262
0.000116246
0.000126339
0.000138975
0.000139915
0.000150252
0.000162762
0.000163451
0.000172009
0.00018258
0.000182909
0.000188585
0.000197016
0.000197116
0.000200318
0.00020717
0.000207321
0.00020911
0.000214665
0.000218305
0.000216094
0.000220218
0.000223899
0.000221977
0.000224609
0.00022871
0.000227225
0.000229482
0.000233001
0.000232016
0.000231802
0.000236778
0.000236472
0.000236171
0.000239817
0.000242567
4.56317e-05
4.46635e-05
3.62122e-05
3.15115e-05
2.83558e-05
2.47328e-05
2.51325e-05
2.21024e-05
2.48875e-05
2.47024e-05
2.59371e-05
3.03117e-05
2.93754e-05
3.26806e-05
3.41336e-05
3.5101e-05
4.02808e-05
4.08986e-05
4.23948e-05
4.9117e-05
4.89242e-05
5.18032e-05
5.9128e-05
5.81422e-05
6.31617e-05
7.09513e-05
6.91883e-05
7.63429e-05
7.91014e-05
8.22653e-05
9.25396e-05
9.5102e-05
9.9988e-05
0.000113928
0.000116266
0.000122021
0.000138186
0.000140408
0.000146921
0.000165046
0.000167191
0.00017353
0.000191877
0.000193827
0.000198029
0.000214089
0.000215955
0.000217254
0.000230198
0.000232288
0.000231412
0.000241195
0.000244026
0.000242463
0.000248887
0.000256464
0.000251506
0.000254009
0.000262652
0.000259183
0.000257275
0.000267806
0.000265923
0.000260435
0.000272091
0.000271971
0.000266338
0.000275299
0.000277447
0.000274102
0.000276745
0.000284108
4.6875e-05
4.57829e-05
3.92321e-05
3.26232e-05
3.05415e-05
2.64297e-05
2.59683e-05
2.44746e-05
2.58663e-05
2.57285e-05
2.81454e-05
3.10781e-05
3.10285e-05
3.44699e-05
3.49056e-05
3.78036e-05
4.18285e-05
4.20433e-05
4.63761e-05
5.0551e-05
5.05928e-05
5.53992e-05
6.05495e-05
6.05275e-05
6.65348e-05
7.24491e-05
7.25033e-05
7.96931e-05
8.07669e-05
8.68171e-05
9.61011e-05
9.72882e-05
0.000106004
0.000117868
0.000119081
0.000129603
0.000142749
0.00014398
0.000156141
0.000170438
0.000171602
0.000184212
0.000198259
0.000199122
0.000209836
0.000221581
0.000221978
0.000229364
0.000238581
0.000238647
0.000243065
0.000250561
0.000250611
0.000253256
0.00025948
0.000263525
0.000261341
0.000266291
0.000270187
0.000268176
0.000272095
0.00027593
0.000274292
0.000278965
0.000281053
0.00027985
0.000280595
0.000285585
0.000285026
0.000285183
0.000289396
0.000292204
4.81951e-05
4.70404e-05
4.19955e-05
3.38028e-05
3.29078e-05
2.84235e-05
2.6994e-05
2.65768e-05
2.69415e-05
2.69113e-05
3.02482e-05
3.18847e-05
3.27703e-05
3.64097e-05
3.5748e-05
4.01627e-05
4.34802e-05
4.33017e-05
4.88322e-05
5.20291e-05
5.24254e-05
5.87301e-05
6.19771e-05
6.30784e-05
7.00445e-05
7.39326e-05
7.58864e-05
8.32213e-05
8.24631e-05
9.11556e-05
9.97837e-05
9.95041e-05
0.000111352
0.000121867
0.000121927
0.000136009
0.000147309
0.000147566
0.000163721
0.000175778
0.000176004
0.000193095
0.000204594
0.000204373
0.00022004
0.000228988
0.000227925
0.000240496
0.000247026
0.000245003
0.000254457
0.000260107
0.00025716
0.000264269
0.000270382
0.000270449
0.000271564
0.000278894
0.000277596
0.000277482
0.000286202
0.00028395
0.00028278
0.000291658
0.00028997
0.000287765
0.000294357
0.000296006
0.000292535
0.000296673
0.000302445
0.000300131
5.569e-05
5.5265e-05
5.25765e-05
4.73358e-05
4.5062e-05
4.01172e-05
3.95236e-05
3.65708e-05
3.74944e-05
3.71601e-05
3.9616e-05
4.30748e-05
4.27535e-05
4.67505e-05
4.75033e-05
5.07467e-05
5.56153e-05
5.59874e-05
6.08077e-05
6.61025e-05
6.61207e-05
7.17864e-05
7.7998e-05
7.78082e-05
8.47409e-05
9.1972e-05
9.1793e-05
0.000100205
0.000101818
0.000108779
0.000119594
0.000121257
0.000131114
0.000144561
0.000146213
0.000158263
0.000173206
0.000174854
0.000188826
0.000204914
0.00020648
0.000221085
0.000236849
0.000238055
0.000250717
0.000263868
0.000264616
0.000273546
0.000283759
0.00028413
0.000289466
0.000297724
0.000298054
0.00030125
0.000308208
0.000313138
0.000310671
0.000316409
0.000320978
0.000318691
0.000323753
0.000327722
0.00032588
0.000330546
0.000333697
0.000332443
0.000333747
0.000338956
0.000338533
0.00033879
0.000343526
0.000346917
5.71248e-05
5.66988e-05
5.50262e-05
4.93232e-05
4.81664e-05
4.30041e-05
4.14059e-05
3.90797e-05
3.93594e-05
3.91145e-05
4.20669e-05
4.45654e-05
4.51949e-05
4.93632e-05
4.90297e-05
5.35739e-05
5.81286e-05
5.80692e-05
6.36374e-05
6.85782e-05
6.89284e-05
7.54893e-05
8.05702e-05
8.14596e-05
8.91228e-05
9.47863e-05
9.63459e-05
0.000105044
0.000104988
0.000114297
0.000124985
0.000125283
0.00013762
0.000150702
0.00015128
0.000165865
0.000180411
0.000181167
0.000197758
0.00021347
0.000214202
0.000231641
0.000245963
0.00024727
0.000263181
0.000275779
0.00027528
0.000287597
0.000297005
0.000295636
0.000304529
0.000312187
0.00031015
0.000316753
0.000323887
0.000326069
0.000326098
0.000333175
0.000334595
0.000333743
0.000340733
0.000342086
0.000340522
0.000346763
0.000348995
0.000346816
0.000351803
0.000355567
0.000352741
0.000356115
0.000361824
0.000361789
6.24141e-05
6.28618e-05
6.46111e-05
6.26855e-05
6.07344e-05
5.61312e-05
5.56918e-05
5.14422e-05
5.23101e-05
5.18064e-05
5.39156e-05
5.82551e-05
5.74277e-05
6.19239e-05
6.32511e-05
6.63673e-05
7.24183e-05
7.30695e-05
7.78346e-05
8.49021e-05
8.48496e-05
9.09807e-05
9.90146e-05
9.84012e-05
0.000106216
0.000115457
0.000114536
0.00012437
0.000127048
0.000134254
0.000147038
0.000149647
0.000159716
0.000175592
0.000178117
0.000190456
0.000208439
0.000210924
0.000225111
0.000244644
0.00024707
0.000261804
0.000259229
0.000275401
0.000296085
0.000312761
0.00031458
0.000323008
0.000335974
0.000337612
0.000341921
0.000352111
0.000354087
0.000356141
0.000364195
0.000371948
0.000367761
0.000373561
0.000381195
0.000377796
0.000381635
0.000389039
0.000386824
0.000388633
0.000395793
0.000395078
0.000394188
0.000401467
0.00040267
0.000401267
0.000406075
0.000412493
6.3406e-05
6.38894e-05
6.68245e-05
6.46698e-05
6.36837e-05
5.90056e-05
5.77997e-05
5.43204e-05
5.46365e-05
5.4245e-05
5.68084e-05
6.02499e-05
6.04436e-05
6.50155e-05
6.52717e-05
6.98285e-05
7.54939e-05
7.57093e-05
8.14631e-05
8.79881e-05
8.82805e-05
9.52423e-05
0.000102222
0.000102738
0.00011114
0.000118923
0.000119835
0.000129849
0.000130897
0.000140576
0.000153145
0.000154404
0.000167103
0.000182504
0.000183954
0.00019905
0.000216443
0.000218033
0.000235135
0.000254011
0.000255604
0.000273497
0.000255796
0.000271899
0.000309672
0.000325621
0.00032621
0.000338146
0.000350224
0.000350161
0.000358028
0.000367559
0.000367279
0.000372718
0.000380802
0.000386092
0.000384355
0.000391141
0.000396104
0.000394104
0.000399635
0.000404771
0.000402797
0.00040703
0.000412515
0.000410799
0.000413622
0.000419458
0.000418248
0.000419999
0.000425489
0.000428872
6.66885e-05
6.774e-05
7.25878e-05
7.45161e-05
7.31924e-05
7.023e-05
7.0248e-05
6.54591e-05
6.71624e-05
6.68749e-05
6.8834e-05
7.49726e-05
7.37013e-05
7.89622e-05
8.11574e-05
8.37319e-05
9.14832e-05
9.25444e-05
9.66037e-05
0.00010619
0.000106048
0.000112031
0.000122735
0.000121486
0.000129949
0.000141851
0.000139721
0.000151074
0.000155255
0.000161943
0.000177045
0.000180913
0.000190192
0.000209109
0.000212748
0.00022419
0.000245953
0.000249487
0.000262598
0.000286401
0.000289899
0.000303468
0.000279237
0.000293342
0.000342326
0.000363489
0.000366697
0.000373539
0.000390119
0.000393403
0.000395784
0.000408415
0.000412544
0.000412812
0.00042209
0.000433271
0.000427014
0.000432467
0.000444024
0.000439398
0.000440801
0.000453048
0.00045059
0.00044841
0.000460639
0.000460822
0.000456545
0.000466753
0.000470203
0.000466554
0.00047122
0.000481508
6.72479e-05
6.82921e-05
7.44105e-05
7.57605e-05
7.53587e-05
7.24295e-05
7.17677e-05
6.80418e-05
6.90149e-05
6.89165e-05
7.23108e-05
7.67195e-05
7.68802e-05
8.22276e-05
8.30184e-05
8.81415e-05
9.45236e-05
9.50773e-05
0.000102377
0.000109088
0.000109416
0.000117468
0.000125591
0.000125874
0.000135287
0.000144759
0.000145282
0.000156493
0.000158455
0.000168824
0.000182703
0.000184799
0.00019843
0.00021517
0.000217394
0.000233848
0.000252649
0.000254977
0.000273705
0.000293938
0.00029627
0.000315965
0.000328432
0.000336585
0.000356131
0.00037351
0.000374922
0.000388093
0.000401227
0.00040201
0.000410334
0.000420629
0.00042135
0.00042687
0.00043563
0.000442685
0.000440283
0.000447676
0.000454181
0.000451743
0.000458319
0.000464109
0.000462073
0.000469415
0.000472896
0.000471547
0.000474445
0.000480648
0.000480382
0.000481738
0.000487548
0.000492544
6.79199e-05
6.88901e-05
7.5144e-05
7.70586e-05
7.72162e-05
7.4935e-05
7.35116e-05
7.08832e-05
7.09712e-05
7.09652e-05
7.46453e-05
7.8541e-05
7.96184e-05
8.53094e-05
8.49233e-05
9.14166e-05
9.76327e-05
9.76734e-05
0.000105475
0.000112073
0.000112784
0.000121713
0.0001285
0.000130051
0.000140174
0.000147689
0.000150246
0.000161773
0.000161634
0.000174534
0.000188322
0.000188659
0.000204836
0.000221197
0.000221996
0.000240992
0.000259264
0.000260382
0.000281718
0.000301338
0.00030252
0.000298329
0.000264759
0.000287938
0.000366607
0.000383264
0.000382937
0.000399972
0.000412223
0.000410545
0.000423125
0.00043278
0.000430081
0.00044003
0.000449005
0.000451877
0.000453291
0.000462159
0.000464135
0.000464134
0.000473141
0.000475013
0.000473616
0.000482483
0.000485074
0.000482302
0.000490026
0.000494606
0.000490459
0.000496597
0.000503569
0.000503298
7.1804e-05
7.28834e-05
7.95702e-05
8.42877e-05
8.47287e-05
8.49223e-05
8.45494e-05
8.17994e-05
8.22399e-05
8.20873e-05
8.48402e-05
9.07179e-05
9.13811e-05
9.83676e-05
9.97835e-05
0.000106128
0.000113855
0.000114842
0.000122418
0.000131031
0.000131515
0.000140512
0.000150187
0.000150304
0.000160828
0.000172104
0.000172189
0.000184731
0.000187686
0.000198437
0.000213781
0.000216785
0.000230792
0.000249176
0.000252248
0.000269154
0.000289866
0.000293015
0.000312183
0.000334541
0.000337722
0.000320722
0.000253906
0.000303217
0.000401995
0.000421632
0.000424113
0.000437854
0.000452722
0.000454648
0.000462937
0.000474338
0.000476346
0.000481594
0.000491294
0.000500329
0.000497059
0.000505144
0.000513434
0.000510476
0.000517305
0.00052473
0.000522673
0.00052785
0.000534655
0.000533974
0.000536223
0.000543399
0.000544514
0.000545051
0.000551373
0.000558277
7.28988e-05
7.38428e-05
8.05401e-05
8.57109e-05
8.6449e-05
8.74009e-05
8.56151e-05
8.39408e-05
8.46087e-05
8.43263e-05
8.69392e-05
9.26475e-05
9.3879e-05
0.000101129
0.000102011
0.000109448
0.000117254
0.000118003
0.000126157
0.000134764
0.000135604
0.000144982
0.000154211
0.000155321
0.000166152
0.000176462
0.000178091
0.000190845
0.00019251
0.000205185
0.000220635
0.000222548
0.000238363
0.000256839
0.000259039
0.000277663
0.000298502
0.000300933
0.000321805
0.000344342
0.000346873
0.000368915
0.00023643
0.000302432
0.000407269
0.000434689
0.000436207
0.000452242
0.000467153
0.000467671
0.000478538
0.000489866
0.00049001
0.000498046
0.000507815
0.000514941
0.000514002
0.000522356
0.000528951
0.000527487
0.000534657
0.000541212
0.000539511
0.000545526
0.000552224
0.000550583
0.000555415
0.000562166
0.000560931
0.000564566
0.000571063
0.00057565
7.9109e-05
7.98748e-05
8.5783e-05
9.27873e-05
9.33952e-05
9.70112e-05
9.75455e-05
9.62897e-05
9.6942e-05
9.62791e-05
9.69623e-05
0.000102821
0.00010293
0.000110421
0.000112844
0.000120051
0.000130035
0.0001317
0.00013972
0.000151173
0.00015198
0.00016151
0.000174113
0.000173931
0.000185392
0.00019972
0.00019877
0.00021302
0.000217661
0.000227852
0.000245479
0.000249924
0.000262861
0.000284216
0.000288562
0.000304056
0.000328306
0.000332641
0.000350086
0.000376481
0.000380903
0.000399274
0.000259085
0.000338726
0.000411534
0.000471686
0.00047582
0.00048743
0.000506081
0.000510054
0.00051591
0.00052987
0.000534521
0.00053753
0.000548584
0.000561603
0.000556049
0.000563721
0.000576584
0.000572385
0.000576491
0.000589434
0.00058735
0.000587982
0.000600555
0.000601248
0.000599413
0.000610053
0.000614206
0.000611883
0.000618083
0.00062973
8.02334e-05
8.10016e-05
8.68605e-05
9.36822e-05
9.49341e-05
9.92262e-05
9.91493e-05
9.92537e-05
9.91513e-05
9.85442e-05
9.88101e-05
0.000104041
0.000104666
0.000112316
0.000114254
0.000123081
0.000132358
0.000133825
0.000144504
0.000153771
0.000155148
0.000166772
0.000176953
0.000178322
0.000190744
0.000202785
0.000204494
0.000218645
0.00022133
0.000234943
0.000251393
0.000254317
0.000271233
0.000290536
0.000293709
0.000313678
0.000335155
0.000338533
0.00036087
0.000384021
0.000387528
0.000411169
0.000309153
0.000387433
0.000441964
0.000481453
0.000484122
0.000501342
0.000516923
0.000518694
0.000529956
0.000541752
0.000543321
0.000551296
0.000561755
0.000570969
0.000569326
0.000578551
0.000586791
0.000584939
0.000593594
0.000600637
0.000599112
0.000607203
0.000613006
0.000612256
0.000617238
0.000624146
0.000624609
0.000627556
0.000634557
0.000641142
8.15384e-05
7.33695e-05
8.83102e-05
9.48444e-05
9.62889e-05
0.000101184
9.4722e-05
8.90265e-05
0.000101806
0.000101132
0.000101794
0.000105724
0.000106667
0.000114092
0.000115568
0.000124623
0.000134208
0.000135559
0.000145924
0.000156086
0.000157671
0.000169293
0.000179633
0.000181669
0.000194333
0.00020577
0.000208619
0.000223127
0.000224598
0.000239737
0.000256502
0.000258306
0.000276565
0.000296234
0.000298438
0.000319576
0.000341447
0.000343968
0.000367381
0.000390988
0.000393665
0.000418523
0.000230876
0.000300371
0.000400617
0.000490384
0.000491853
0.000511187
0.000527024
0.000526999
0.000540851
0.000552789
0.000551854
0.000562936
0.000573679
0.000580007
0.000581344
0.000591096
0.000596678
0.000596859
0.000606025
0.000611539
0.000610566
0.000619208
0.000625141
0.000623086
0.000631018
0.000637719
0.000634771
0.000641734
0.000649281
0.000652154
8.73304e-05
8.81699e-05
9.51959e-05
0.000102345
0.000103507
0.000110033
0.000111095
0.000114542
0.000115925
0.000115267
0.000115062
0.000117897
0.000117556
0.000122896
0.000124824
0.000131877
0.000141707
0.000143699
0.000153936
0.000165621
0.000167688
0.000180083
0.000192396
0.000194338
0.000208256
0.000222546
0.000224663
0.000240756
0.000244402
0.000259044
0.000277199
0.000281031
0.000298583
0.000319931
0.000323994
0.00034424
0.000367764
0.000371985
0.000394176
0.000419647
0.000424054
0.000447558
0.000215059
0.000269641
0.000423035
0.000524035
0.000527728
0.000544847
0.000562407
0.000565381
0.000576198
0.000589333
0.000592276
0.000599907
0.000611474
0.000622687
0.000620446
0.000630284
0.000640541
0.000638476
0.000646753
0.000656224
0.00065499
0.000661417
0.000670242
0.000670457
0.000674408
0.000682914
0.000685053
0.000687144
0.000694751
0.000703467
8.81962e-05
8.91949e-05
9.61647e-05
0.000103314
0.000104745
0.000111632
0.000112479
0.000116895
0.000118421
0.000117831
0.000116785
0.000119815
0.000119544
0.000124583
0.000126325
0.000132862
0.000143034
0.00014498
0.000155396
0.000167016
0.000169329
0.00018262
0.000194037
0.000196694
0.000211171
0.00022461
0.000228072
0.000244358
0.000247154
0.000263576
0.000281394
0.000284534
0.000304093
0.000324813
0.000328322
0.000350733
0.000373318
0.000377072
0.000401524
0.000425905
0.000429853
0.000455805
0.00048103
0.000263163
0.000421184
0.000532303
0.000535189
0.00055513
0.000571627
0.000573184
0.000586949
0.000599292
0.000600242
0.000610993
0.000622284
0.000631153
0.000631747
0.000641988
0.000649843
0.000649682
0.000659427
0.000666478
0.000665853
0.000675714
0.000681605
0.000680794
0.000688433
0.000695509
0.000694833
0.000700875
0.000708555
0.00071417
8.87071e-05
6.91839e-05
7.90502e-05
0.000104681
9.66701e-05
0.000113505
0.00010481
0.000100904
0.000121541
0.000106054
0.000104693
0.000122505
0.000123178
0.000127741
0.000128206
0.000135672
0.000144839
0.000146476
0.000157103
0.000168484
0.000170703
0.000183228
0.000195588
0.0001982
0.000212652
0.000226632
0.000230198
0.000246911
0.000249138
0.000266522
0.000284837
0.000287271
0.000307863
0.000329168
0.000331915
0.000355503
0.000378459
0.000381444
0.000407091
0.00043178
0.000434934
0.000462347
0.000381365
0.000184437
0.000355374
0.000539909
0.000541828
0.000563941
0.000580526
0.000580475
0.00059657
0.000609089
0.000607773
0.000621224
0.000632983
0.000639265
0.000642353
0.00065353
0.000658767
0.000660345
0.000671465
0.000676391
0.000676276
0.000687362
0.000692744
0.000690763
0.000701343
0.000708097
0.000704233
0.000713877