/*--------------------------------*- C++ -*----------------------------------*\
| =========                 |                                                 |
| \\      /  F ield         | OpenFOAM: The Open Source CFD Toolbox           |
|  \\    /   O peration     | Version:  v2012                                 |
|   \\  /    A nd           | Website:  www.openfoam.com                      |
|    \\/     M anipulation  |                                                 |
\*---------------------------------------------------------------------------*/
FoamFile
{
    version     2.0;
    format      ascii;
    class       volScalarField;
    location    "1e-06";
    object      omega;
}
// * * * * * * * * * * * * * * * * * * * * * * * * * * * * * * * * * * * * * //

dimensions      [0 0 -1 0 0 0 0];


internalField   nonuniform List<scalar> 
10248
(
85782.9
86811.6
88431
91964
87838.8
88414.4
92837.3
93118.8
91426.8
91828.1
92785.5
97225.9
92894.1
93494.8
98308.1
95085.5
94889.6
96738
113369
97606.2
96936.1
96952.1
103775
102243
104967
113363
109404
109173
111924
104320
108161
115858
120714
128994
134096
129474
127722
130891
126349
122872
125900
122795
119698
122493
117089
114970
118261
111814
110376
114451
107014
105650
110948
103550
101634
106764
101205
98388.8
102909
99638.7
97453.6
99354.5
98672.8
115929
96161
97941.2
93190.5
92856.7
97394.2
91555.4
89408.6
93305.1
55708.2
56347.9
60429
58021.5
62411.7
61635.7
60374.6
65449.9
62617.9
63848.9
67638.8
65111.8
69061.6
70633.2
69397.9
75535.2
72873.4
72895.5
65019.2
74265.1
75524.5
77679.2
77469.8
80015.1
82406.7
82148.7
85801.7
84694.8
83604.9
83550.9
83236.7
82999
93708.4
93280.3
92335
97639.5
90747.2
90387.6
95942.6
87798.1
87516.5
92856
85865.7
85549.8
90073.2
83297.9
82730.9
86320.9
80764.1
79828
82335.3
78332.7
76984.9
79001.8
76480.2
73807.4
76318.6
75212.4
72543.5
74115.9
74940.7
71424.4
72052.5
64434.5
70485.1
70336.4
72871
69467.6
68386.4
69859
68437.8
66105.6
28401
28733.6
32344.4
32186.2
33994
33163.6
32778.5
37354.2
36892.7
37640
40339.3
40308.6
41785.3
44842.3
44920.1
49846.5
49263.3
49610.5
54191.2
51125.9
51688.6
54158.8
51948.6
52850.7
53542
52349.2
54394.9
53760.8
53053.8
55999.7
54171.8
53690
56746.7
52541.6
51993.9
55089.1
51682.5
51608.9
56130.1
50876.1
50798.2
54905.8
50478
50345.6
53656.8
49436.8
49164.8
51635.5
48368.9
47909.4
49624.4
47471.2
46779
48056.2
46868.3
45493.1
46832.8
46635.4
44992.4
45829.5
47261.2
44506.1
44906.2
48657.1
43991.1
43929
45632.2
43446.1
42878.3
43670.7
43017.1
41598
27590.9
28038.5
28786.6
31786.1
32753.4
32097.9
32388.9
32752.8
36345.5
37022.4
37489.6
39963.8
40684.7
43541.7
44519.1
46748.5
48503.7
49093.4
50351.6
50563.9
50953.5
50261.1
51430.9
51621.3
50910.9
51775.2
52308.3
51843.1
52428.5
53046.8
52819
52912.7
52444.9
51115.3
51027.4
49268.6
50268.8
50503.4
49574.4
49418.6
49566
48492
48865.1
48998.9
48108.8
47776.7
47817.7
47348.2
46659.9
46610.9
46532.4
45629.8
45511.8
45766.5
44757.9
44213.9
45008.1
43857.2
43689.8
44264.2
42497
43170.5
43472.2
40396
42585.7
42639.1
42510.7
41863.5
41667.3
41911.5
40850.7
40375.1
19023.2
19365.2
21484.6
23630.7
24409.4
23756.3
23882.3
24943
27680.5
28199.9
29709.5
30499.5
31006
32209
32404.7
34420.1
35246
35607.2
35018
36388.8
36863.7
37106.8
36086.6
36546.2
35202.3
34174.3
34932.9
34266.7
34494.4
36598.9
36727
36620.6
36376.2
33918.4
33813.2
33441.9
33359.2
33476.4
34033.2
33031.9
33120.9
33543.7
32900.2
32978.7
33298.7
32331.9
32337.1
32669.4
31762.7
31712.1
32071.5
31316.7
31202.9
31564.9
30967
30572.8
31105.1
30675.5
30315.9
30680.8
30376.8
30035.8
30222.5
28707.5
29701.3
29738.9
30049.2
29305.2
29176.5
29382.7
28839.8
28398.8
15283.8
15584.5
18186.1
19710.6
20371.4
20076.6
20173.2
21582.3
23093.8
23438.1
24667.6
23754.9
24241.6
23963.2
23692.8
25155.6
24890
24987
26584.3
25254
25656.2
26738.6
25024.5
25628.2
24830.2
23575.7
24321
23986.2
23959.2
26239.3
26473.4
26259.9
26762.1
24506.2
24387
24935.8
24289
24323
25463.9
24188.5
24223.5
25299.7
24206.9
24220.9
25045.4
23859.8
23824.8
24493.6
23551.7
23469.9
24010.6
23359.5
23210.5
23624.3
23245.2
22878.8
23301.4
23223.3
22744.6
23018
23355.1
22585.2
22728.6
23392.6
22389.5
22405.4
22915.4
22174
22046.6
22261.9
21995
21543.1
15057.1
15384.5
17531.7
19582
19982.2
19807.6
20055.5
20860.5
22892.9
23183
23443.2
23547.3
23557.6
23173.1
23443.8
23469.1
24338.2
24599.2
23726.2
24827.3
25099
24535.3
24658.1
24855.2
23554.6
23248.2
23360.9
23153.9
23609.9
24867.1
25693.3
25808.7
25022.3
23858.6
23918.4
23151.8
23640.3
23793.1
23468
23502.9
23633.6
23326.9
23467.7
23567.3
23172.9
23060.2
23145.8
22881.5
22716.5
22796
22702.2
22465.5
22539.5
22559.7
22242.4
22197.4
22401.3
21995.3
22050
22216.6
21634.5
21872.4
21986.5
21272.8
21645.6
21710.9
21572.3
21359.6
21384.3
21378.6
20964.2
20881.2
13223.4
13523.1
15905.3
17450
17864.6
17885.5
18033
18877.1
19507.5
19677
19501.5
18484.4
18647.5
17928.1
17865.7
18105.7
18000.1
18102.8
17522
18086.5
18306.2
18474.5
18042.4
18342.9
17814.5
17400.1
17738.2
17720.5
17833.1
19064.5
19467
19440.1
19513.7
18479
18485
18566.2
18522.2
18596.2
18889.4
18571.2
18638.7
18905.3
18599.3
18637.8
18763.4
18338.3
18362.6
18506.2
18134.8
18143.1
18319.8
18016.8
18000.8
18166
17933
17801.9
18021.3
17869
17717.4
17872.2
17789.6
17607.1
17696.2
17156.6
17463.9
17500.5
17636.8
17293.8
17268.7
17341.3
17104
16913.8
13080.7
13391.4
15545.6
17365.9
17620.8
17704.4
17943.8
18292.3
19298.4
19408.1
18481.9
18308.3
18078.5
17352.7
17670.8
17091
17616.5
17819.7
16993.9
17784.6
17902.8
17241.6
17776.2
17794.3
17006.9
17166.4
17086.5
17157
17577.4
18145.1
18894.7
19094.8
18395.9
18006.4
18133.5
17499.5
18044.7
18199.2
17737.2
18066.3
18198.1
17737.1
18045.4
18152.5
17600.7
17748.3
17853.2
17437
17518.1
17635.3
17393.1
17358.1
17493.7
17380.1
17201.6
17288.1
17343.5
16997.5
17192.9
17265.4
16662.7
17068.6
17139.5
16413.7
16902.3
16972.2
16685.4
16681.7
16763.7
16670.6
16349.2
16409.7
11982
12276.5
14560.6
15984.2
16303.1
16201.2
16256
16337.6
16108.2
16159
15340.7
14483.3
14497.9
13830.9
13850.1
13758.7
13703.5
13790.7
13429.2
13698.1
13829.3
13781.7
13720.4
13880.4
13610.5
13556.1
13727.7
13834.5
13965.4
14629.4
14956.4
14999.9
15006.1
14579.9
14630.4
14660.3
14735.4
14811.4
14903.3
14825.8
14892.4
14944.6
14806.3
14852.2
14804.2
14596.4
14632.8
14630.9
14445.4
14476.1
14533.9
14364.1
14384.5
14459.4
14303.6
14247.5
14381.2
14245.8
14186.7
14288.6
14163.2
14104.4
14171.6
13885.3
13996.3
14034.3
14062.8
13865.3
13871
13895.8
13709.6
13607.3
11179.1
11447.9
13682
14616.9
15019.2
14506.1
14298.7
14253.3
13118.9
13148.8
12703.2
11532.5
11747.9
11255.3
11068.4
11385.2
11023.6
11030
11482.4
10992.2
11122.4
11440.4
11080.7
11307.7
11341.3
11166.8
11470.4
11600.9
11549.9
12260.8
12353.6
12291
12693.1
12254.9
12240.8
12670.5
12450.8
12464.6
12920.3
12560.4
12573.5
12969.9
12544.4
12539.9
12814.9
12385.6
12368.5
12623.1
12287.9
12253.6
12488.2
12253.9
12189.2
12375.9
12248.6
12092.1
12272.3
12269.8
12051
12169
12321
11994.7
12058.1
12332.9
11924.5
11934.3
12155.2
11852.1
11797.3
11897.1
11805.9
11592.6
11084.1
11358.6
13429.7
14523
14787.2
14221.5
14170.1
13528.3
12889
12891.4
12022.2
11391.5
11379.3
10897.5
10939.6
10820.7
10787.2
10859.7
10653.8
10809.5
10901
10869.8
10920
11024.4
10939.4
11019.1
11132.3
11281.2
11390.8
11798
12025.1
12083.4
12122.5
11960.6
12018.8
12078.7
12145.2
12210.5
12270.6
12232.2
12288.2
12305.2
12192
12228.8
12164.4
12008.6
12041.6
12025.4
11895.4
11926
11957.3
11837.7
11860
11907.2
11794.7
11755.7
11852.5
11753.2
11706.8
11783.3
11699.9
11640.8
11694.6
11559.8
11555.3
11588.5
11600.8
11453.4
11463.6
11475.9
11335.8
11257.1
10426.1
10646.7
12451.6
12882.7
13259.4
12270.5
11997
11494.8
10423.8
10440.9
10005.4
9230.45
9402.97
9092.95
8968.51
9190.76
8980.95
8992.57
9261.47
9032.14
9133.63
9357.43
9206.88
9378.03
9476
9433.87
9662.68
9811.22
9779.76
10276.3
10357
10323.7
10630.3
10415.2
10413.3
10731.8
10610.9
10624.9
10928.4
10713.9
10726.2
10975.2
10692.3
10690.5
10851.3
10563.4
10551.8
10714.5
10487.5
10463.6
10627.4
10462.4
10415.5
10552.3
10456.3
10337.2
10476.2
10463.1
10301.4
10394.2
10475.2
10252.9
10303.6
10453.2
10193.3
10202.5
10351.2
10131.8
10090.6
10164.1
10086.4
9921.57
10334.5
10558.2
12170.2
12742.6
12929.9
11919.6
11834.9
10860.2
10209.6
10204.8
9505.63
9105.98
9105.6
8813.85
8857.69
8789.4
8792.08
8853.11
8747.21
8885.93
8958.39
8980.05
9078.78
9159.85
9184.42
9314.05
9403.06
9563.87
9650.84
9935.04
10103.9
10159.8
10222.6
10179.4
10233.9
10303.3
10364.5
10419.7
10464.2
10451
10498.1
10498.8
10413.4
10444.7
10381.6
10268.6
10297.1
10272.5
10181.7
10209.1
10223.8
10139
10160.3
10189.2
10105.8
10076.6
10148.3
10070.7
10034.2
10093
10024.1
9977.29
10020.5
9922.23
9904.94
9933.29
9930.08
9819.65
9831.02
9833.35
9722.55
9659.95
9764.12
9897.43
11065.7
10911.6
11203.9
9966.58
9703.32
9148.94
8298.27
8318
8030.48
7539.86
7688.77
7529.18
7439.96
7644.09
7531.12
7543.73
7772.83
7656.24
7739.81
7944.9
7888.28
8028.15
8165.55
8180.07
8368.33
8517.05
8488.65
8869.16
8934.3
8909.52
9169.79
9054.6
9053.01
9317.15
9233.67
9242.95
9481.76
9330.79
9338.85
9528.87
9316.29
9312.9
9432.4
9215.12
9202.76
9326.31
9155.87
9133.21
9262.49
9137.02
9094.84
9205.33
9130.67
9027.73
9142.71
9130.13
8994.31
9071.51
9128.66
8950.12
8991.62
9100.89
8897.62
8903.1
9017.32
8844.19
8805.94
8866.37
8802.66
8661.12
9685.22
9819.93
10746.7
10749.9
10832.5
9631.83
9540.31
8600.8
8118.57
8122.3
7657.13
7435.63
7458.54
7315.81
7347.76
7346.31
7381.4
7430.42
7395.39
7538.06
7600.63
7670.71
7783.68
7857.33
7945.28
8080.19
8163.97
8321.08
8381.71
8606.45
8733.74
8776.23
8859.32
8861.63
8904.71
8984.27
9031.17
9073.93
9123.38
9116.43
9152.78
9163.64
9091.78
9115.01
9073.74
8980.13
8999.65
8987.12
8913.2
8931.01
8949.2
8881.33
8892.35
8919.86
8855.27
8820.56
8882.49
8825.9
8781.4
8831.36
8783.77
8730.01
8765.63
8690.56
8666.74
8688.17
8689.1
8594.49
8598.65
8602.18
8515.76
8451.41
9335.7
9363.8
9825.06
9205.15
9350.12
8102.53
7878.05
7400.32
6766.72
6786.31
6650.24
6337.55
6468.16
6410.07
6339.86
6548.72
6492.17
6503.2
6735.39
6667.16
6738.26
6947.56
6928.11
7049.11
7207.65
7239.64
7405.41
7544.95
7511.56
7827.68
7876.47
7850.77
8090.25
8016.21
8009.86
8250.3
8176.12
8179.01
8396.56
8272.38
8275.05
8451.25
8274.63
8267.21
8379.92
8198.69
8182.76
8294.05
8153.54
8128
8242.02
8139.43
8095.95
8192.84
8132.71
8035.89
8135.93
8128.31
8002.94
8069.49
8124.14
7960.84
7994.79
8096.57
7912.57
7912.81
8012.28
7864.53
7824.02
7878.19
7826.96
7695.84
9300.74
9327.06
9529.9
9091.99
9059.84
7864.99
7766.23
6953.13
6642.26
6650.34
6366.4
6265.52
6302.29
6256.43
6277.57
6322.75
6386.29
6425.35
6427.98
6586
6641.52
6737.17
6859.09
6927.89
7045.9
7176.06
7255.29
7403.84
7446.07
7632.57
7738.8
7770.56
7857.53
7887.13
7921.09
7995.68
8045.59
8079.91
8124.81
8139.23
8169.29
8179.78
8138.56
8157.14
8121.62
8058.26
8073.49
8058.2
8008.86
8022.93
8032.76
7984.65
7993.21
8010.88
7961.22
7931.04
7978.72
7930.28
7893.14
7932.26
7881.77
7843.99
7872.15
7783.1
7784.65
7801.93
7790.25
7717.74
7721.13
7717.1
7644.15
7589.25
9286.71
9307.34
9395.12
8995.01
8841.33
7672.91
7667.7
6793.93
6529.46
6521.52
6194.68
6201.69
6158.74
6118.26
6217.44
6174.68
6287.41
6349.78
6338
6512.53
6547.45
6588.24
6798.84
6813.59
6902.25
7122.04
7121.38
7271.41
7385.03
7472.83
7610.51
7696.93
7683.37
7768.28
7839.73
7816.6
7927.18
7989.88
7940.05
8020.3
8074.32
7993.47
8019.22
8062.3
7936.68
7936.22
7980.05
7875.18
7880.64
7932.25
7856.43
7845.89
7905.8
7848.28
7806.21
7844.02
7834.61
7753.37
7801.17
7807.39
7689.35
7744.87
7764.13
7632.01
7674.14
7705.83
7606.05
7587.05
7634.08
7569.17
7478.21
7499.92
9461.63
9372.61
8968.9
8247
8101.3
6926.08
6807.82
6023.72
5736.28
5731.01
5526.52
5478.15
5515.62
5517.16
5529.85
5600.46
5677.58
5708.33
5774.03
5896.03
5945.22
6052.77
6172.87
6237.56
6364.64
6482.46
6558.58
6694.42
6721.24
6884.15
6976.48
6997.7
7087.34
7128.77
7153.26
7226.76
7277.09
7303.27
7352.59
7380.52
7404.26
7426.06
7408.29
7422.74
7398.5
7355.78
7365.25
7352.39
7318.98
7327
7334.96
7299.95
7303.22
7316.92
7277.15
7246.63
7286.12
7243.43
7208.41
7240.54
7190.26
7159.82
7182.34
7124.18
7102.55
7114.48
7097.8
7038.87
7037.79
7031.19
6968.01
6916.16
9550.77
9443.57
8988.95
8216.84
8038.32
6874
6767.96
5969.37
5660.6
5645.54
5432.84
5418.4
5411.07
5415.52
5471.06
5495.97
5590.34
5635.73
5691.63
5821.19
5857.49
5947.5
6103.69
6133.37
6247.31
6413.84
6438.5
6572.36
6645.21
6745.79
6849.03
6906.74
6940.13
7001.5
7051.83
7075.78
7144.56
7190.35
7196.52
7243.91
7284.16
7266.98
7270.41
7300.47
7237.06
7214.63
7242.63
7188.83
7175.37
7206.97
7170.21
7150.19
7184.11
7154.72
7118.77
7125.86
7130.96
7076.85
7083.12
7094.94
7026.56
7028.89
7046
6974.43
6963.69
6985.23
6925.4
6887.89
6914.14
6870.75
6801.26
6790.51
10508.9
10281.2
9311.16
8414.8
8154.47
6945.68
6792.31
5854.68
5393.49
5342.82
5082.71
5003.76
5027.04
5028.84
5031.74
5108.47
5175.92
5197.98
5296.18
5386.78
5429.53
5547.97
5645.68
5707.77
5834.02
5927.91
6005.91
6124.4
6133.27
6288.14
6362.37
6369.78
6474.68
6507.69
6519.9
6611.74
6643.96
6659.47
6736.93
6754.01
6768.87
6827.36
6807.96
6813.87
6825.79
6780.11
6780.03
6792.51
6756.67
6753.17
6777.28
6742.55
6731.92
6755.77
6720.73
6677.11
6719.32
6687.38
6636.97
6668.27
6639.56
6587.75
6605.92
6584.91
6531.99
6535.23
6535.59
6472.29
6457.74
6460.59
6408.37
6343.24
10755
10499.4
9421.06
8508.2
8264.43
7051.19
6867.06
5839.99
5393.19
5332.28
5028.75
4972.02
4966.89
4967.18
4994.42
5028.86
5115.55
5146.37
5212.86
5330.43
5364.24
5464.29
5590.46
5627.31
5744.77
5870.86
5909.64
6029.05
6071.3
6175.32
6261.83
6296.06
6352.28
6406.01
6437.83
6483.49
6538.41
6569.09
6603.95
6646.12
6674.15
6694.34
6702.84
6721.01
6695.28
6672.62
6686.68
6664.62
6648.6
6662.76
6651.55
6630.57
6642.47
6633.14
6602.8
6585.81
6601.98
6563.41
6541.68
6557.64
6512.8
6487.56
6501.76
6453.92
6425.21
6436.39
6401.28
6356.4
6363
6336.98
6281.72
6245.96
12648.6
12256
10588.9
9596.32
9181.86
7904.5
7732.33
6451.1
5738.46
5591.85
5089.88
4900.29
4866.7
4805.83
4802.71
4835.22
4877.24
4890.37
4988.95
5052.03
5085.43
5204.38
5275.32
5330.62
5449.53
5517.98
5594.36
5694.7
5688.67
5839.1
5895.91
5892.27
6012.24
6032.06
6034.59
6146.35
6160.15
6167.37
6272.6
6277.57
6285.65
6379.16
6356.39
6357.3
6405.17
6356.81
6350.23
6385.68
6347.04
6335.65
6372.77
6337.01
6316.95
6346.9
6314.69
6262.62
6304
6280.86
6218.7
6246.92
6237.34
6166.46
6179.54
6183.28
6109
6104.88
6118.77
6049.3
6024.73
6032.89
5988.84
5913.71
13020.3
12596.1
10876.4
9767.4
9456.66
8132.49
7874.11
6622.29
5822.65
5667.18
5079.85
4906.27
4856.99
4781.44
4792.86
4777.1
4845.78
4864.34
4885.28
5019.36
5045.91
5127.5
5241.29
5275.34
5379.68
5481.92
5520.9
5625.27
5651.31
5746.35
5826.35
5847.38
5906.21
5964.21
5984.81
6031.74
6092.14
6113.49
6153.85
6209.87
6230.4
6264.02
6292.4
6304.6
6299.57
6292.82
6299.66
6289.73
6283.54
6288.87
6285.38
6270.15
6271.72
6267.55
6241.5
6216.21
6232.67
6197.92
6169.14
6183.16
6138.6
6112.62
6122.25
6057
6049.1
6053.21
6022.1
5980.68
5977.23
5955.78
5906.21
5863.2
13474.3
13010.6
11334.7
9961.59
9752.62
8417.23
8071.43
6900.82
5949.72
5789.43
5220.46
4928.29
4890.45
4794.06
4795.29
4777.6
4828.42
4847.86
4899.06
4995.47
5016.93
5098.86
5214.97
5234.94
5333.84
5453.89
5469.99
5570.17
5617.96
5687.15
5767.51
5807.55
5844.3
5905.69
5940.85
5969.37
6033.39
6066.35
6091.06
6151.76
6182.73
6201.69
6241.87
6263.25
6240.9
6241.02
6259.16
6231.22
6231.6
6251.33
6226.19
6215.86
6236.54
6208.37
6183.22
6181.34
6175.54
6135.91
6130.91
6130.43
6078.68
6069.86
6075.18
6015.8
6000.1
6011.22
5956.06
5922.95
5939.72
5892.48
5839.23
5823.39
16542.4
15891.4
13337.3
11814.8
11342.8
9852.6
9568.87
8095.24
6950.54
6702.44
5822.26
5385.18
5230.39
4974.5
4966.19
4824.97
4824.67
4828.81
4833.7
4904.3
4916.68
4972.81
5059.66
5082.14
5163.89
5243.38
5274.31
5357.64
5373.97
5457.03
5524.96
5538.01
5598.94
5650.94
5664.39
5718.52
5772.28
5787.46
5841.02
5895.23
5911.01
5964.18
6002.58
6012.77
6032.18
6033.34
6036.2
6039.5
6037.96
6038.54
6041.02
6028.06
6024.46
6021.13
5996.29
5967.84
5980.68
5947.43
5915.23
5924.95
5885.41
5853.37
5858.22
5818.36
5785.27
5783.59
5755.18
5712.82
5703.08
5682.07
5634.84
5588.46
17202.3
16540
13773.7
12125.7
11740
10189.3
9854.52
8366.47
7178.99
6940.6
5975.35
5483.73
5341.65
5048.76
5020.02
4850.84
4849.5
4847.78
4828.01
4906.48
4914.97
4959.58
5048.62
5063.49
5140.23
5223.01
5240.53
5322.19
5347.7
5411.21
5481.83
5503.28
5546.48
5603.79
5623.79
5661.94
5721.7
5742.12
5781.7
5842.87
5863.7
5904.38
5955.7
5970.81
5978.7
5987.66
5995.59
5989.25
5994.79
6001.6
5992.53
5984.19
5988.55
5972.47
5949.87
5930.7
5931.76
5898.21
5874.98
5876.79
5834.34
5809.45
5811.44
5763.92
5736.99
5738.39
5696.77
5659.62
5659.32
5624.18
5577.39
5542.34
21620.9
20647.4
16758.1
14681.9
13892.5
12104.3
11868.2
10003.3
8734.06
8389.29
7133.13
6497.86
6192.37
5705.15
5686.72
5295.29
5194.45
5175.1
5059.13
5081.28
5061.27
5052.63
5110.9
5102.17
5145.03
5198.1
5203.41
5256.55
5267.11
5323.35
5373
5379.65
5432.52
5469.87
5476.62
5532.59
5572.38
5581.34
5644.86
5688.59
5699.47
5769.33
5811.66
5819.12
5864.89
5872.46
5873.25
5892.69
5893.82
5891.42
5900.37
5887.16
5879.61
5875.27
5850.18
5817.3
5825.34
5795.02
5755.37
5759.98
5729.03
5684.56
5684.17
5656.17
5608.41
5601.25
5578.43
5529.38
5513.46
5492.44
5448.08
5393.81
22490.4
21466.3
17439.1
15081.1
14438.9
12525.7
12163.4
10493.7
9024.97
8696.49
7421.41
6665.21
6427.53
5865.13
5788.95
5408.06
5275.57
5244.17
5088.32
5122.62
5102.86
5062.96
5129
5120.06
5147.12
5201
5198.49
5246.81
5264.47
5298.98
5356.2
5369.38
5395.11
5448.5
5460.65
5486.27
5547.73
5561.27
5593.94
5661.97
5677.18
5718.67
5786.82
5800.13
5824.1
5851.75
5856.63
5860.43
5875.76
5877.85
5873.16
5867.97
5866.28
5850.4
5827.31
5803.25
5801.74
5766.22
5739.21
5737.6
5690.84
5665.65
5663.05
5609.34
5585.91
5581.31
5538.95
5502
5494.3
5459.83
5412.89
5372.85
23421.1
22355.6
18316.4
15500.5
14981.9
12978.6
12534.1
10885.2
9354.72
9034.08
7767.33
6850.92
6671.76
6075.39
5927.1
5577.35
5397.48
5342.48
5224.97
5190.69
5171.25
5146.7
5166.81
5165.83
5193.61
5219.7
5224.84
5266.59
5274.47
5311.38
5361.41
5370.99
5399.88
5444.42
5455.64
5485.31
5537.77
5551.5
5588.74
5648.41
5664.54
5709.94
5774.58
5789.73
5817.64
5843.65
5849.47
5855.72
5870.32
5873.58
5868.68
5863.44
5863.46
5844.15
5821.46
5799.33
5793.08
5759.11
5732.99
5727.3
5685.04
5656.77
5652.08
5604.95
5573.84
5570.37
5524.37
5486.45
5483.91
5441.48
5394.98
5360.56
28521.4
27307.9
22705
19317.1
18255
15688.2
15273.9
13148.7
11496.3
11076.3
9548.88
8524.8
8140.32
7322.85
7223.37
6605
6287.02
6212.58
5937.34
5834.71
5762.82
5635.2
5626.98
5565.8
5517.79
5520.98
5469.73
5457.36
5470.46
5446.37
5468.05
5475.75
5465.63
5489.23
5494.91
5500.56
5541.07
5548.82
5573.99
5625.45
5636
5677.51
5744.41
5760.82
5798.54
5835.03
5840.37
5854.88
5875.43
5877.89
5875.12
5869.75
5867.95
5844.93
5819.1
5793.97
5783.74
5746.52
5716.23
5707.32
5662.76
5629.41
5621.28
5573.19
5537.11
5528.77
5483.97
5441.68
5431.83
5391.44
5343.24
5300.31
29432.4
28229.8
23461.4
19923.1
18906
16175.2
15706.5
13550.1
11875.7
11476.7
9855.51
8783.29
8451.02
7564.53
7419.06
6803.54
6466.33
6374.75
6002.53
5961.2
5893.01
5712.82
5713.71
5662.51
5589.01
5575.52
5529.85
5508.04
5511.59
5476.64
5502.97
5504
5476.39
5509.97
5511.59
5497.8
5551.88
5557.15
5564.17
5629.35
5638.37
5664.82
5741.99
5760.06
5793.77
5840.12
5844.32
5855.7
5883.58
5883.69
5879.66
5877.64
5872.81
5849.65
5824.12
5797.55
5786.74
5747.25
5718.22
5708.12
5656.75
5629.54
5619.92
5554.31
5535
5525.72
5474.88
5436.77
5427.26
5383.18
5334.23
5294.37
30202.1
29072.3
24703.4
20539.7
19858.4
16957.3
16292.5
14235.6
12341.8
11958.8
10467.7
9074.18
8877.51
7965.81
7678.2
7165.5
6720.08
6579.46
6370.45
6134.96
6077.18
5986.25
5835.57
5827.02
5772.71
5656.64
5665.8
5628.56
5579
5586.28
5583.95
5555.42
5563.7
5562.4
5547.92
5563.2
5586.47
5582.29
5614.36
5652.29
5654.88
5700.17
5758.34
5772.12
5820.74
5859.85
5858.39
5886.27
5907.1
5900.05
5909.49
5903.33
5889.36
5874.96
5848.86
5810.8
5806.12
5771.08
5729.74
5722.1
5681.51
5639.46
5629.77
5585.14
5543.44
5532.32
5487.89
5443.93
5431.7
5388.76
5341.04
5296.33
32093.2
31585.2
29069.4
25278
24157.7
20703.1
19976.2
17254.2
15159.2
14676
12865.5
11452.4
10997.9
9825.21
9610.61
8756.18
8182.03
8055.9
7617.84
7371.32
7264.45
7025.18
6885.47
6778.02
6601.14
6499.69
6392.05
6268.53
6255.23
6126.59
6068.78
6055.41
5951.85
5912.12
5900.08
5829.12
5835.57
5830.92
5801.41
5825.53
5825.7
5824.81
5880.82
5901.39
5937.26
5984.23
5988.16
6006.41
6037.34
6039.3
6034.95
6028.8
6024.59
5990.11
5957.6
5929.06
5906.8
5861.68
5828.47
5809.03
5755.71
5719.64
5703.54
5645.79
5606.12
5593.13
5536.19
5490.35
5479.59
5426.23
5372.92
5330.21
32063.7
31858.6
29696.8
26010.3
24976.3
21406.7
20683.9
17777.2
15703.2
15240.8
13310.7
11862.6
11454.1
10212.3
9973.01
9069.43
8494.76
8351.35
7851.71
7619.21
7520.52
7243.52
7086.99
6998.93
6800.04
6662.92
6572.92
6440.94
6401.81
6271.67
6211.71
6179.16
6060.34
6024.71
5998.83
5906.47
5923.15
5908.61
5860.6
5891.59
5884.3
5868.03
5930.85
5937.62
5968.62
6030.75
6030.39
6048.35
6086.87
6082.39
6079.31
6077.57
6065.86
6033.83
6001.42
5966.09
5946.97
5899.29
5862.65
5844.65
5786.01
5751.07
5734.01
5669.86
5634.68
5618.41
5559.06
5515.52
5500.09
5447.64
5393.43
5347.96
28983.5
29702.6
30182.5
28858.4
28159.3
25490.4
24892.4
21707.3
19367.9
18730.3
16426.6
14878.6
14208.1
12782.7
12639.3
11320.8
10616
10454.3
9734.62
9465.23
9270.31
8848.88
8713.81
8481.79
8194.8
8110.37
7857.41
7669.17
7702.3
7363.51
7240.79
7236.85
6948.4
6854.32
6835.58
6614.86
6577.16
6560.42
6404.47
6382.53
6367.72
6261.19
6288.63
6298.02
6289.83
6339.66
6343.34
6325.94
6371.72
6384.48
6346.15
6343.5
6352.99
6278.23
6239.96
6221.12
6168.41
6110.86
6085.9
6046.09
5974.96
5944.98
5918.64
5838.16
5801.42
5787.92
5704.77
5658.05
5655.4
5575.8
5516.18
5477.88
27930.2
28845.5
30948.1
29438.2
29233.2
26498.7
25569
22809.1
20094.9
19464.2
17174.1
15415.4
14893.5
13357.6
13048.1
11912
11052
10855.5
10213
9802.84
9648.32
9247.48
8984.51
8838.21
8536.2
8336.24
8198.02
7965.95
7906.57
7672.25
7480.46
7420.76
7198.11
7043.8
6993.48
6804.09
6726.2
6690.73
6548.55
6495.39
6467.55
6359.57
6371.86
6368.54
6368.12
6406.49
6407.23
6409.42
6442.11
6440.6
6426.64
6411.28
6401.98
6351
6304.07
6265.7
6231.29
6170.63
6128.57
6098.65
6030.12
5986.05
5961.28
5889.03
5841.08
5821.56
5751.27
5696.18
5681.25
5614.94
5551.78
5503.53
27028.5
28082.3
30154.7
29498
29330.7
26947.9
26141.5
23394.4
20718.7
20104.2
17762.8
15901.3
15424.6
13858
13506.7
12337
11475.6
11249.3
10582.9
10150.5
9999.38
9578.46
9265.39
9144.77
8834.31
8568.07
8467.72
8232.16
8126.59
7911.75
7717.55
7621.32
7412.66
7255.39
7174.01
7000.17
6906.07
6846.27
6710.78
6640.58
6593.21
6487.98
6483.86
6464.27
6461.71
6496.03
6485.66
6490.99
6526.65
6511.02
6505.62
6492.36
6465.86
6424.39
6378.49
6321.8
6298.41
6238.12
6182.55
6158.75
6090.43
6038.35
6013.68
5942.3
5891.69
5865.94
5799.07
5744.53
5718.08
5658.81
5596.42
5537.58
21072.1
21929
25297.8
27089.7
27854.4
28160
27970.3
26779.6
24757.2
24059.6
21742.6
19795.3
19081.4
17318.8
17013.5
15485.5
14467.9
14226
13345.8
12840.9
12591.7
12022.4
11692
11420
10993.9
10752.4
10472.7
10146.7
10116.7
9671.64
9403.63
9355.46
8965.93
8746.27
8688.77
8359.61
8190.81
8126.68
7845.2
7692.02
7631.04
7392.36
7305.04
7276.57
7158.39
7141.16
7122.5
7042.09
7059.61
7062.54
7000.39
6972.86
6972.51
6871.43
6809.06
6770.08
6702.11
6624
6579.16
6525.88
6438.1
6388.77
6351.37
6255.82
6200.75
6179.17
6080.23
6017.82
6010.25
5912.69
5840.38
5791.63
19629.3
20564.1
23842
26363.7
27513.5
28638.5
28214.8
28211.4
25505.6
24845.2
22575.6
20462.6
19857.5
17955.1
17540
16133.4
15012.3
14752.5
13890.5
13308.3
13102
12493.4
12084.2
11887.5
11408.3
11082
10892
10513.2
10414
10044.8
9731
9635.64
9305.95
9042.34
8951.71
8669.61
8448.16
8361.48
8096.57
7906.93
7828.99
7575.18
7475.58
7432.17
7288.87
7266.39
7240.32
7162.9
7173.52
7159.22
7116.56
7078.22
7056.05
6979.85
6906.25
6844.12
6799.53
6711.99
6650.08
6610.84
6516.21
6457.15
6423.17
6326.66
6266.77
6237.9
6150.94
6081
6056.85
5977.48
5898.81
5837.32
18920.8
19825.2
22946
25616.2
26571.5
27842.6
27928.4
27657.1
25894.7
25325.7
23195
21006.8
20493.3
18630.6
18131
16740.1
15604.1
15293.9
14491.6
13818.1
13612.5
13056.8
12515.4
12365
11915.7
11440.4
11332.7
10959.5
10758.2
10445.8
10114.6
9946.69
9660.83
9371.97
9231.9
8982.78
8737.39
8612.92
8387.76
8168.39
8054.75
7859.08
7705.14
7624.02
7512.52
7438.08
7377.5
7330.17
7319.34
7277.22
7257.27
7213.96
7158.64
7103.74
7031.38
6931.2
6909.02
6827.97
6734.14
6706.77
6624.24
6539.35
6506.1
6425.29
6347.64
6308.09
6234.31
6160.36
6115.22
6050.35
5975.59
5891.4
14349.8
14794.7
17043.2
19830.4
20741.2
23577.3
24309.7
26231.8
26724.6
26696
26140.9
24660.2
24093.1
22426.5
21938.3
20478.6
19256.8
18937.2
18017.7
17270.8
16996.7
16314
15752.9
15473
14888.2
14427.7
14143.4
13629.6
13500.2
12943.5
12478.7
12350.3
11856.6
11458.4
11336.8
10915.7
10579
10468.4
10103.8
9812
9710.84
9386.35
9126.32
9032.97
8757.13
8573.82
8503.77
8291.56
8211.92
8181.76
8065.47
7980.21
7955.6
7817.19
7707.73
7621.91
7544.1
7429.08
7341
7277.32
7162.97
7074.35
7025.55
6911.29
6821.64
6787.39
6673.59
6583.43
6561.85
6449.57
6357.47
6284.19
13661.1
14070.8
15887.9
18657.2
19464.5
22574.2
23458
26159.1
26678.7
26850.4
26852.1
25159.3
24763
23022.5
22474.7
21107
19847.7
19528.9
18579.9
17828.7
17586.4
16840.6
16261.2
16033.7
15387.9
14876.3
14651.5
14096.1
13917
13387
12898.3
12735.2
12231.9
11829.2
11684.7
11235.7
10910.4
10782.8
10392.8
10116
9999.65
9660.79
9400.81
9288.64
8970.98
8786.64
8696.01
8456.05
8383
8336.4
8217.93
8135.01
8086.72
7962.35
7843.21
7733.05
7678.12
7545.75
7446.21
7397.46
7260.64
7174.75
7129.83
6996.67
6917.54
6874.87
6762.37
6673.31
6632.67
6537.64
6437.12
6351.96
13168.2
13555.2
15261.4
17898.7
18492.8
21179.6
22284.2
24300.1
25801.2
26043.3
26186.3
25267
24942.3
23568.5
22987.7
21810.4
20577.8
20190
19478.2
18508.9
18300
17732.5
16860.3
16778.3
16229.3
15386.6
15398.4
14846.7
14443.1
14111.1
13551.4
13223.2
12911.1
12392.4
12126.6
11859.7
11397.9
11177.7
10953.4
10545
10352.2
10164.3
9785.32
9603.39
9419.11
9115.33
8950.76
8836.09
8669.17
8543.14
8517.56
8392.44
8256.42
8207.74
8081.16
7866.16
7878.33
7768.82
7574.18
7560.21
7471.36
7301.37
7261.91
7189.69
7046.34
6982.08
6921.75
6806.65
6719.64
6665.03
6575.8
6430.54
10512.1
10717.5
11546.7
13116.7
13470.6
15615.9
16446.8
18697.3
21462.5
22168
24354.1
24839.1
25188.7
25085.7
24621.6
24298.4
23273.9
22981.3
22594.1
21612.1
21389.5
20875.3
20073.5
19887.5
19272
18562.7
18377.3
17698.8
17422
16867
16163.5
15927.7
15396.8
14754
14557.5
14081.7
13524.9
13358.2
12934.4
12461.5
12317.3
11948.6
11512.5
11369.7
10985.9
10629.2
10521.3
10186.2
9939.91
9853.02
9651.87
9460.3
9389.97
9195.25
8999.81
8833.94
8749.36
8563.02
8408.58
8336.47
8167.17
8024.18
7963.61
7812.36
7677.24
7626.39
7490
7360.65
7316.81
7190.56
7065.86
6957.47
10152.4
10348
11188.4
12528.6
12915.1
14836
15584.1
17882.6
20374.5
21207.4
23214.6
24243.9
24608.2
24635.1
24494.1
24068.8
23365.9
23153.4
22621.6
21934.8
21731.5
21150.4
20485.7
20308.4
19679.5
18987.3
18816.2
18157.5
17877.9
17293.8
16631
16376.4
15807.4
15208.8
14985.7
14475.8
13954.1
13758.1
13305.4
12854.6
12682.2
12289.7
11876.6
11708.6
11336
10969.3
10804.3
10490.3
10242.5
10116.9
9924.97
9731.24
9613.72
9438.61
9241.73
9017.23
8964.59
8775.82
8580.15
8524.92
8352.57
8186.51
8126.73
7973.83
7832.05
7765.78
7635.69
7507.18
7434.02
7324.78
7200.58
7065.09
8131.81
8264.92
8763.65
9476.44
9717.61
10804.4
11168.1
12706.7
14710.3
15318.6
17463.9
19339.6
20003.5
21362.6
21611.7
22325.3
22562.8
22616.4
22783.8
22620.3
22595.8
22453
22057.5
21954.9
21543.1
21002.4
20829.9
20244.1
20029.6
19438.2
18777.7
18570.5
17966.9
17333.8
17143.1
16579.8
15994.8
15814.8
15287.9
14753.9
14590.7
14120.7
13650.9
13511.1
13104.1
12652.8
12539.8
12132.5
11784.5
11674.3
11365.2
11087.9
11005
10711.5
10447.5
10224.6
10090.9
9843.95
9634.22
9524.14
9299.96
9106.86
9022.22
8817.5
8641.78
8581.42
8390.26
8227.29
8186.35
8003.94
7849.52
7721.7
7839
7959.08
8411.81
9049.73
9234.73
10201.5
10583.8
11834.7
13731.8
14306.2
16373.2
18312.6
19051.4
20615.1
20948.7
21967.9
22216.5
22313
22799.5
22546.9
22593.9
22643.7
22162.8
22152.7
21794
21210.8
21139.7
20530.4
20271.9
19799.9
19096.9
18867.6
18348
17671
17468.7
16961.8
16333.5
16146.8
15654.2
15080
14910.5
14463.4
13976.7
13844.9
13437.1
12960.9
12820
12433.4
12067.1
11941.7
11652.7
11354.1
11238.6
10975.9
10690.3
10431.1
10332.9
10059.4
9830.2
9742.03
9486.25
9292.19
9213.34
8982.31
8816.26
8744.55
8550.52
8388.54
8321.65
8160.03
7992.08
7848.64
6192.9
6291.52
6659.08
7016.49
7203.84
7754.51
7869.6
8750.09
9785.91
10115.7
11613.7
13072.8
13728
15318
15575.7
17091
17989.1
18280.6
19223.5
19685.7
19970
20459.8
20585.2
20788.2
20860.4
20698.5
20767.7
20512.9
20423.2
20122.4
19691.5
19581.1
19127.8
18626.8
18503.3
17986.8
17471.2
17340.1
16800
16295.8
16169.6
15653.8
15201.6
15099.7
14621.4
14219.8
14130.2
13680.5
13319.3
13242.4
12844.6
12540.3
12493.3
12117.6
11823.7
11602.4
11429.5
11138.3
10926.8
10784
10496.2
10297.2
10193.7
9912.95
9727.06
9666.37
9394.66
9212.17
9191.13
8931.13
8741.27
8612.35
5870.94
5966.36
6235.06
6645.33
6742.99
7237.4
7443.89
7929.14
9006.17
9295.68
10334.3
11980.4
12384.8
13992
14569.5
15759.5
16996.7
17357.8
18386.6
19015.6
19281.2
20022
20193.8
20398.4
20682.8
20538.8
20668.6
20499.5
20349.3
20246
19804.4
19641.2
19400.8
18816.8
18651.2
18328
17698.8
17535.8
17160.3
16536
16377.1
15980
15424.6
15285.7
14944.8
14453.8
14320.2
14003.4
13566.1
13438.5
13156.7
12794.9
12673.6
12407.3
12085.4
11786
11694.6
11408
11111.4
11019
10768.6
10481.9
10393.4
10182.7
9911.64
9829.94
9624.17
9396.52
9320.28
9127.87
8924.13
8741.94
5636.53
5734.6
6013.05
6408.21
6493.88
6943.32
7140.76
7709.42
8596.79
8871.96
9937.43
11395.5
11748.4
13153.8
13760
14892.6
16079.2
16510.1
17343.6
18224.4
18485.3
19049.2
19606
19707.3
19947.2
20148.6
20121
20046
20085.4
19863.6
19580
19525.1
19168.1
18750.7
18642.3
18213.9
17729.6
17597.7
17141.1
16629.6
16488.1
16038.9
15566.3
15436.5
15039.1
14613.8
14480
14133.2
13743.4
13603.5