/*--------------------------------*- C++ -*----------------------------------*\
| =========                 |                                                 |
| \\      /  F ield         | OpenFOAM: The Open Source CFD Toolbox           |
|  \\    /   O peration     | Version:  v2012                                 |
|   \\  /    A nd           | Website:  www.openfoam.com                      |
|    \\/     M anipulation  |                                                 |
\*---------------------------------------------------------------------------*/
FoamFile
{
    version     2.0;
    format      ascii;
    class       volScalarField;
    location    "1e-06";
    object      p;
}
// * * * * * * * * * * * * * * * * * * * * * * * * * * * * * * * * * * * * * //

dimensions      [1 -1 -2 0 0 0 0];


internalField   nonuniform List<scalar> 
10248
(
2024.06
2022.49
1954.65
2000.02
1954.12
2000.9
2000.54
2001.53
2001.04
2001.47
2001.22
2001.88
2001.36
2001.12
2002.3
2001.46
2001.16
2001.14
3320.19
2001.43
2000.74
2000.59
2000.89
2000.35
2000.48
2001.53
2000.57
2001.04
2001.17
1989.06
1899.88
1970.89
1994.04
1996.66
1952.77
2006.41
2000.4
2000.62
1998.09
1961.49
1987.94
2595.26
79988.4
126764
169209
205949
237454
261413
275188
283083
286420
286690
285133
282766
279591
276660
273035
268942
266051
262748
258955
256784
254100
250832
249302
247241
244408
243448
241890
239646
238145
237812
2018.43
2011.43
1944.34
1858.25
1812.82
1768.4
1659.52
1744.81
1737.63
1773.76
1764.27
1562.15
1639.75
1549.23
1457.31
1653.45
1592.16
1553.68
1790.91
1595.09
1605.8
1686.88
1582.34
1672.14
1736.59
1614.11
1711.75
1745.92
1621.06
1737.59
1731.14
1791.5
1897.98
1880.32
1833.39
1916.74
1916.58
1915.04
1956.6
1933.15
1954.13
2477.06
80023.2
126786
169216
205954
237469
261428
275208
283088
286422
286696
285145
282763
279604
276657
273034
268941
266051
262747
258952
256782
254115
250827
249296
247239
244405
243447
241887
239641
238141
237808
2011.12
2003.13
1961.99
1899.07
1849.26
1809.78
1684.19
1775.99
1764.05
1804.15
1800.12
1599.59
1655.2
1756.07
1489.76
1667.08
1606.07
1562.37
1788.52
1598.14
1613.37
1704.39
1623.23
1689.27
1765.47
1630.05
1718.85
1752.51
1641.64
1731.9
1760.4
1820.76
1914.1
1893.81
1838.06
1894.84
1891.04
1892.82
1948.05
1935.97
1961.44
2165.15
80032.1
126723
169217
205972
237499
261447
275228
283095
286432
286705
285163
282780
279603
276657
273049
268940
266051
262747
258952
256782
254112
250827
249316
247252
244403
243445
241887
239640
238139
237807
2005.53
2002.67
1962.69
1906.02
1860.88
1822.45
1700.58
1802.43
1783.05
1835.64
1848.17
1639.31
1676.41
1758.9
1534.9
1686.7
1631.55
1615.44
1781.94
1632.06
1641.2
1726.4
1660.79
1709.62
1786.24
1683.99
1728.08
1748.13
1661.64
1726.68
1774.7
1837.12
1918.71
1884.42
1831.33
1855.7
1844.51
1858.2
1926.1
1914.44
1953.49
2010.89
80050.8
126748
169221
205998
237548
261503
275257
283108
286453
286721
285186
282797
279617
276655
273049
268939
266050
262746
258951
256780
254128
250826
249310
247260
244400
243443
241885
239639
238136
237806
2007.32
2003.84
1951.16
1880
1841.09
1818.88
1695.79
1820.77
1775.35
1824.07
1870.81
1661.77
1683.94
1746.2
1554.76
1691.8
1643.04
1634.51
1757.19
1640.6
1648.32
1731.72
1674.04
1710.22
1785.12
1690.45
1708.89
1704.99
1644.18
1719.53
1758.9
1815.3
1890.82
1848.56
1798.57
1813.34
1794.73
1806.22
1896.74
1883.11
1931.67
2006.19
80015.5
126749
169222
206052
237615
261562
275278
283136
286481
286744
285213
282815
279631
276655
273048
268936
266049
262744
258948
256779
254126
250823
249308
247274
244396
243442
241885
239637
238133
237806
2001.1
2000.7
1970.19
1911.76
1865.07
1851.18
1726.18
1848.11
1783.66
1823.99
1890.65
1690.07
1698.16
1740.42
1587.12
1700.42
1649.96
1642.08
1741.01
1650.92
1652.77
1731.98
1689.87
1717.9
1785.93
1710.95
1714.19
1705.59
1664.24
1739.36
1785.61
1834.63
1900.88
1864.81
1829.62
1808.09
1828.84
1840.85
1897.4
1891.41
1946.04
2007.22
80069.5
126462
169235
206128
237704
261615
275337
283182
286522
286773
285246
282837
279632
276654
273048
268931
266046
262743
258941
256774
254123
250817
249303
247272
244390
243438
241883
239631
238127
237803
1998.83
2000.43
1974.44
1913.32
1870.07
1865.14
1743.75
1862.46
1777.64
1814.86
1897.54
1700.84
1701.5
1727.14
1603.76
1699.37
1648.31
1646.44
1723.45
1645.2
1650.12
1723.91
1690.58
1716.01
1775.71
1708.28
1707.45
1691.69
1665.5
1742.56
1794.56
1838.95
1903.04
1859.58
1834.52
1811.69
1841.79
1856.16
1902.96
1902.37
1963.2
2008.81
80121.1
126035
169242
206204
237812
261725
275411
283246
286576
286811
285285
282864
279649
276653
273048
268927
266044
262740
258936
256770
254121
250811
249297
247277
244384
243436
241882
239627
238122
237801
2000.13
2000.41
1987.31
1920.3
1879.65
1887.29
1764.95
1880.14
1777.9
1800.97
1898.23
1709.09
1701.1
1713.65
1613.08
1694.14
1644.45
1643.9
1705.7
1636.84
1642.84
1713.72
1685.4
1707.73
1759.36
1697.53
1696.57
1678.29
1661.8
1740.39
1792
1825.77
1887.43
1830.11
1816.31
1816.86
1841.49
1854.46
1904.91
1904.78
1969.81
2292.04
80188.7
125598
169247
206295
237963
261845
275517
283332
286643
286858
285332
282896
279668
276662
273047
268921
266041
262738
258929
256766
254118
250804
249291
247276
244377
243433
241880
239623
238116
237799
1995.52
2000.41
1993.38
1927.36
1899.95
1909.68
1793.07
1895.67
1778.21
1792.94
1896.11
1712.87
1700.37
1703.04
1621.4
1688.98
1638.93
1640.03
1694.35
1628.9
1637.48
1704.73
1677.5
1699.84
1743.4
1682.79
1685.35
1665.51
1654.31
1733.97
1783.39
1809.37
1872.33
1814
1805.91
1821.3
1834.09
1847.69
1907.35
1901.68
1977.86
13794.8
80210.4
125091
169250
206460
238135
262013
275658
283446
286728
286916
285387
282933
279686
276673
273047
268915
266038
262735
258921
256761
254116
250796
249285
247275
244370
243429
241879
239617
238110
237796
2000.11
2000.18
1992.65
1926.25
1911.26
1926.61
1813.99
1908.44
1776.72
1774.71
1884.96
1704.65
1689.66
1687.33
1616.6
1675.09
1625.96
1624.03
1677.53
1612.53
1620.18
1689.19
1659.5
1680.25
1719.17
1655.61
1663.57
1643.16
1629.52
1713.54
1759.85
1773.27
1841.56
1785.84
1777.11
1811.54
1811.62
1821.2
1897.1
1884.73
1966.36
17255.6
80265.2
124562
169254
206589
238349
262232
275837
283587
286829
286985
285451
282976
279700
276682
273046
268907
266034
262732
258911
256754
254112
250788
249277
247274
244362
243425
241876
239612
238102
237794
2000.12
2000.29
2000.42
2000.01
1972.71
1976.49
1869.66
1937.33
1801.25
1781.9
1881.85
1717.59
1696.71
1691.58
1633.66
1677.85
1638.5
1634.32
1680
1631.69
1636.81
1698.57
1680.75
1696.16
1732.06
1684.55
1689.78
1683.21
1678.23
1749.18
1795.86
1804.68
1857.39
1827.24
1823.32
1852.99
1860.39
1869.03
1924.97
1920.42
2000.14
18656.1
80288.9
124004
169258
206809
238637
262515
276064
283762
286952
287065
285525
283023
279698
276681
273045
268896
266026
262724
258899
256746
254107
250778
249268
247271
244350
243416
241870
239604
238089
237785
1995.76
2000.28
2000.56
2000.48
2000.4
2000.38
1919.03
1961.11
1817.4
1788.73
1874.92
1723.83
1701.39
1692.74
1644.69
1678.58
1645.13
1641.41
1680.87
1643.45
1649.54
1706.4
1694.99
1708.66
1742.58
1706.29
1711.53
1715.19
1714.6
1778.73
1820.71
1827.77
1870.93
1855.04
1854.6
1881.26
1889.64
1897.83
1941.71
1939.72
2000.78
19921.2
79941.4
123411
169272
207032
238991
262860
276342
283974
287098
287161
285611
283078
279716
276687
273044
268886
266020
262718
258887
256736
254102
250768
249259
247268
244340
243409
241866
239596
238077
237780
2000.11
2000.41
2000.77
2000.67
2000.56
2000.66
1960.13
1980.82
1836.05
1795.96
1866.59
1731.81
1707.36
1697.7
1657.64
1681.6
1656.84
1651.69
1685.85
1661.17
1665.61
1717.37
1713.15
1723.63
1755.7
1730.41
1733.89
1744.81
1746.42
1802.1
1839.43
1844.34
1880.43
1871.65
1872.44
1897.11
1903.41
1910.75
1949.15
1946.99
2001.53
21333.5
79455.9
122830
169302
207295
239424
263281
276679
284227
287270
287272
285710
283141
279740
276706
273044
268876
266013
262712
258874
256727
254097
250757
249250
247265
244329
243402
241862
239587
238065
237774
1996
2000.41
2000.92
2000.87
2000.83
2000.82
2000.13
2000.18
1854.06
1810.68
1861.66
1742.12
1718.26
1705.85
1674.14
1689.08
1670.8
1667.78
1694.42
1679.58
1685.61
1731.18
1731.09
1741.22
1771.09
1753.34
1757.28
1772.71
1775.89
1825.45
1855.88
1860.2
1891.58
1885.65
1887.71
1910.87
1915.66
1922.72
1955.73
1953.89
2001.94
22501.1
78907.5
122242
169344
207638
239951
263787
277079
284525
287471
287401
285824
283211
279767
276722
273044
268864
266004
262703
258858
256716
254090
250744
249238
247260
244316
243392
241857
239578
238051
237767
2000.12
2000.51
2001.09
2001.01
2000.88
2000.9
2000.22
2000.15
1867.95
1821.67
1855.35
1752.55
1728.82
1715.75
1691.13
1697.82
1687.52
1685.19
1705
1701.24
1706.56
1746.6
1751.54
1759.61
1787.8
1777.18
1780.28
1797.7
1801.08
1844.27
1868.9
1871.95
1899.01
1894.35
1897.05
1918.88
1921.52
1928.72
1958.8
1956.66
2002.92
23723.9
78312.8
121648
169367
208068
240581
264388
277551
284874
287704
287550
285953
283288
279796
276743
273044
268851
265995
262693
258842
256703
254083
250729
249225
247255
244303
243381
241850
239568
238037
237759
2000
2000.56
2001.24
2001.18
2001.08
2000.99
2000.42
2000.28
1881.21
1837.64
1853.67
1765.83
1743.65
1729.05
1712.56
1711.86
1708.48
1709.54
1722.17
1727.93
1734.56
1768.17
1777.82
1784.92
1810.84
1806.17
1808.85
1826.93
1831.43
1866.97
1885.33
1888.28
1909.71
1906.6
1910.2
1929.19
1930.97
1938.29
1964.02
1962.5
2003.32
24839.5
77660.7
121042
169402
208597
241329
265098
278105
285280
287971
287721
286100
283372
279829
276763
273044
268837
265984
262683
258824
256689
254073
250712
249210
247246
244288
243369
241842
239556
238020
237749
2000.17
2000.62
2001.36
2001.25
2001.1
2001.01
2000.36
2000.16
1890.33
1848.52
1850.52
1778.67
1757.03
1743.16
1733.94
1726.9
1733.6
1736.55
1742.56
1763.74
1768.67
1795.7
1816.12
1818.37
1841.72
1847.26
1843.41
1859.94
1867.19
1891
1904.85
1909.04
1922.17
1921.33
1926.44
1939.64
1942.02
1950.09
1970.19
1970.44
2004.52
25854.8
76946.4
120424
169465
209238
242210
265932
278748
285750
288278
287918
286266
283464
279865
276775
273043
268821
265970
262671
258804
256672
254061
250693
249193
247236
244272
243352
241831
239543
238001
237735
2000.45
2000.88
2001.28
2001
2000.95
2000.97
2000.44
2000.4
1903.02
1866.83
1855.52
1799.47
1778.16
1765.25
1766.06
1751.85
1769.4
1777.94
1775.72
1813.74
1818.7
1837
1873.42
1869.71
1889.97
1911.8
1897.22
1913.55
1930.22
1933.06
1945.18
1954.34
1950.69
1956.96
1964.77
1964.01
1971.83
1980.05
1987.42
1994.29
2006.53
26744.8
76149
119774
169566
210004
243238
266903
279494
286291
288625
288147
286456
283562
279907
276808
273042
268805
265957
262657
258784
256654
254049
250673
249176
247224
244254
243334
241820
239529
237981
237720
2000.05
2000.65
2001.49
2001.33
2001.23
2001.03
2000.45
2000.18
1892.77
1859.51
1841.7
1783.43
1769.01
1753.03
1749.97
1742.98
1753.66
1760.42
1769.99
1793.71
1800.91
1827.16
1845.18
1849.38
1871.88
1876.8
1876.09
1890.38
1895.13
1912.12
1919.61
1921.41
1931.18
1932.38
1934.97
1947.18
1949.49
1953.57
1971.9
1974.46
2004.38
27472.4
75226.4
119061
169655
210900
244420
268026
280347
286908
289021
288410
286674
283671
279960
276848
273083
268792
265948
262645
258762
256637
254035
250654
249159
247214
244240
243322
241814
239519
237967
237714
2000.1
2000.67
2001.48
2001.32
2001.22
2000.99
2000.43
2000.16
1886.81
1855.69
1834.11
1776.62
1766.34
1750.41
1744.34
1743.69
1752.47
1757.48
1777.44
1793.21
1801.12
1833.5
1842.44
1849.75
1873.33
1872.05
1877.28
1889.01
1887.46
1909.94
1913.44
1912.96
1927.76
1925.02
1926.79
1944.11
1941.59
1945.98
1967.4
1965.59
2003.75
28078.9
74208.4
118331
169780
211975
245806
269328
281326
287615
289472
288705
286912
283786
280013
276885
273083
268773
265930
262629
258738
256616
254020
250631
249137
247202
244221
243300
241801
239503
237946
237698
1988
2000.5
2001.5
2001.32
2001.22
2000.99
2000.43
2000.17
1886.16
1854.2
1829.73
1773.51
1766.43
1751.22
1744.07
1747.89
1758.12
1762.77
1788.62
1803.73
1812.19
1845.23
1852.98
1861.2
1883.95
1882.64
1888.46
1899.13
1897.28
1915.81
1918
1917.08
1929.4
1927.21
1928.31
1943.85
1941.57
1945.02
1964.82
1963.78
2003.31
28527.5
73031.6
117540
169945
213241
247409
270832
282447
288417
289977
289040
287177
283908
280073
276919
273082
268753
265909
262608
258711
256592
254002
250607
249110
247184
244201
243275
241786
239487
237922
237678
1983.29
2000.51
2001.49
2001.2
2001.15
2000.9
2000.42
2000.21
1891.56
1859.04
1833.24
1780.98
1775.42
1762.36
1755.55
1762.14
1775.11
1779.97
1806.09
1822.72
1831.18
1860.7
1867.86
1876.13
1894.56
1893.13
1899.41
1906.08
1904.46
1920.61
1919.6
1919.69
1931.15
1926.9
1929.79
1943.07
1938.53
1944.12
1962.56
1959.25
2002.37
28786.8
71619.6
116656
170145
214724
249258
272564
283722
289326
290548
289419
287467
284042
280140
276958
273082
268730
265887
262586
258681
256563
253980
250580
249080
247165
244179
243245
241768
239469
237895
237654
1941.13
1998.93
2001.25
2001.07
2001.04
2000.87
2000.42
2000.25
1906.49
1872.22
1845.73
1798.97
1793.29
1782.61
1778.28
1784.79
1799.57
1805.84
1829.41
1845.87
1854.6
1880.08
1886
1893.48
1908.97
1907.1
1912.48
1917.44
1916.05
1927.97
1925.2
1924.81
1934.21
1929.68
1931.85
1943.88
1939.64
1944.58
1961.62
1958.42
2001.91
29105.1
69924.9
115660
170373
216460
251386
274551
285171
290345
291184
289851
287782
284187
280214
276999
273080
268706
265860
262560
258649
256531
253956
250552
249046
247143
244155
243214
241749
239449
237868
237629
1947.98
1996.63
2001.44
2000.95
2000.97
2000.76
2000.43
2000.34
1935.4
1897.11
1868.86
1832.3
1822.71
1814.03
1816.1
1815.42
1834.55
1842.45
1852.06
1875.24
1883.12
1896.88
1907.19
1912.84
1920.41
1922.96
1925.78
1926.17
1928.63
1935.49
1930.86
1934.58
1937.94
1933.32
1939.84
1945.47
1942.35
1951.74
1962.32
1959.44
2001.16
28941.7
67844.8
114525
170642
218490
253846
276833
286805
291486
291901
290338
288122
284348
280294
277024
273077
268678
265830
262530
258614
256490
253927
250520
249004
247118
244128
243174
241725
239427
237834
237596
2000.59
2000.96
2001.34
2000.76
2000.79
2000.77
2000.49
2000.53
1979.16
1936.54
1910.24
1888.32
1870.45
1869.16
1881.56
1870.03
1896.94
1907.22
1906.51
1934.03
1937.03
1941.37
1958.93
1955.48
1959.81
1970.08
1961.02
1962.35
1971.23
1964.04
1963.33
1970.81
1962.29
1964.6
1972.31
1967.13
1971.05
1979.48
1980.96
1982.85
2001.54
28238
65273
113173
170943
220866
256681
279436
288655
292765
292686
290894
288484
284520
280385
277054
273074
268649
265799
262496
258575
256447
253892
250480
248961
247084
244094
243133
241692
239396
237799
237558
1864.22
1888.13
2000.69
2000.58
2000.66
2000.75
2000.44
2000.42
1971.9
1921.34
1899.14
1860.28
1848.47
1847.02
1846.46
1847.83
1867.26
1871.65
1886.17
1900.86
1904.88
1918.74
1924.97
1927.15
1936.01
1934.02
1933.66
1936.43
1934.81
1936.57
1935.04
1934.02
1934.85
1936.03
1936.81
1941.78
1944.56
1947.21
1957.5
1958.41
2000.04
26116.6
61856
111429
171292
223618
259924
282401
290735
294194
293552
291525
288874
284717
280492
277115
273069
268624
265769
262462
258538
256413
253860
250448
248928
247056
244069
243103
241670
239375
237777
237540
1858.68
1872.82
2001.3
2000.53
2000.68
2000.66
2000.47
2000.54
1988.48
1938.44
1918.86
1864.38
1856.66
1853.04
1847.56
1856.58
1869.61
1873.57
1889.12
1899.81
1906.03
1918.66
1921.13
1926.96
1931.64
1927.71
1931.96
1929.9
1927.46
1931.67
1925.94
1925.57
1929.5
1926.26
1928.5
1936
1934.61
1939.53
1951.08
1947.92
1979.98
2173.71
57301.9
109327
171690
226872
263711
285815
293067
295785
294520
292223
289279
284933
280598
277169
273062
268589
265730
262423
258491
256359
253822
250406
248875
247022
244037
243055
241638
239349
237741
237503
1735.22
1747.29
1978.34
1980.72
2000.22
2000.49
2000.33
2000.58
1994.29
1953.84
1936.91
1874.59
1868.63
1866.79
1860.65
1872.53
1882.09
1887.61
1901.97
1908.06
1915.35
1926.54
1925.92
1931.72
1935.62
1929.96
1933.68
1929.87
1926.6
1930.19
1924.55
1923.82
1927.7
1924.94
1926.78
1934.09
1932.75
1937.02
1948.1
1944.78
1969.84
2008.4
52174.7
106710
172128
230703
268110
289716
295685
297539
295584
292999
289703
285164
280714
277226
273052
268553
265685
262377
258440
256298
253774
250358
248817
246977
243997
243003
241597
239315
237704
237460
1799.01
1786.08
1986.66
1977.07
2000.29
2000.47
2000.41
2000.73
2000.12
1994.07
1977.39
1912.37
1899.42
1888.74
1886.66
1892.94
1897.19
1906.02
1909.68
1918.49
1927.52
1929.47
1933.24
1940.09
1935
1934.02
1937.46
1928.59
1932
1932.14
1923.64
1929.72
1928.44
1924.38
1933
1933.73
1931.65
1942.88
1946.63
1943.22
1969.87
2003.49
45988.2
103116
172475
235224
273249
294174
298590
299482
296781
293842
290150
285420
280827
277263
273044
268509
265628
262327
258377
256224
253719
250303
248744
246923
243955
242938
241545
239278
237652
237406
2005.13
2002.29
2012.55
2000.77
2000.77
2000.66
2000.6
2000.85
2000.35
2000.22
2000.19
1978.75
1952.41
1946.72
1948.65
1941.9
1948.39
1955.71
1951.19
1962.42
1965.41
1963.51
1972.47
1970.62
1967.26
1974.07
1966.79
1963.26
1971.71
1960.8
1960.39
1968.6
1957.1
1960.78
1968.93
1959.96
1965.39
1974.21
1969.62
1973.42
1991.12
2002.76
38829
98213.8
172993
240573
279265
299222
301853
301595
298093
294764
290617
285680
280954
277264
273014
268458
265560
262253
258303
256143
253639
250232
248670
246846
243894
242874
241477
239216
237596
237341
1572.33
1544.1
1839.01
1808.04
1835.6
1981.54
1992.35
2000.57
2000.16
1998
2000.01
1927.89
1904.85
1909.26
1898.52
1907.63
1911.07
1913.71
1919.2
1923.76
1927.52
1931.67
1932.36
1933.99
1934.95
1932
1930.95
1930.45
1929.2
1925.98
1927.34
1927.24
1923.98
1928.15
1929.56
1929.05
1934.62
1937.52
1940.53
1944.23
1952.67
2000.76
30274.2
91313.8
173409
246851
286276
304917
305500
303862
299551
295752
291128
285968
281106
277342
272984
268415
265502
262183
258245
256072
253572
250180
248607
246791
243855
242820
241439
239187
237571
237308
1753.99
1624.69
2001.84
1848.77
1871.17
1986.05
1994.19
2000.9
2000.3
2000.17
2000.22
1960.4
1937.66
1927.61
1912.91
1929.08
1915.71
1920.31
1925.33
1922.94
1930.07
1929.87
1930.05
1934.95
1928.83
1928.84
1931.36
1924.27
1926.22
1924.72
1921.45
1924.73
1922.06
1922.31
1927.34
1926.29
1928.5
1935.27
1936.63
1937.64
1948.09
1986.49
18289.7
81166.7
173686
254321
294602
311489
309438
306339
301198
296764
291666
286278
281233
277343
272968
268353
265416
262106
258158
255964
253491
250109
248503
246715
243808
242727
241368
239149
237507
237239
2001.98
2000.99
2094.89
2003.19
2001.7
2000.81
2000.69
2001
2000.49
2000.42
2000.48
2000.11
1996.97
1985.47
1975.97
1974.88
1959.87
1970.79
1960.33
1959.95
1968.45
1963.3
1969.31
1967.88
1963.15
1971.09
1963.39
1961.27
1968.84
1956.28
1958.92
1966.23
1953.02
1958.87
1966.1
1954.89
1962.47
1969.99
1962.32
1968.89
1978.01
1991.62
2013.46
66059.2
171884
263164
304493
318930
313787
309001
302985
297807
292228
286577
281370
277333
272917
268281
265310
261992
258051
255843
253375
250009
248391
246603
243721
242638
241268
239060
237434
237150
1617.51
1348.99
1693.98
1582.14
1588.17
1777.91
1760.56
1996.56
1988.66
1957.42
2000.17
1948.85
1902.6
1926.56
1898.45
1919.26
1913.43
1906.39
1906.04
1912.78
1911.55
1916.29
1919.73
1916.57
1921.66
1921.69
1916.75
1923.11
1919.81
1911.43
1921.38
1918.44
1910.12
1922.54
1920.3
1914.75
1928.56
1927.1
1924.67
1936.39
1936.43
1947.08
2002.91
44158.9
168343
273631
316227
327296
318540
311835
304938
298878
292839
286904
281525
277331
272863
268214
265215
261886
257959
255739
253273
249929
248304
246522
243663
242567
241209
239013
237392
237102
1874.28
1610
2000.8
1655.53
1672.23
1814.82
1767.04
2000.82
1992.05
1987.69
2000.42
1980.82
1952.51
1947.39
1913.34
1962.97
1915.94
1913.1
1920.43
1904.47
1912.52
1914.86
1910.17
1917.53
1913.03
1912.04
1917.55
1911.93
1910.55
1910.21
1909.2
1909.99
1907.84
1909.85
1912.53
1911.39
1915.58
1919.58
1919.85
1922.75
1928.33
1935.14
2000.14
6719.7
162201
286074
330330
336754
323633
314906
307052
299936
293467
287256
281650
277300
272815
268112
265079
261775
257835
255587
253160
249828
248165
246419
243592
242444
241117
238963
237308
237011
2000.3
1772.58
1964.99
1395.98
1399.93
1536.38
1511.5
1865.02
1821.45
1849.65
2000.09
1902.12
1893.31
1906.31
1879.38
1943.43
1895.45
1901.16
1910.79
1887.2
1902.23
1903.76
1896.82
1908.45
1904.94
1903.2
1909.89
1904.95
1903.78
1902.67
1902.06
1904.78
1901.31
1903.02
1908.17
1905.46
1909.32
1915.72
1914.51
1916.61
1923.26
1926.03
1974.42
2009.88
152801
300796
347084
347308
329070
318213
309190
301037
294100
287579
281798
277279
272737
268013
264932
261612
257702
255433
253004
249706
248032
246283
243489
242338
241005
238870
237241
236922
1961.25
1883.57
2000.42
1583.19
1525.6
1640.39
1599.2
2000.23
1864.51
1887.39
2000.34
1961.63
1957.45
1938.08
1931.63
2000.05
1923.59
1933.24
1937.52
1902.25
1922.65
1907.56
1907.26
1923.73
1899.21
1910.62
1921.05
1895.2
1909.03
1908.3
1892.81
1910.22
1902.58
1894.79
1913.81
1903.87
1901.29
1921.06
1910.95
1907.92
1927.48
1918.75
1940.47
2003.33
137173
317027
366527
358657
334645
321792
311358
302130
294746
287952
281835
277226
272659
267867
264759
261471
257541
255244
252863
249579
247857
246155
243404
242178
240889
238815
237135
236809
2004.84
2004.3
2004.62
2002.42
2001.8
2003.18
2001.84
2015.06
2001.24
2000.89
2001.33
2000.49
2000.33
2000.28
2000.19
2000.36
2000.06
2000.06
2000.07
1979.02
1991.17
1982.73
1976.96
1980.52
1966.33
1973.16
1968.09
1955.58
1966.5
1953.21
1950.62
1963.39
1946.75
1949.96
1962.76
1945.49
1952.48
1964.91
1949.3
1956.62
1968.14
1954.01
1970.04
2002.48
111781
334106
388404
370845
340478
325560
313401
303281
295351
288236
281963
277150
272510
267716
264552
261238
257354
255037
252641
249406
247679
245959
243251
242032
240722
238670
237025
236666
2002.23
2002.38
2003.07
1868.13
1618.93
1486.06
1358.99
1648.02
1544.12
1584.08
1874.44
1820.16
1806.36
1880.1
1852.2
1953.24
1900.42
1897.63
1933.65
1898.72
1910.13
1922.44
1906.43
1913.57
1912.76
1907.19
1906.22
1902.52
1902.96
1896.52
1899.56
1905.04
1895.62
1901.7
1909.35
1898.99
1908.6
1917.47
1909.31
1917.65
1924.11
1912.6
1919.54
2001
69242.3
351415
412089
383489
346469
329329
315360
304401
295926
288488
281986
277068
272335
267570
264347
261000
257180
254841
252433
249251
247525
245793
243124
241925
240603
238560
236973
236591
1859.08
2001.05
2002.58
1862.69
1715.05
1569.78
1526.61
1974.8
1701.47
1685.25
2000.73
1896.17
1885.44
1932.04
1906.39
2000.17
1936.3
1939.63
1993.09
1931.47
1950.26
1952.24
1928.99
1944.14
1921.07
1920.63
1929.78
1896.85
1910.23
1914.1
1892.13
1910.15
1904.17
1894.41
1913.54
1901.53
1900.91
1921.12
1908.99
1909.66
1925.6
1902.34
1902.65
2000.41
2014.46
367810
436073
396359
352547
332896
317309
305402
296465
288781
281945
276957
272185
267358
264100
260777
256963
254593
252226
249082
247302
245617
243008
241725
240453
238484
236843
236455
2003.01
2003.87
2008.04
2003.88
2003.33
2002.6
2002.38
2006.27
2002.42
2002.53
2006.57
2000.83
2000.65
2000.5
2000.33
2000.59
2000.18
2000.25
2000.3
2000.03
2000.17
2000.15
2000
2000.07
2000.02
1992.71
1992.48
1968.73
1980.99
1971.92
1956.33
1976.44
1959.79
1953.92
1975.49
1954.34
1954.78
1976.75
1957.33
1960.25
1977.45
1951.58
1952.51
2000.51
2008.93
387499
460787
408964
358309
336129
319068
306364
296886
288758
281868
276762
271888
267129
263797
260436
256709
254309
251924
248845
247065
245358
242793
241538
240233
238277
236709
236272
2000.02
2002.01
2005.49
2001.65
2001.68
2000.56
1936.54
2000.35
1522.6
1407.34
1616.02
1543.89
1559.22
1737.38
1689.31
1881.66
1876.62
1866.68
1954.42
1926.5
1925.78
1963.13
1927.42
1917.67
1939.99
1916.45
1901.27
1912.72
1906.76
1897.89
1909.67
1912.46
1901.6
1917.1
1921.74
1907.78
1926.05
1933.26
1923.61
1941.76
1944.13
1921.56
1927.85
2000.24
2007.7
409807
485752
420333
363257
338991
320556
307156
297179
288671
281759
276501
271523
266872
263463
260059
256445
254016
251610
248614
246840
245111
242597
241386
240055
238106
236633
236158
1609.33
1799.15
2001.28
1943.83
2000.48
1950.74
1970.65
2000.99
1737.4
1611.42
1984.03
1703.37
1718.24
1857.09
1769.25
2000.14
1929.52
1924.7
2000.15
1978.04
1991.63
2000.09
1973.49
1982.58
1979.18
1951.73
1962.66
1929.66
1936.02
1957.64
1922.15
1935.94
1943.52
1924.24
1939.75
1935.15
1929.23
1948.17
1943.53
1943.73
1956.25
1931.78
1926.28
2000.64
2005.29
434443
507836
429561
366814
341448
321894
307727
297151
288609
281585
276193
271206
266549
263086
259718
256149
253675
251309
248388
246546
244858
242439
241130
239848
237999
236475
235985
2000.35
2000.63
2002.93
2001.97
2003.01
2003.11
2003.3
2004.55
2002.65
2002.57
2006.29
2002.19
2001.32
2000.79
2000.41
2000.97
2000.26
2000.43
2000.59
2000.19
2000.4
2000.41
2000.16
2000.25
2000.22
2000.12
2000.11
2000.02
2000.08
2000.07
1984.29
2000.06
2000
1973.92
2000.05
1985.73
1969.07
2000.04
1983.73
1975.17
2000.04
1977.82
1970.5
2000.9
2005.46
456240
515941
434697
368916
343030
322676
307710
296970
288385
281334
275765
270699
266188
262623
259246
255799
253271
250914
248079
246215
244524
242160
240882
239566
237733
236305
235750
2000.21
2000.45
2002.04
2001.32
2001.98
2002.01
2002.06
2003.18
2000.9
1986.87
2000.71
1674.08
1388.16
1583.43
1524.28
1752.12
1852.05
1785.11
2000.04
1976.65
1902.33
2000.15
1983.3
1902.01
2000.09
1962.78
1885.28
1991.39
1947.57
1920.63
1991.78
1948.38
1929.04
1994.11
1953.24
1935.6
1997.27
1962.08
1949.32
2000.05
1978.74
1966.56
2000.11
2001.01
2005.96
466599
517494
433666
368402
342879
322428
307441
296544
287882
280924
275181
270002
265749
262088
258635
255400
252853
250417
247742
245908
244155
241869
240664
239305
237468
236183
235579
2000.05
1996.31
2000.34
2000.06
2000.35
2000.34
2000.38
2001.8
2000.62
2000.16
2001.48
1893.64
1795.85
1804.4
1675.65
1970.37
1861.36
1867.31
2000.47
1969.68
1981.63
2000.36
1998.86
2000.02
2000.21
1997.58
2000.02
2000.03
1995.92
2000.16
2000.02
1999.94
2000.1
2000
2000
2000.05
1997.65
2000.01
2000.04
2000.04
2000.05
2000.12
2000.2
2001.04
2009.32
461439
511114
429363
367049
342411
322093
306831
296018
287594
280302
274561
269581
265219
261479
258268
254991
252313
250099
247470
245436
243878
241726
240242
239034
237423
235935
235302
2000.56
2000.55
2000.92
2000.78
2001.11
2001.33
2001.73
2003.26
2002.19
2002.36
2003.9
2001.85
2001.27
2000.12
1799.1
1850.15
1664.82
1668.94
1828.86
1764.4
1771.6
1927.15
1889.82
1891.4
2000.07
1966.1
1953.89
2000.03
1991.81
2000.12
2000.07
2000.03
2000.1
2000.07
2000.06
2000.09
2000.08
2000.09
2000.11
2000.15
2000.17
2000.28
2000.47
2001.57
2087.25
438418
486425
418652
363934
340487
320777
305631
294934
286680
279471
273673
268710
264555
260726
257570
254451
251698
249551
247034
244954
243432
241374
239884
238674
237116
235704
235019
2003.68
2002.74
2001.92
2001.06
2000.86
2000.78
2000.94
2001.57
2001.06
2001.32
2002.28
2001.08
2000.81
1997.7
1892.79
2000.26
2003.5
2005.01
2016.77
2004.76
2002.62
2003.66
2001.2
2001.08
2001.55
2000.44
2000.36
2000.2
2000.19
2000.72
2000.25
2000.23
2000.54
2000.22
2000.23
2000.44
2000.22
2000.26
2000.43
2000.32
2000.4
2000.8
2002.82
2010.35
157028
410206
457753
402855
359500
337921
319243
304086
293792
286027
278620
272853
268099
263966
260060
257068
254030
251143
249142
246748
244496
243085
241202
239491
238386
237017
235478
234776
4270.04
2017.8
2011.96
2006.22
2003.79
2001.31
2001.04
2001.64
2001.6
2001.83
2003.41
2002.97
2003.18
2004.3
2003.69
2389.2
23425.2
14982.8
16035.7
19519.9
17342.8
5589.32
2009.59
2008.68
2007.87
2003.31
2002.16
2000.24
1996.56
2000.7
2000.01
1974.2
2000.4
1976.38
1983.27
2000.36
1996.48
2000.09
2000.89
2000.81
2001.4
2006.03
2012.72
5360.62
197860
374952
423883
385537
351911
332944
316224
301735
291852
284512
277370
271571
266904
263100
259072
256163
253370
250358
248452
246219
243893
242529
240772
239055
237933
236636
235201
234421
25759.1
23568.1
22630.2
27408.1
72402.6
2016.84
2011.04
2006.17
2002.42
2002.59
2004.27
2003.92
2004.97
2013.22
2043.44
26281.1
33954.2
25843.7
25206.5
27052
25924.7
19478.5
11566.5
10949
12195.5
13725.4
35476.2
2034.18
2019.16
2017.79
2010.9
2009.95
2011.21
2005.78
2004.08
2009.28
2006.56
2008.23
2013.36
2015.16
2027.8
101108
71921.8
103479
213793
341562
386820
370340
343107
327228
313016
299103
289937
283335
276114
270465
266065
262310
258284
255544
252841
249729
247973
245906
243363
242179
240622
238555
237653
236596
234913
234161
27741.3
28306.1
32515
40254.6
63571.2
35094.4
56761.8
84010.3
2015.17
2010.93
2014.43
2014.49
2019.61
104065
50785.5
45704.9
45045.9
35540
35414.7
33976.1
30067.6
27689.7
20367.6
19376
24058.9
26010
42860
25000.9
20086.1
26765.2
30537.4
48589.8
37366.9
71403.8
40464.7
38983.2
89175.2
99366.9
68454
67938.7
68292.9
117572
100446
127605
216336
312629
354502
353579
333827
320892
309240
296740
288018
281863
275286
269479
265058
261879
257641
254830
252516
249267
247457
245603
243025
241752
240339
238363
237323
236298
234819
233912
30122.8
31530.4
35781.4
42448.1
53413.2
46478.3
70128.3
61886.1
47640.6
91962.3
92728.7
76099.7
49334.3
92758.9
68098.7
56252.9
49040.8
40379.3
38951.8
33736.7
29961.1
28354.7
20919
19718.3
24161.5
24765.1
33565.6
24900.4
22460.3
29015.5
39316.8
60683.5
46368.9
60893.1
38123.1
47552.9
78797.9
84837.3
69722.6
73536.6
78072.7
103371
113583
144317
215925
289047
326548
335181
322435
312314
303203
292460
284285
278675
273087
267216
262682
260403
256070
253016
251369
248152
246044
244642
242250
240717
239528
237773
236561
235550
234416
233403
33860.3
35853.7
40329.8
45673.5
53910.8
55425.6
70067
70170.5
71229.4
102825
107996
95193.4
73886.6
87268.5
72979.7
62202.4
52931.4
44297.6
42303.5
36896.2
32672.1
32133.2
26235.7
24907.7
29501.7
29850.9
35738.6
32443
30879.3
38647.8
46319.3
59346.4
57407.7
60428.8
49773.6
58604.9
74889.1
81777.9
80344.2
82307.2
89639.8
111654
125848
155209
213339
270759
304832
319170
311983
304792
298440
288601
281471
277015
271368
265719
261789
259497
255083
252417
250876
247403
245556
244447
241631
240298
239510
237194
236163
235686
234136
233029
36820.4
38716.2
42438.3
46508.3
52885.7
56162.5
65143.8
67819.1
72413
91543
97735.5
90667.8
76845.7
80218.8
71416.4
64428.6
56030.3
48500.2
46676.4
41054.1
37107.7
36950.9
31518.5
30154.6
34240.2
33324.9
36879.4
35837
34856.5
41381.3
46388.4
53527.4
54861.1
52751
45236.3
56908.2
68024.9
74911.4
79744.5
83606
92729.5
112935
130249
157986
208120
255422
286359
303398
300796
296365
292299
283957
277726
273948
269043
263516
259695
258014