/*--------------------------------*- C++ -*----------------------------------*\
| =========                 |                                                 |
| \\      /  F ield         | OpenFOAM: The Open Source CFD Toolbox           |
|  \\    /   O peration     | Version:  v2012                                 |
|   \\  /    A nd           | Website:  www.openfoam.com                      |
|    \\/     M anipulation  |                                                 |
\*---------------------------------------------------------------------------*/
FoamFile
{
    version     2.0;
    format      ascii;
    class       volScalarField;
    location    "1e-06";
    object      p_rgh;
}
// * * * * * * * * * * * * * * * * * * * * * * * * * * * * * * * * * * * * * //

dimensions      [1 -1 -2 0 0 0 0];


internalField   nonuniform List<scalar> 
10248
(
1830.97
1827.05
1758.55
1813.87
1768.83
1830.58
1821.83
1818.35
1807.74
1805.79
1824.62
1832.05
1840.76
1844.61
1828.4
1835.75
1828.88
1820.78
3082.97
1814.4
1814.01
1809.21
1798.07
1803.62
1807.88
1789.1
1799.29
1795.81
1779.83
1767.14
1648.64
1713.5
1727.47
1725.17
1678.95
1729.32
1731.41
1726.73
1707.88
1667.26
1690.83
2295.21
79685.5
126459
168900
205637
237139
261095
274867
282759
286093
286360
284800
282430
279252
276318
272689
268593
265700
262394
258597
256422
253736
250464
248931
246867
244031
243067
241506
239258
237755
237418
1825.62
1816.57
1750.91
1687.03
1642.11
1622.2
1513.98
1593.84
1582.42
1616.16
1628.83
1451.19
1524.19
1440.08
1353.88
1533.48
1475.31
1435.9
1705.14
1467.82
1472.63
1542
1441.91
1522.75
1584.82
1466.95
1550.94
1579.56
1455.3
1543.62
1507.52
1561.58
1648.94
1628.82
1576.04
1654.7
1654.13
1647.91
1674
1645.6
1663.1
2179.46
79721.1
126481
168907
205643
237154
261111
274887
282764
286095
286366
284812
282427
279265
276315
272689
268592
265700
262393
258594
256421
253751
250460
248925
246865
244027
243066
241503
239254
237750
237414
1818.45
1808.53
1771
1739.88
1693.74
1690.75
1564.66
1659.32
1645.97
1685.81
1712.45
1532.54
1589.04
1693.02
1425.74
1600.6
1533.95
1488.99
1708.29
1513.8
1527.15
1607.89
1522.17
1585.43
1657.94
1515.56
1602.01
1623.69
1507.56
1575.53
1566.87
1623.72
1694.74
1674.35
1617.88
1657.9
1642.8
1641.01
1680.29
1660.16
1681.43
1871.89
79731.9
126419
168908
205660
237184
261129
274908
282771
286106
286375
284831
282444
279264
276315
272704
268591
265699
262392
258594
256421
253747
250460
248945
246878
244026
243064
241503
239253
237748
237413
1812.89
1808.05
1772.18
1746.75
1705.53
1703.75
1581.14
1689.96
1666.04
1718.41
1765.63
1572.25
1610.45
1695.84
1470.88
1620.26
1559.53
1542.12
1705.5
1547.82
1555.11
1631.7
1559.85
1606.09
1678.8
1569.53
1611.25
1619.24
1527.63
1570.58
1582.4
1640.41
1705.28
1666.17
1611.58
1628.1
1597.07
1606.72
1664.02
1639
1673.65
1719.49
79750.7
126444
168912
205686
237233
261185
274937
282784
286126
286392
284853
282461
279278
276313
272704
268590
265699
262391
258593
256419
253763
250458
248939
246885
244023
243063
241501
239251
237746
237412
1815.07
1809.81
1763.42
1725.93
1691.04
1707.43
1584.75
1721.65
1684.24
1733.23
1801.08
1597.79
1620.05
1683.17
1490.67
1625.25
1572.19
1562.35
1680.22
1558
1564.1
1640.35
1575.88
1610.07
1677.91
1575.47
1591.49
1574.82
1509.49
1565.39
1582.66
1636.06
1698.51
1651.59
1598.59
1604.53
1560.49
1567.46
1644.15
1613.82
1657.82
1717.38
79715.9
126446
168913
205741
237300
261244
274958
282813
286154
286414
284880
282479
279292
276313
272703
268588
265697
262389
258590
256418
253761
250455
248937
246899
244018
243061
241501
239250
237742
237411
1809.88
1808.13
1787.64
1767.3
1724.35
1750.18
1626.83
1761.6
1708.77
1749.18
1825.26
1627.22
1634.95
1677.24
1522.84
1633.33
1578.66
1569.46
1663.72
1567.79
1567.99
1640.24
1591.35
1617.4
1678.09
1594.68
1595.45
1573.56
1527.75
1585.45
1614.87
1660.55
1715.3
1670.78
1631.99
1597.34
1595.75
1603.22
1643.56
1620.52
1670.6
1717.27
79769.3
126158
168926
205816
237389
261297
275016
282858
286195
286443
284913
282501
279293
276311
272702
268582
265694
262388
258583
256413
253759
250449
248932
246898
244012
243058
241499
239244
237736
237408
1807.67
1807.86
1793.76
1769.06
1730.96
1765.37
1644.7
1779.78
1703.17
1740.55
1832.71
1637.97
1638.31
1663.92
1539.47
1632.15
1576.98
1573.82
1646.22
1562.07
1565.33
1632.07
1592.07
1615.48
1667.75
1592
1588.52
1559.44
1529.03
1588.52
1623.85
1664.89
1717.55
1665.53
1636.9
1600.12
1608.65
1618.51
1648.57
1631.37
1687.7
1718.38
79820.8
125732
168934
205892
237497
261407
275090
282922
286249
286481
284952
282528
279310
276311
272702
268578
265692
262385
258578
256409
253757
250443
248926
246903
244006
243055
241497
239240
237731
237406
1810.68
1810.18
1814.18
1789.06
1753.61
1798.76
1677.73
1806.93
1710.92
1733.77
1834.88
1646.46
1637.98
1649.93
1548.2
1626.22
1572.4
1570.54
1627.58
1552.88
1557.25
1621.21
1585.95
1606.28
1649.97
1579.01
1575.37
1543.48
1522.84
1585.2
1620.88
1651.35
1701.53
1633.52
1615.84
1600.95
1604.54
1612.88
1646.61
1629.83
1690.43
1999.2
79887.5
125293
168939
205983
237648
261527
275196
283008
286316
286528
284999
282560
279328
276320
272702
268573
265690
262383
258571
256405
253754
250436
248920
246902
244000
243052
241496
239235
237725
237404
1806.19
1810.23
1822.99
1796.4
1775.85
1822.21
1706.15
1824.04
1711.42
1725.97
1832.86
1650.24
1637.22
1639.23
1556.51
1620.83
1566.82
1566.64
1615.92
1544.9
1551.84
1611.96
1578.03
1598.28
1633.7
1564.23
1563.82
1530.41
1515.36
1578.55
1612.25
1634.98
1686.17
1617.17
1605.37
1603.82
1596.91
1606.01
1647.39
1626.5
1698.37
13501.1
79909.1
124787
168941
206149
237820
261695
275337
283122
286401
286586
285054
282597
279347
276331
272702
268566
265687
262380
258563
256399
253751
250429
248914
246901
243993
243049
241494
239230
237719
237402
1813.27
1813.29
1830.44
1807.13
1798.39
1846.72
1735.02
1841.3
1712.65
1710.23
1822.03
1641.77
1626.22
1622.63
1550.74
1606
1552.76
1549.51
1598.17
1527.17
1533.18
1595.15
1558.17
1576.84
1607.06
1533.85
1538.97
1504.85
1487.38
1555.95
1586.38
1596.48
1652.09
1582.49
1569.67
1586.85
1567.29
1572.26
1631
1604.23
1681.77
16959.6
79963
124256
168945
206277
238034
261914
275517
283263
286503
286655
285118
282640
279361
276340
272701
268559
265683
262377
258553
256393
253747
250420
248906
246900
243985
243044
241492
239224
237711
237399
1815.98
1816.93
1845.82
1889.49
1867.79
1900.45
1794.52
1871.53
1737.87
1718.09
1818.82
1654.23
1632.77
1625.74
1566.53
1607.64
1563.83
1558.25
1599.19
1544.24
1547.71
1602.43
1576.22
1589.69
1616.32
1557.9
1560.69
1539.91
1530.62
1587.01
1616.48
1621.14
1661.05
1613.46
1604.77
1619.27
1607.09
1611.04
1652.89
1635.24
1711.11
18358.4
79986.2
123699
168949
206498
238322
262197
275744
283438
286625
286735
285192
282687
279359
276339
272699
268548
265674
262369
258541
256384
253743
250410
248897
246897
243973
243036
241486
239216
237698
237391
1811.8
1816.97
1848
1889.97
1896.41
1924.56
1843.95
1895.58
1754.02
1724.93
1811.86
1660.43
1637.37
1626.69
1577.51
1608.07
1570.32
1565.26
1599.75
1555.87
1560.27
1609.64
1590.33
1601.82
1626.06
1579.5
1581.7
1571.03
1566.83
1615.41
1640.5
1643.96
1672.47
1640.28
1635.66
1644.81
1635.72
1639.54
1667.89
1654.3
1711.6
19623.1
79638.7
123105
168963
206720
238676
262543
276022
283650
286771
286831
285278
282742
279377
276345
272699
268538
265668
262364
258529
256375
253738
250400
248888
246894
243962
243028
241482
239208
237686
237385
1818.29
1819.88
1853.46
1895.52
1901.28
1926.45
1886.66
1915.5
1772.64
1732.11
1803.18
1667.5
1642.45
1630.16
1588.77
1609.62
1579.94
1573.31
1602.39
1570.25
1572.98
1617.09
1603.1
1611.69
1633.25
1595.38
1596.66
1592.1
1588.81
1630.26
1649.26
1649.44
1672.12
1645.55
1641.65
1652.09
1641.8
1644.83
1671.13
1658.66
1709.6
21034.7
79153
122524
168993
206984
239110
262963
276358
283903
286943
286943
285377
282805
279401
276364
272699
268527
265661
262357
258516
256365
253732
250389
248879
246890
243951
243021
241478
239200
237674
237380
1814.31
1819.88
1854.76
1895.68
1902.19
1926.73
1926.68
1934.96
1790.62
1746.8
1798.14
1677.75
1653.19
1638.04
1605.21
1616.71
1593.66
1589.26
1610.62
1588.4
1592.65
1629.92
1620.76
1628.55
1647.24
1617.99
1618.62
1618.43
1617.9
1651.48
1664.36
1664.83
1680.62
1658.53
1656.48
1663.6
1653.54
1656.52
1676.65
1665.4
1709.91
22202.2
78604.6
121936
169035
207326
239636
263469
276758
284201
287144
287071
285491
282874
279428
276380
272698
268515
265653
262349
258500
256354
253726
250376
248867
246886
243939
243011
241472
239190
237661
237373
1819.7
1821.74
1857.94
1899.09
1905.05
1927.62
1927.55
1934.74
1804.03
1757.28
1791.05
1686.5
1662.16
1645.87
1619.77
1623.17
1607.07
1603.09
1617.34
1604.53
1608.07
1639.44
1632.33
1638.61
1654.52
1629.08
1630.37
1631.19
1629.05
1658.84
1665.77
1664.06
1678.47
1657.86
1656.11
1665.3
1654.23
1657.38
1677.25
1666.59
1709.4
23424.6
78009.8
121342
169058
207756
240266
264071
277230
284551
287377
287220
285620
282952
279457
276401
272699
268502
265643
262339
258484
256342
253718
250361
248854
246880
243926
243001
241466
239180
237646
237365
1819.58
1821.7
1858.75
1899.11
1905.7
1927.74
1927.76
1934.93
1817.21
1773.17
1789.16
1699.66
1676.67
1658.75
1641.07
1636.59
1627.59
1627.15
1633.92
1630.74
1635.46
1659.4
1658.06
1662.62
1675.34
1657.52
1656.68
1658.25
1658.8
1678.83
1680.76
1679.85
1686.83
1669.26
1668.87
1674.01
1663.31
1666.76
1681.81
1672.33
1709.74
24540.1
77357.7
120737
169093
208285
241014
264781
277784
284956
287645
287391
285767
283036
279490
276421
272698
268488
265632
262328
258466
256328
253709
250344
248839
246872
243911
242988
241458
239169
237629
237354
1820.08
1822.39
1859.86
1900.5
1906.79
1927.57
1927.38
1933.95
1824.95
1782.65
1784.28
1709.5
1687.3
1669.57
1658.48
1647.89
1647.34
1648.32
1648.21
1657.85
1660.87
1677.98
1683.44
1684.08
1693.54
1682.72
1677.49
1677.72
1679.35
1691.53
1690.08
1689.76
1692.05
1677.56
1678.45
1680.62
1671.51
1675.74
1686.8
1679.56
1710.27
25555.3
76643.3
120118
169156
208926
241895
265614
278427
285426
287951
287588
285933
283127
279525
276433
272697
268473
265619
262316
258446
256311
253696
250325
248822
246862
243894
242971
241447
239155
237610
237340
1820.2
1822.45
1860.06
1899.92
1906.77
1927.38
1927.39
1934.05
1837.44
1800.75
1788.84
1730.06
1707.82
1690.97
1690.35
1671.72
1682.36
1689.2
1679.83
1707
1709.84
1716.59
1739.87
1733.47
1738.83
1746.52
1728.51
1729.03
1741.66
1730.94
1729.18
1734.54
1718.68
1712.59
1716.45
1703.83
1701.11
1705.57
1703.62
1703.34
1712.21
26445.3
75845.9
119468
169257
209692
242923
266585
279173
285967
288298
287817
286123
283226
279568
276465
272696
268457
265605
262302
258426
256293
253684
250306
248805
246850
243877
242953
241436
239142
237590
237325
1819.75
1822.05
1859.82
1900.06
1906.82
1927.11
1927.24
1933.29
1826.96
1793.17
1774.14
1713.77
1697.98
1677.91
1674
1661.55
1665.77
1671.11
1671.54
1686.1
1690.88
1703.75
1710.79
1711.09
1717.73
1710.86
1704.78
1703.74
1706
1707.98
1702.53
1701.22
1698.03
1687.54
1686.46
1686.66
1678.68
1679.06
1688.13
1683.53
1710.1
27172.8
74923.3
118755
169346
210588
244105
267708
280026
286584
288694
288080
286341
283335
279621
276506
272737
268443
265596
262290
258404
256276
253671
250286
248788
246840
243862
242941
241429
239131
237576
237320
1818.85
1821.3
1858.34
1897.99
1905.1
1924.93
1924.88
1931.22
1817.87
1786.16
1762.95
1701.73
1690.57
1669.84
1661.87
1655.85
1656.15
1659.06
1669.78
1673.26
1678.82
1697.76
1692.33
1696.97
1705.26
1690.37
1692.52
1690.69
1685.21
1696.91
1689.44
1685.31
1690.13
1677.05
1675.06
1682.15
1670.18
1670.83
1683.58
1674.76
1709.53
27779.3
73905.3
118025
169471
211663
245491
269011
281005
287291
289145
288375
286579
283449
279674
276542
272738
268425
265578
262274
258380
256255
253656
250263
248766
246827
243844
242919
241416
239116
237555
237304
1806.49
1820.78
1857.38
1897.43
1904.34
1924.17
1924.5
1930.44
1816.72
1784.13
1757.52
1698.14
1689.63
1669.37
1661.08
1658.49
1660.44
1663.37
1678.97
1682.43
1688.17
1706.83
1701.7
1706.01
1713.23
1700.16
1701.36
1699.06
1694.37
1701.35
1693.25
1689.07
1691.23
1679.07
1676.49
1681.88
1670.23
1669.91
1681.13
1673.01
1709.12
28228
72728.5
117234
169636
212929
247094
270514
282127
288093
289650
288710
286844
283571
279734
276577
272736
268404
265558
262253
258353
256231
253637
250239
248739
246810
243823
242894
241401
239099
237531
237283
1799.51
1818.22
1851.31
1890.12
1897.97
1918.7
1918.61
1925.52
1816.48
1783.33
1754.96
1697.83
1691.6
1672.54
1663.14
1663.47
1666.2
1668.44
1684.1
1686.81
1692.74
1708.27
1700.75
1706.52
1711.03
1697.76
1701.42
1697.55
1692.3
1700.58
1691.29
1688.06
1691.45
1678.33
1677.56
1681.62
1668.2
1670.06
1679.82
1669.26
1708.9
28487.5
71316.6
116350
169836
214412
248943
272246
283401
289002
290221
289089
287134
283706
279800
276615
272736
268382
265535
262231
258323
256202
253616
250212
248709
246791
243802
242864
241384
239081
237504
237260
1756.9
1816.16
1849.69
1888.66
1896.31
1917.39
1917.85
1924.73
1830.54
1795.6
1766.24
1715.08
1708.05
1691.16
1685.07
1684.22
1688.91
1692.97
1705.28
1708.37
1714.16
1725.03
1717.7
1721.56
1723.24
1711.08
1712.63
1707.77
1703.4
1707.04
1696.63
1693.04
1694.37
1681.23
1679.69
1682.6
1669.54
1670.66
1679.08
1668.56
1708.53
28805.9
69621.9
115354
170064
216148
251071
274233
284850
290022
290857
289521
287449
283851
279875
276657
272734
268357
265509
262205
258291
256170
253591
250184
248675
246769
243778
242833
241365
239062
237476
237235
1760.25
1808.97
1838.07
1872.68
1882.24
1906.19
1905.99
1916.17
1850.53
1811.71
1781.16
1737.87
1728.04
1712.2
1710.68
1703.61
1710.63
1715.38
1714.85
1722.74
1728.04
1729.14
1725.47
1728.93
1725.28
1718.51
1719.1
1712.03
1711.43
1712.57
1701.75
1702.39
1698.79
1686.41
1689.47
1686.13
1674.51
1680.19
1681.63
1671.11
1709.25
28643.1
67542
114219
170333
218178
253531
276515
286484
291162
291574
290008
287789
284012
279955
276681
272732
268330
265478
262175
258256
256129
253562
250152
248633
246743
243751
242793
241340
239039
237443
237201
1812.23
1812.74
1833.48
1869.75
1878.58
1903.94
1904.66
1914.46
1892.95
1849.71
1820.42
1792.86
1773.71
1765.14
1775.03
1755.14
1770.97
1778.49
1764.91
1779.91
1779.84
1769.96
1776.25
1769.5
1762.66
1765.25
1753
1747.6
1753.78
1740.82
1734.3
1738.63
1723.36
1718.01
1722.11
1708.36
1703.58
1708.15
1700.76
1694.75
1709.76
27939.5
64970.3
112867
170634
220554
256366
279118
288335
292441
292359
290564
288151
284184
280046
276712
272728
268301
265447
262141
258216
256086
253528
250112
248589
246710
243717
242751
241308
239009
237408
237164
1675.64
1699.55
1830.57
1867.08
1874.06
1900.65
1902.76
1911.5
1884.14
1832.92
1807.38
1763.69
1749.72
1740.79
1738.86
1730.54
1739.23
1741.34
1742.73
1745.19
1745.82
1745.7
1741.43
1739.68
1738
1728.92
1725.08
1721.52
1717.27
1713.42
1706.24
1702
1696.36
1689.89
1686.92
1683.63
1677.57
1676.23
1677.88
1670.62
1708.51
25818.4
61553.3
111123
170983
223306
259609
282083
290414
293870
293225
291195
288541
284380
280153
276772
272723
268275
265417
262106
258180
256051
253495
250080
248557
246682
243691
242722
241286
238987
237386
237146
1666.93
1679.42
1816.5
1843.31
1850.68
1880.12
1881.77
1897.02
1887.81
1837.56
1816.17
1755.51
1746.34
1734.75
1726.19
1726.61
1728.7
1729.6
1733.09
1732.41
1735.62
1736.26
1729.75
1732.66
1729.26
1719.85
1721.31
1714.56
1709.56
1709.39
1698.97
1695.7
1693.56
1683.32
1682.09
1681.29
1671.23
1672.29
1674.52
1662.75
1690.98
1876.89
56999.7
109022
171381
226560
263396
285497
292746
295461
294193
291893
288946
284597
280258
276827
272716
268240
265378
262067
258133
255997
253457
250038
248504
246648
243659
242674
241253
238961
237350
237108
1543.39
1553.76
1791.19
1819.98
1845.36
1875.93
1878.74
1894.92
1891.67
1850.9
1832.56
1764.48
1756.28
1746.56
1738.01
1740.47
1739.53
1742.16
1744
1739.66
1743.6
1742.92
1734.16
1736.64
1732.89
1722.11
1722.94
1714.7
1708.79
1708.17
1698.01
1694.23
1692.29
1682.62
1680.81
1680
1670.01
1670.24
1672.08
1660.07
1681.18
1711.86
51872.6
106405
171819
230391
267795
289398
295364
297215
295257
292668
289370
284827
280375
276883
272706
268204
265333
262022
258082
255936
253409
249990
248446
246603
243619
242622
241213
238927
237312
237066
1607.18
1591.72
1792.36
1796.46
1823.34
1849.18
1851.06
1875.04
1881.5
1876.07
1861.48
1790.7
1776.9
1759.03
1753.62
1752.55
1746.67
1752.52
1746.45
1745.05
1751.09
1743.7
1740.08
1743.85
1732.68
1727.66
1728.13
1715.66
1716.91
1712.97
1700.65
1704.18
1696.95
1686.69
1692.1
1684.22
1673.92
1681.4
1674.95
1662.53
1685.22
1709.46
45687.4
102812
172167
234912
272934
293856
298269
299158
296454
293512
289817
285084
280488
276921
272698
268160
265276
261972
258019
255862
253354
249935
248373
246548
243577
242557
241161
238890
237261
237011
1813.16
1807.78
1816.05
1817.06
1817.33
1843.44
1847.57
1870.35
1879.33
1879.68
1881.28
1856.08
1827.71
1815.05
1814.59
1799.11
1796.92
1801.36
1785.98
1788.77
1788.55
1777.17
1779.47
1774.45
1765.08
1767.97
1757.85
1750.82
1756.88
1742.39
1738.1
1743.46
1726.73
1723.9
1728.55
1711.74
1708.51
1713.31
1699.13
1693.4
1706.93
1709.3
38528.4
97909.7
172684
240261
278950
298904
301532
301270
297766
294434
290284
285344
280614
276921
272668
268109
265208
261898
257945
255782
253275
249864
248299
246471
243516
242493
241093
238829
237205
236947
1381.08
1350.23
1643.27
1622.65
1650.38
1819.12
1835.23
1866.13
1876.9
1875.2
1879.53
1804.4
1779.08
1776.93
1763.88
1764.54
1759.27
1759
1754.53
1750.11
1750.63
1745.84
1739.61
1738.15
1733.4
1726.25
1722.6
1718.73
1714.78
1708.3
1705.84
1702.64
1694.44
1692.19
1689.87
1681.8
1678.72
1677.39
1671.05
1665.03
1669.14
1708.05
29973.8
91009.8
173100
246539
285961
304599
305179
303538
299224
295422
290795
285632
280767
276999
272638
268066
265150
261828
257887
255710
253208
249812
248236
246417
243477
242439
241054
238799
237180
236913
1575.72
1441.16
1805.53
1652.05
1672.74
1801.08
1813.03
1841.35
1858.63
1860.53
1868.99
1829.06
1805.45
1791.11
1773.86
1783.87
1762.86
1764.57
1761.03
1750.65
1754.57
1746.45
1740.7
1742.43
1731.24
1727.93
1727.47
1717.33
1717.12
1712.11
1705.4
1706.1
1698.31
1692.7
1694.51
1685.71
1679.68
1682.58
1673.92
1664.79
1670.9
1698.41
17992.2
80865.2
173378
254009
294287
311171
309117
306014
300871
296434
291333
285942
280894
277000
272623
268004
265064
261751
257800
255603
253126
249741
248131
246340
243430
242346
240984
238761
237116
236844
1825.57
1818.88
1897.99
1805.61
1801.71
1811.29
1816.38
1838.26
1856.02
1858.03
1867.91
1868.06
1863.91
1848.58
1836.6
1829.39
1807.2
1815.18
1795.68
1788.14
1793.38
1780.08
1780.56
1776.03
1766.25
1770.77
1760.36
1755.18
1760.32
1744.6
1743.77
1748.27
1730.34
1730.32
1734.08
1715.51
1714.82
1718.25
1700.8
1697.12
1701.67
1704.19
1716.67
65758.1
171576
262852
304178
318611
313466
308676
302658
297476
291894
286240
281031
276990
272571
267932
264958
261637
257692
255482
253010
249641
248020
246229
243343
242257
240884
238672
237042
236755
1446.77
1171.85
1499.36
1384.72
1388.66
1587.38
1573.92
1826.26
1841.01
1811.74
1864.95
1816.14
1768.51
1789.36
1758.99
1774.29
1761.28
1751.24
1742.83
1741.68
1737.3
1734.73
1731.75
1725.85
1726.23
1722.06
1714.99
1718.32
1712.05
1701.06
1707.48
1701.32
1688.88
1695.36
1689.31
1677.13
1682.42
1676.55
1665.12
1666.04
1661.24
1661.44
1706.97
43858.3
168036
273319
315912
326978
318219
311511
304611
298548
292506
286568
281185
276988
272518
267866
264863
261531
257601
255377
252908
249561
247933
246147
243285
242186
240824
238625
237001
236708
1739.73
1463.42
1819.99
1461
1473.53
1612.82
1563.77
1806.8
1820.05
1820.1
1851.19
1839.82
1811.94
1807.45
1771.67
1818.85
1766.52
1760.91
1761.58
1738.87
1743.9
1739.31
1729.06
1733.38
1724.33
1719.97
1722.66
1714.02
1710.35
1706.81
1702.5
1700.72
1694.26
1690.96
1690.48
1682.63
1678.91
1679.01
1669.8
1661.87
1662.74
1657.29
1710.08
6424.37
161896
285762
330015
336435
323312
314582
306725
299606
293133
286920
281310
276957
272470
267763
264727
261420
257477
255225
252795
249459
247794
246044
243214
242063
240732
238575
236917
236616
1873.18
1632.63
1786.84
1202.68
1202.13
1334.16
1307.91
1667.55
1645.53
1678.34
1848.69
1759.97
1751.66
1765.84
1737.26
1799.51
1746.54
1749.46
1752.57
1722.6
1734.62
1729.07
1716.66
1725.38
1717.25
1712
1716.09
1708.12
1704.45
1700.34
1696.51
1696.47
1688.83
1685.49
1687.28
1677.96
1674.21
1676.51
1665.82
1657.38
1659.11
1649.38
1685.52
1715.81
152496
300485
346770
346990
328749
317889
308863
300707
293767
287243
281458
276936
272392
267664
264580
261257
257344
255071
252640
249338
247661
245908
243111
241957
240620
238482
236850
236527
1871.58
1784.9
1863.04
1419.25
1349.79
1445.69
1401.38
1794.94
1670.29
1694.35
1824.86
1799.45
1799.93
1788.78
1781.22
1853.86
1776.24
1784.38
1784.74
1744.52
1761.77
1740.05
1735.05
1748.25
1719.46
1728.31
1735.38
1706.57
1718.76
1714.02
1695.77
1711.21
1698.89
1687.01
1703.46
1686.58
1677.52
1693.98
1673.89
1661.27
1676.53
1653.82
1661.69
1719.02
136873
316718
366214
358339
334324
321468
311031
301800
294413
287615
281495
276883
272313
267518
264407
261115
257182
254883
252498
249211
247485
245780
243026
241797
240505
238427
236743
236414
1926.31
1915.76
1880.26
1843.64
1828.81
1808.18
1804.54
1807.94
1801.84
1802.15
1817.41
1834.79
1840.32
1849.54
1848.44
1853.81
1853.1
1851.52
1850.13
1822.51
1831.7
1816.85
1805.9
1806.58
1788.2
1791.95
1784.23
1768.62
1777.28
1760.96
1755.24
1765.53
1745.48
1744.01
1753.78
1731.16
1730.78
1739.43
1715.62
1712.3
1719
1692.47
1693.21
1719.66
111481
333796
388091
370527
340157
325236
313073
302951
295018
287900
281623
276808
272164
267367
264200
260882
256996
254675
252276
249038
247307
245584
242873
241650
240337
238282
236634
236271
1927.14
1918.5
1883.89
1715.31
1452.71
1295.61
1164.84
1442.56
1343.73
1383.82
1688.57
1651.18
1642.58
1726.56
1698.42
1805.78
1753.18
1748.96
1783.13
1742.83
1751.35
1757.47
1736.44
1740.79
1735.98
1727.1
1723.69
1716.85
1714.82
1705.39
1705.41
1708.27
1695.41
1697.12
1701.63
1685.82
1688.56
1693.54
1677.06
1675.37
1676.85
1652.9
1644.82
1720.07
68944
351106
411775
383170
346148
329005
315033
304071
295593
288151
281647
276726
271989
267221
263995
260644
256821
254479
252068
248883
247154
245418
242746
241544
240219
238172
236581
236196
1800.15
1939.54
1919.69
1750.8
1591.53
1415.2
1362.35
1786
1499.16
1479.69
1796.74
1704
1696.15
1755.57
1732.68
1839.67
1782.46
1785.03
1840.1
1776.19
1793.31
1791.84
1765.6
1778.42
1752.68
1749.94
1756.24
1720.11
1731.31
1731.45
1706.56
1722.42
1712.75
1699.36
1716
1698.71
1692.46
1709.57
1689.68
1682.24
1694.24
1659.41
1644.51
1735.63
1726.66
367504
435762
396041
352226
332572
316982
305071
296131
288444
281605
276614
271839
267009
263748
260421
256604
254231
251861
248714
246931
245242
242630
241344
240069
238096
236452
236061
1946.05
1944.38
1938.36
1901.62
1893.82
1854.42
1842.98
1813.57
1800.26
1796.8
1796.13
1803.49
1803.3
1819.01
1823.44
1840.07
1845.18
1844.44
1847.96
1844.64
1843.25
1841.93
1837.43
1835.87
1833.95
1823.12
1821.27
1793.71
1803.11
1791.2
1772.2
1789.8
1770.35
1760.36
1779.18
1753.88
1748.17
1766.78
1740.99
1735.25
1748.19
1712.43
1697.46
1738.28
1722.7
387193
460476
408646
357988
335805
318740
306033
296552
288421
281529
276419
271542
266780
263445
260080
256351
253947
251559
248477
246694
244983
242415
241157
239849
237889
236317
235877
1941.63
1941.67
1931.57
1902.54
1894.05
1860.35
1784.41
1819.97
1323.98
1205.01
1408.54
1345.12
1361.22
1552.82
1509
1715.57
1719.03
1708.78
1799.12
1770.15
1767.93
1803.08
1764.7
1753.14
1773.26
1747.22
1730.07
1738.12
1729.54
1717.69
1726.39
1726.67
1712.89
1724.7
1726.53
1708.29
1720.97
1724.74
1708.67
1719.03
1716.98
1685.25
1676.42
1741.31
1724.81
409502
485441
420015
362935
338666
320228
306826
296845
288334
281420
276159
271178
266523
263111
259704
256086
253654
251245
248245
246469
244736
242219
241005
239670
237718
236241
235763
1533.9
1724.02
1925.47
1859.78
1913.9
1844.5
1856.08
1859.75
1567.82
1432.01
1783.77
1497.15
1509.96
1653.62
1566.95
1809.8
1749.58
1746.05
1828.08
1808.26
1821.32
1831.19
1804.28
1812.41
1809.27
1781.03
1790.84
1755.99
1760.39
1779.97
1742.16
1753.85
1759.29
1736.98
1750.14
1742.32
1731.68
1747.85
1738.45
1733.11
1742.93
1712.82
1692.66
1759.15
1735.7
434142
507528
429243
366493
341124
321567
307396
296818
288272
281245
275850
270860
266200
262733
259363
255791
253313
250944
248020
246175
244484
242061
240749
239463
237611
236084
235591
1921.28
1922.05
1927.36
1918.63
1919.17
1903.4
1893.87
1873.64
1837.84
1827.25
1803.71
1795.44
1791.57
1793.99
1795.5
1805.5
1816.52
1818.01
1827.83
1827.68
1827.56
1830.77
1829.35
1828.74
1829.65
1828.64
1828.04
1826.23
1824.06
1823.02
1804.43
1817.91
1816.99
1787.02
1810.68
1794.68
1772.16
1800.3
1781.05
1765.74
1787.87
1763.67
1739.31
1761.64
1740.08
455939
515633
434379
368595
342705
322349
307379
296636
288049
280994
275422
270353
265839
262271
258891
255440
252909
250549
247711
245844
244149
241782
240501
239182
237344
235914
235355
1911.15
1912.78
1916.01
1914
1912.24
1898.94
1892.96
1871.42
1842.23
1819.04
1810.68
1469.75
1182.19
1376.06
1317.7
1552.55
1661.71
1596.87
1816.31
1798.37
1723.39
1822.98
1809.42
1726.37
1825.52
1789.67
1710.24
1814.93
1770.19
1740.67
1809.7
1765.04
1743.03
1805.48
1762.94
1741.66
1799.09
1761.72
1743.91
1789.65
1766.18
1748.21
1767.68
1762.16
1737.9
466298
517187
433349
368081
342554
322100
307110
296211
287545
280584
274838
269656
265400
261735
258280
255041
252491
250052
247374
245536
243780
241491
240283
238920
237079
235791
235184
1866.42
1865.69
1877.91
1884.11
1887.11
1887.79
1884.94
1880.42
1861.08
1854.52
1836.56
1705.91
1599.9
1592.48
1460.9
1750.38
1645
1650.72
1784.62
1761.03
1773.53
1797.41
1800.65
1802.74
1807.75
1805.89
1809.15
1809.44
1802.91
1807.52
1805.47
1803.25
1803.34
1800.57
1798.43
1797.55
1790.61
1790.47
1787.74
1782.09
1779.51
1775.83
1761.08
1755.06
1738.03
461136
510806
429045
366728
342086
321766
306500
295684
287257
279963
274218
269235
264870
261126
257913
254632
251951
249734
247101
245064
243503
241348
239860
238649
237034
235544
234907
1859.73
1862.22
1870.73
1877.56
1879.8
1881.46
1880.84
1876.26
1861.54
1856.27
1837.62
1815.41
1806.83
1789.65
1584.77
1630.27
1446.33
1449.72
1611.89
1551.92
1559.49
1719.75
1687.08
1689.16
1801.4
1770.03
1757.45
1803.73
1794.79
1802.39
1800.72
1799.71
1798.59
1796.44
1795.19
1793.26
1789.43
1787.68
1783.83
1778.85
1776.93
1771.44
1757.56
1752.89
1811.69
438116
486116
418334
363613
340162
320449
305301
294601
286344
279131
273330
268364
264206
260373
257214
254092
251336
249186
246665
244583
243057
240996
239502
238289
236728
235312
234624
1826.38
1825.19
1827.85
1832.18
1833
1837.49
1838.96
1841.95
1840.55
1839.53
1830.93
1814.48
1809.21
1790.41
1679.53
1777.16
1775.11
1773.76
1783.2
1771.38
1767.52
1768.83
1768.02
1766.95
1768.26
1768.47
1768.12
1768.92
1768.25
1769.36
1768.93
1767.81
1767.9
1766.96
1765.73
1765.04
1762.32
1760.45
1757.6
1752.86
1750.29
1744.67
1734.34
1736.13
156735
409898
457440
402536
359178
337596
318915
303755
293458
285691
278280
272510
267753
263617
259707
256713
253671
250781
248777
246379
244124
242710
240824
239109
238001
236629
235086
234381
4087
1833.99
1829.81
1830.34
1827.23
1830.49
1831.9
1836
1836.56
1835.77
1830.53
1816.18
1812.12
1797.12
1790.33
2165.21
23195.5
14750.3
15799.9
19283.9
17104.5
5349.76
1772.25
1769.26
1768.9
1766.85
1763.8
1763.66
1760.02
1763.75
1763.7
1737.13
1762.66
1738.24
1744.07
1760.57
1753.9
1755.72
1754.06
1748.83
1746.86
1745.67
1739.39
5081.18
197564
374643
423570
385218
351590
332619
315896
301405
291518
284175
277030
271228
266558
262750
258720
255807
253011
249996
248087
245850
243521
242154
240394
238674
237548
236248
234810
234026
25567.1
23374
22435.2
27212.6
72205.6
1821.16
1813.79
1811.16
1807.96
1807.28
1805.78
1798.97
1798.23
1797.4
1823.95
26054.5
33722.7
25609.4
24969.1
26811.9
25682
19233.7
11319.7
10699.9
11944.7
13472.9
35221.8
1778.76
1760.95
1759.16
1750.89
1747.28
1747.75
1740.35
1736.06
1740.26
1734.38
1733.44
1736.17
1733.52
1743.3
100820
71626.4
103181
213488
341250
386504
370022
342785
326903
312688
298772
289603
282998
275774
270121
265719
261960
257931
255188
252482
249367
247607
245538
242991
241804
240243
238173
237267
236208
234521
233765
27548.2
28110.8
32317.4
40056.6
63370.6
34893.2
56559.7
83805.3
1813.42
1808.03
1807.85
1805.78
1807.72
103847
50564.1
45477.6
44814.1
35305.5
35177
33735.7
29824.6
27444.1
20120
19125.7
23806.2
25755.8
42602.7
24741.8
19825.3
26501.2
30272.2
48323
37095.7
71132.3
40191.5
38704.5
88896.4
99086.3
68166.7
67651.1
68003.3
117275
100147
127303
216027
312317
354187
353260
333505
320567
308912
296409
287684
281526
274946
269136
264712
261529
257289
254475
252157
248904
247092
245235
242653
241377
239961
237982
236938
235909
234427
233517
29929.6
31335
35584.2
42249.6
53212.4
46276.8
69925.1
61682.4
47436.8
91757
92521
75888.9
49120.6
92539.5
67876.4
56025.2
48808.9
40144.6
38714
33496.2
29718.1
28109.1
20671.2
19467.9
23908.8
24510.6
33308.3
24641.2
22198.8
28751.8
39051.1
60415.6
46098.4
60620.6
37848.4
47275.3
78517.9
84555
69436.6
73247.8
77781.4
103075
113283
144014
215617
288735
326233
334862
322114
311989
302875
292130
283951
278338
272747
266872
262336
260053
255718
252660
251010
247790
245678
244273
241879
240342
239150
237391
236176
235161
234024
233008
33666.2
35657.2
40131
45472.4
53707.3
55220
69859
69960.2
71017.3
102610
107779
94974.4
73665.1
87044
72752.8
61972.4
52698.5
44062.1
42065.4
36655.4
32428.7
31887.2
25987
24656.4
29247.8
29594.3
35479.3
32181.1
30614.7
38380.5
46049.4
59073.8
57132.4
60150.8
49492.9
58321.3
74602.8
81488.8
80052.1
82012.2
89342.1
111353
125544
154902
213029
270446
304516
318851
311661
304467
298112
288270
281137
276678
271028
265376
261443
259147
254731
252062
250517
247041
245191
244078
241259
239923
239132
236812
235778
235297
233744
232633
36626.2
38519.6
42239.4
46307.2
52682.2
55956.7
64935.6
67608.7
72200.5
91328.1
97518.4
90448.3
76623.7
79994.1
71189.2
64198.4
55797.3
48264.6
46438.1
40813.3
36864.3
36704.8
31269.8
29903.2
33986.2
33068.2
36620.1
35575.1
34591.9
41113.9
46118.4
53254.7
54585.6
52472.9
44955.3
56624.5
67738.4
74622.1
79452.2
83310.9
92431.5
112634
129945
157679
207810
255109
286043
303079
300474
296040
291971
283626
277392
273611
268703
263172