/*--------------------------------*- C++ -*----------------------------------*\
| =========                 |                                                 |
| \\      /  F ield         | OpenFOAM: The Open Source CFD Toolbox           |
|  \\    /   O peration     | Version:  v2012                                 |
|   \\  /    A nd           | Website:  www.openfoam.com                      |
|    \\/     M anipulation  |                                                 |
\*---------------------------------------------------------------------------*/
FoamFile
{
    version     2.0;
    format      ascii;
    class       surfaceScalarField;
    location    "1e-06";
    object      phi;
}
// * * * * * * * * * * * * * * * * * * * * * * * * * * * * * * * * * * * * * //

dimensions      [0 3 -1 0 0 0 0];
oriented        oriented;


internalField   nonuniform List<scalar> 
20274
(
-2.08073e-08
-1.023e-08
-1.61603e-08
-5.06002e-09
-3.32199e-08
3.08624e-08
-5.89052e-08
2.48993e-08
-7.26314e-08
2.67677e-08
-7.24883e-08
-5.51585e-08
-4.8585e-08
-5.35322e-08
-3.6053e-08
-9.15889e-08
-4.27457e-08
-3.44405e-08
-6.33869e-08
-3.74843e-08
-8.13427e-08
-6.36912e-08
-8.44486e-08
-1.36356e-07
-8.41966e-08
-1.08228e-07
-7.62261e-08
-9.91392e-08
-7.16208e-08
-1.80393e-07
-6.83049e-08
-1.21838e-07
-6.34339e-08
-9.7768e-08
-4.69062e-08
-1.04575e-07
-5.26882e-08
4.39896e-09
-7.59523e-08
-8.65692e-08
-8.10733e-08
-5.33115e-08
-9.60452e-08
-3.0627e-08
-1.14363e-07
-4.50843e-08
-1.36882e-07
-5.0452e-09
-1.50346e-07
-2.58899e-08
-1.58751e-07
-9.79512e-08
-1.68231e-07
-3.62131e-08
-1.55022e-07
-9.60923e-08
-1.42012e-07
-9.35413e-08
-1.54295e-07
1.55873e-08
-1.6897e-07
4.87643e-08
-2.13987e-07
5.51319e-08
-2.90666e-07
7.88165e-08
-3.22758e-07
3.33076e-08
-3.38693e-07
3.3194e-08
-3.63874e-07
-5.53924e-08
-3.71333e-07
-5.73497e-09
-3.93081e-07
3.49493e-09
-4.37983e-07
4.56315e-08
-4.61595e-07
3.84608e-08
-4.99971e-07
4.30541e-08
-6.99175e-07
1.99166e-07
-7.882e-07
8.87185e-08
-8.90689e-07
1.02489e-07
-9.60465e-07
6.97788e-08
-1.00336e-06
4.28867e-08
-1.04406e-06
4.07106e-08
-1.07172e-06
2.76497e-08
-1.07474e-06
3.02923e-09
-1.07629e-06
1.53912e-09
-1.08062e-06
4.33842e-09
-1.07218e-06
-8.44117e-09
-1.07128e-06
-9.01113e-10
-1.07414e-06
2.85789e-09
-1.06174e-06
-1.23969e-08
-1.04928e-06
-1.24608e-08
-1.04435e-06
-4.92882e-09
-1.03091e-06
-1.34373e-08
-1.01613e-06
-1.4782e-08
-1.00845e-06
-7.68475e-09
-9.97508e-07
-1.09408e-08
-9.83483e-07
-1.40272e-08
-9.54026e-07
-2.94556e-08
-9.45943e-07
-8.08464e-09
-9.50246e-07
4.30483e-09
-9.41453e-07
-8.79369e-09
-9.35362e-07
-6.09064e-09
-9.18961e-07
-1.63999e-08
-9.07608e-07
-1.13533e-08
-9.02962e-07
-4.64504e-09
-8.89385e-07
-1.35763e-08
-1.46728e-08
-3.68084e-08
-3.84037e-08
-2.60387e-08
-3.42116e-08
-4.37723e-08
6.60516e-08
-7.55611e-08
9.58086e-08
-9.64782e-08
9.88954e-08
-1.10947e-07
1.32702e-08
-9.53829e-08
9.43444e-09
-8.6534e-08
-3.97163e-08
-9.19449e-08
3.48033e-08
-1.07059e-07
3.32259e-08
-1.31277e-07
1.00465e-08
-1.40746e-07
-5.19188e-08
-1.46165e-07
-3.89023e-08
-1.51161e-07
-1.89954e-08
-1.47839e-07
-9.8408e-08
-1.47783e-07
-5.90147e-08
-1.50235e-07
-2.35887e-08
-1.49473e-07
-2.65988e-08
-1.59247e-07
4.09104e-08
-1.69984e-07
6.41921e-10
-1.70068e-07
2.43209e-08
-1.92776e-07
5.87932e-08
-2.16505e-07
6.45109e-08
-2.36324e-07
8.61649e-08
-2.68682e-07
6.44896e-08
-2.81344e-07
-3.22825e-09
-2.85877e-07
3.50242e-08
-2.89714e-07
-3.16824e-08
-2.70531e-07
-2.30794e-08
-2.66269e-07
8.36725e-08
-2.86223e-07
1.53837e-07
-3.21939e-07
1.58449e-07
-3.91195e-07
1.83765e-07
-4.34102e-07
1.18335e-07
-4.43529e-07
1.02396e-07
-4.65451e-07
-3.16568e-09
-4.83619e-07
4.27318e-08
-4.98458e-07
4.96273e-08
-5.40255e-07
1.04279e-07
-5.72923e-07
9.74469e-08
-6.05248e-07
9.35927e-08
-8.11846e-07
2.96071e-07
-9.14017e-07
1.53528e-07
-1.01343e-06
1.69615e-07
-1.0812e-06
1.37565e-07
-1.13565e-06
9.73152e-08
-1.17133e-06
7.64003e-08
-1.19488e-06
5.11934e-08
-1.20818e-06
1.63325e-08
-1.20421e-06
-2.4398e-09
-1.20104e-06
1.18469e-09
-1.20203e-06
-7.46378e-09
-1.1976e-06
-5.31791e-09
-1.19107e-06
-3.67835e-09
-1.18648e-06
-1.69847e-08
-1.17253e-06
-2.64138e-08
-1.15672e-06
-2.07353e-08
-1.1475e-06
-2.26624e-08
-1.13415e-06
-2.81358e-08
-1.11728e-06
-2.45526e-08
-1.1075e-06
-2.07195e-08
-1.09707e-06
-2.44609e-08
-1.08913e-06
-3.73951e-08
-1.07864e-06
-1.85732e-08
-1.0597e-06
-1.46392e-08
-1.04413e-06
-2.43579e-08
-1.03277e-06
-1.74481e-08
-1.02403e-06
-2.51406e-08
-1.0098e-06
-2.55843e-08
-9.9628e-07
-1.81657e-08
-9.86671e-07
-2.3184e-08
-2.80686e-08
-6.62288e-08
-6.9007e-08
-4.97095e-08
-5.83599e-08
-7.04323e-08
9.90688e-08
-1.10159e-07
1.62589e-07
-1.41728e-07
1.69712e-07
-1.70072e-07
7.93044e-08
-1.64863e-07
6.67173e-08
-1.67226e-07
5.67518e-09
-1.76288e-07
8.94877e-08
-1.882e-07
8.2887e-08
-2.21654e-07
7.18928e-08
-2.43277e-07
1.29813e-08
-2.5884e-07
1.32401e-08
-2.78296e-07
2.50011e-08
-2.82082e-07
-4.27622e-08
-2.91127e-07
-1.50034e-08
-3.02967e-07
3.29215e-08
-2.9075e-07
1.14335e-08
-3.0442e-07
8.10062e-08
-3.31153e-07
7.99163e-08
-3.26355e-07
7.0964e-08
-3.50423e-07
1.26684e-07
-3.78207e-07
1.50525e-07
-3.97195e-07
1.54285e-07
-4.37096e-07
1.42626e-07
-4.54565e-07
7.81756e-08
-4.59043e-07
8.88817e-08
-4.67636e-07
2.46377e-08
-4.5046e-07
3.13774e-08
-4.39313e-07
1.34776e-07
-4.52195e-07
2.35299e-07
-4.78286e-07
2.36568e-07
-5.34507e-07
2.67637e-07
-5.73239e-07
1.91137e-07
-5.82419e-07
1.63505e-07
-6.05013e-07
5.558e-08
-6.24382e-07
1.01204e-07
-6.36956e-07
1.01076e-07
-6.74126e-07
1.61414e-07
-7.0456e-07
1.5314e-07
-7.36626e-07
1.41048e-07
-9.52057e-07
1.70219e-07
-1.05567e-06
1.30208e-07
-1.15769e-06
1.71816e-07
-1.22462e-06
2.01031e-07
-1.27912e-06
1.51806e-07
-1.31662e-06
1.13906e-07
-1.33889e-06
7.34571e-08
-1.35053e-06
2.79775e-08
-1.34599e-06
-6.98898e-09
-1.34086e-06
-3.93613e-09
-1.33923e-06
-9.09867e-09
-1.33433e-06
-1.02054e-08
-1.32611e-06
-1.19063e-08
-1.31785e-06
-2.52402e-08
-1.30278e-06
-4.14809e-08
-1.28553e-06
-3.79893e-08
-1.27323e-06
-3.49629e-08
-1.25884e-06
-4.25364e-08
-1.24039e-06
-4.2999e-08
-1.22796e-06
-3.31553e-08
-1.21636e-06
-3.60645e-08
-1.19611e-06
-5.7636e-08
-1.18358e-06
-3.11055e-08
-1.17498e-06
-2.32383e-08
-1.15835e-06
-4.09845e-08
-1.14507e-06
-3.07319e-08
-1.134e-06
-3.6204e-08
-1.11868e-06
-4.09038e-08
-1.10359e-06
-3.32614e-08
-1.09139e-06
-3.53764e-08
-4.26547e-08
-7.1365e-08
-9.65799e-08
-5.78e-08
-7.86355e-08
-7.91275e-08
1.32972e-07
-1.17898e-07
2.27688e-07
-1.52906e-07
2.42518e-07
-1.81152e-07
1.442e-07
-1.85249e-07
1.32661e-07
-1.88714e-07
4.7359e-08
-1.8801e-07
1.32208e-07
-2.10291e-07
1.37951e-07
-2.44794e-07
1.27609e-07
-2.60746e-07
6.96616e-08
-2.81823e-07
7.00707e-08
-2.99424e-07
6.79422e-08
-3.12424e-07
1.96157e-08
-3.24526e-07
3.14506e-08
-3.24129e-07
7.6111e-08
-3.32428e-07
6.58225e-08
-3.47385e-07
1.23082e-07
-3.53732e-07
1.3646e-07
-3.65807e-07
1.32829e-07
-3.89602e-07
1.9206e-07
-4.03391e-07
2.19017e-07
-4.30397e-07
2.29109e-07
-4.69738e-07
2.1834e-07
-4.85085e-07
1.50562e-07
-4.94651e-07
1.48335e-07
-4.98886e-07
7.96402e-08
-4.85548e-07
8.86617e-08
-4.7597e-07
1.91379e-07
-4.81081e-07
3.07347e-07
-5.14434e-07
3.19228e-07
-5.73874e-07
3.53673e-07
-6.05512e-07
2.61295e-07
-6.23902e-07
2.38286e-07
-6.48963e-07
1.30421e-07
-6.59998e-07
1.70342e-07
-6.82924e-07
1.77659e-07
-7.2238e-07
2.29909e-07
-7.43591e-07
2.09564e-07
-7.85884e-07
2.02718e-07
-1.01196e-06
1.73679e-07
-1.11096e-06
9.40583e-08
-1.22249e-06
1.783e-07
-1.29339e-06
2.6838e-07
-1.34401e-06
2.02413e-07
-1.38735e-06
1.5726e-07
-1.41148e-06
9.75679e-08
-1.41939e-06
3.5892e-08
-1.41643e-06
-9.95314e-09
-1.41211e-06
-8.24781e-09
-1.40763e-06
-1.35873e-08
-1.40311e-06
-1.47155e-08
-1.39603e-06
-1.89824e-08
-1.38557e-06
-3.57024e-08
-1.36926e-06
-5.77872e-08
-1.35343e-06
-5.38248e-08
-1.33976e-06
-4.8636e-08
-1.32287e-06
-5.94258e-08
-1.30859e-06
-5.72844e-08
-1.29519e-06
-4.65585e-08
-1.27821e-06
-5.30494e-08
-1.26636e-06
-6.94781e-08
-1.25309e-06
-4.43815e-08
-1.23499e-06
-4.13341e-08
-1.21973e-06
-5.62411e-08
-1.2061e-06
-4.43633e-08
-1.19182e-06
-5.04791e-08
-1.17607e-06
-5.66579e-08
-1.16164e-06
-4.76899e-08
-1.14816e-06
-4.88503e-08
-5.91329e-08
-1.05688e-07
-1.34253e-07
-9.33738e-08
-1.07991e-07
-1.2387e-07
1.80414e-07
-1.70998e-07
3.08786e-07
-2.12364e-07
3.27447e-07
-2.48211e-07
2.16715e-07
-2.56379e-07
2.01855e-07
-2.72513e-07
9.54114e-08
-2.83e-07
1.79269e-07
-3.07378e-07
1.90737e-07
-3.53094e-07
1.89254e-07
-3.78689e-07
1.33324e-07
-4.04507e-07
1.31229e-07
-4.30898e-07
1.22183e-07
-4.46503e-07
8.46599e-08
-4.66187e-07
8.64953e-08
-4.76093e-07
1.29409e-07
-4.98801e-07
1.33564e-07
-5.16507e-07
1.72555e-07
-5.12936e-07
1.83108e-07
-5.18973e-07
1.88745e-07
-5.40075e-07
2.54256e-07
-5.54454e-07
2.86797e-07
-5.72756e-07
2.95636e-07
-6.05719e-07
2.8942e-07
-6.20272e-07
2.23744e-07
-6.28648e-07
2.12772e-07
-6.35833e-07
1.49557e-07
-6.26027e-07
1.56828e-07
-6.18268e-07
2.53671e-07
-6.23116e-07
3.80775e-07
-6.46438e-07
3.95772e-07
-6.91361e-07
4.3222e-07
-7.18894e-07
3.36414e-07
-7.33575e-07
3.16986e-07
-7.58344e-07
2.16906e-07
-7.73326e-07
2.61181e-07
-7.90878e-07
2.67937e-07
-8.24077e-07
3.03963e-07
-8.45041e-07
2.79658e-07
-8.85745e-07
2.72527e-07
-1.11885e-06
2.38018e-07
-1.22246e-06
2.941e-08
-1.33431e-06
1.54076e-07
-1.40552e-06
3.36172e-07
-1.45944e-06
2.56325e-07
-1.50293e-06
2.0076e-07
-1.52644e-06
1.21063e-07
-1.535e-06
4.44591e-08
-1.53105e-06
-1.39119e-08
-1.52515e-06
-1.41364e-08
-1.52008e-06
-1.86624e-08
-1.51476e-06
-2.0035e-08
-1.5061e-06
-2.76425e-08
-1.49378e-06
-4.80179e-08
-1.47668e-06
-7.48916e-08
-1.45902e-06
-7.14834e-08
-1.44351e-06
-6.4145e-08
-1.42629e-06
-7.66466e-08
-1.40914e-06
-7.44398e-08
-1.39396e-06
-6.17438e-08
-1.37768e-06
-6.93318e-08
-1.36351e-06
-8.36461e-08
-1.34854e-06
-5.93514e-08
-1.33052e-06
-5.93456e-08
-1.31356e-06
-7.32074e-08
-1.29809e-06
-5.98289e-08
-1.28298e-06
-6.55878e-08
-1.26622e-06
-7.34143e-08
-1.24982e-06
-6.40938e-08
-1.23442e-06
-6.42502e-08
-7.64297e-08
-1.4183e-07
-1.55194e-07
-1.32215e-07
-1.24078e-07
-1.73549e-07
2.32255e-07
-2.29475e-07
3.89179e-07
-2.76013e-07
4.10222e-07
-3.18879e-07
2.88106e-07
-3.29956e-07
2.6427e-07
-3.6011e-07
1.50226e-07
-3.84926e-07
2.34326e-07
-4.09103e-07
2.39362e-07
-4.59553e-07
2.52912e-07
-4.89817e-07
1.99384e-07
-5.13044e-07
1.89336e-07
-5.39142e-07
1.7811e-07
-5.53052e-07
1.46606e-07
-5.75798e-07
1.45445e-07
-5.91301e-07
1.89649e-07
-5.97589e-07
1.86214e-07
-6.16086e-07
2.26589e-07
-6.30723e-07
2.49028e-07
-6.35373e-07
2.45179e-07
-6.53182e-07
3.15121e-07
-6.67019e-07
3.53903e-07
-6.79279e-07
3.57109e-07
-7.02952e-07
3.5299e-07
-7.14461e-07
2.93086e-07
-7.22141e-07
2.7861e-07
-7.31789e-07
2.25538e-07
-7.29478e-07
2.32404e-07
-7.30711e-07
3.22806e-07
-7.3981e-07
4.51588e-07
-7.55893e-07
4.60201e-07
-7.88744e-07
4.95844e-07
-8.11903e-07
4.03287e-07
-8.23267e-07
3.84254e-07
-8.45492e-07
3.06029e-07
-8.60589e-07
3.42026e-07
-8.75034e-07
3.44484e-07
-9.04085e-07
3.75627e-07
-9.24098e-07
3.47632e-07
-9.65109e-07
3.37688e-07
-1.20555e-06
2.92064e-07
-1.31331e-06
-9.78588e-09
-1.42786e-06
1.50856e-07
-1.50055e-06
4.05707e-07
-1.55775e-06
3.13511e-07
-1.60244e-06
2.45466e-07
-1.62595e-06
1.4455e-07
-1.63466e-06
5.31795e-08
-1.63065e-06
-1.7932e-08
-1.62344e-06
-2.13306e-08
-1.61768e-06
-2.44298e-08
-1.61177e-06
-2.59318e-08
-1.60198e-06
-3.74352e-08
-1.58807e-06
-6.1925e-08
-1.57013e-06
-9.28377e-08
-1.55116e-06
-9.04563e-08
-1.53417e-06
-8.11386e-08
-1.51634e-06
-9.44776e-08
-1.49746e-06
-9.3318e-08
-1.48081e-06
-7.84005e-08
-1.46429e-06
-8.58504e-08
-1.44611e-06
-1.01821e-07
-1.42967e-06
-7.57942e-08
-1.41367e-06
-7.5349e-08
-1.39557e-06
-9.1304e-08
-1.37861e-06
-7.67829e-08
-1.36249e-06
-8.17134e-08
-1.34478e-06
-9.11232e-08
-1.32681e-06
-8.20581e-08
-1.30988e-06
-8.11834e-08
-9.46065e-08
-1.521e-07
-1.71536e-07
-1.46177e-07
-1.34132e-07
-1.8867e-07
2.84062e-07
-2.44181e-07
4.69763e-07
-2.9533e-07
4.97407e-07
-3.38266e-07
3.57716e-07
-3.5714e-07
3.33183e-07
-3.90196e-07
2.05579e-07
-4.08625e-07
2.85046e-07
-4.42705e-07
3.00129e-07
-4.94055e-07
3.17078e-07
-5.19103e-07
2.6053e-07
-5.46457e-07
2.52713e-07
-5.7035e-07
2.34778e-07
-5.87811e-07
2.12226e-07
-6.12622e-07
2.08275e-07
-6.22782e-07
2.46776e-07
-6.35528e-07
2.46804e-07
-6.55012e-07
2.85686e-07
-6.63837e-07
3.12307e-07
-6.75016e-07
3.10875e-07
-6.93026e-07
3.79517e-07
-7.02298e-07
4.18691e-07
-7.18063e-07
4.24643e-07
-7.41328e-07
4.19974e-07
-7.52155e-07
3.6489e-07
-7.62184e-07
3.50926e-07
-7.70379e-07
3.06423e-07
-7.70802e-07
3.13875e-07
-7.75104e-07
3.97234e-07
-7.80785e-07
5.19039e-07
-8.0096e-07
5.29556e-07
-8.35336e-07
5.61649e-07
-8.54025e-07
4.69413e-07
-8.68883e-07
4.55829e-07
-8.9215e-07
3.98138e-07
-9.04552e-07
4.1793e-07
-9.22155e-07
4.20725e-07
-9.52529e-07
4.48197e-07
-9.7026e-07
4.10428e-07
-1.0161e-06
4.00731e-07
-1.26646e-06
3.1514e-07
-1.37628e-06
-5.27538e-08
-1.4975e-06
1.49517e-07
-1.57335e-06
4.78279e-07
-1.63197e-06
3.72115e-07
-1.68035e-06
2.93857e-07
-1.70532e-06
1.69509e-07
-1.71302e-06
6.08829e-08
-1.71001e-06
-2.09514e-08
-1.70268e-06
-2.86442e-08
-1.69555e-06
-3.15736e-08
-1.68945e-06
-3.20191e-08
-1.67956e-06
-4.73221e-08
-1.66416e-06
-7.7325e-08
-1.64516e-06
-1.11839e-07
-1.62612e-06
-1.09499e-07
-1.60799e-06
-9.92699e-08
-1.58872e-06
-1.13757e-07
-1.57043e-06
-1.11611e-07
-1.55282e-06
-9.6006e-08
-1.53414e-06
-1.04537e-07
-1.51731e-06
-1.18648e-07
-1.50002e-06
-9.3082e-08
-1.48103e-06
-9.43384e-08
-1.46287e-06
-1.09467e-07
-1.44521e-06
-9.44413e-08
-1.4274e-06
-9.95173e-08
-1.40892e-06
-1.096e-07
-1.39049e-06
-1.00487e-07
-1.37244e-06
-9.92415e-08
-1.14004e-07
-1.9414e-07
-1.84979e-07
-1.91513e-07
-1.44122e-07
-2.44287e-07
3.41464e-07
-3.06507e-07
5.53892e-07
-3.64083e-07
5.86573e-07
-4.17324e-07
4.3162e-07
-4.43465e-07
4.01541e-07
-4.91247e-07
2.71335e-07
-5.20634e-07
3.44734e-07
-5.49369e-07
3.55963e-07
-5.98261e-07
3.78966e-07
-6.24455e-07
3.23254e-07
-6.4613e-07
3.12029e-07
-6.68328e-07
2.93194e-07
-6.81355e-07
2.74837e-07
-7.02274e-07
2.70027e-07
-7.15104e-07
3.09713e-07
-7.2782e-07
3.10375e-07
-7.45628e-07
3.48039e-07
-7.53019e-07
3.78502e-07
-7.61312e-07
3.77856e-07
-7.78702e-07
4.47517e-07
-7.89252e-07
4.88767e-07
-8.00728e-07
4.92288e-07
-8.21e-07
4.89891e-07
-8.31215e-07
4.42429e-07
-8.40423e-07
4.28907e-07
-8.50541e-07
3.9731e-07
-8.54623e-07
4.05122e-07
-8.64082e-07
4.81117e-07
-8.73282e-07
5.93725e-07
-8.87529e-07
5.99495e-07
-9.13011e-07
6.25336e-07
-9.28952e-07
5.46094e-07
-9.40378e-07
5.33974e-07
-9.6097e-07
4.90105e-07
-9.74226e-07
4.98735e-07
-9.89409e-07
4.98913e-07
-1.01733e-06
5.19972e-07
-1.03547e-06
4.75155e-07
-1.08243e-06
4.62649e-07
-1.33971e-06
-2.70383e-07
-1.45339e-06
-4.3475e-08
-1.58089e-06
1.93451e-07
-1.65937e-06
5.54617e-07
-1.72194e-06
4.34667e-07
-1.77203e-06
3.43961e-07
-1.79731e-06
1.94773e-07
-1.80559e-06
6.91738e-08
-1.80241e-06
-2.41425e-08
-1.79411e-06
-3.69305e-08
-1.78659e-06
-3.91045e-08
-1.77986e-06
-3.87358e-08
-1.76855e-06
-5.86356e-08
-1.75201e-06
-9.38617e-08
-1.73215e-06
-1.31702e-07
-1.71177e-06
-1.29884e-07
-1.6924e-06
-1.18634e-07
-1.67246e-06
-1.33702e-07
-1.65267e-06
-1.31406e-07
-1.63383e-06
-1.14849e-07
-1.61471e-06
-1.2366e-07
-1.5968e-06
-1.36555e-07
-1.57824e-06
-1.11636e-07
-1.55837e-06
-1.14211e-07
-1.53906e-06
-1.28775e-07
-1.5201e-06
-1.134e-07
-1.50142e-06
-1.18201e-07
-1.48198e-06
-1.29033e-07
-1.46215e-06
-1.20323e-07
-1.44279e-06
-1.18592e-07
-1.34266e-07
-2.08014e-07
-1.97274e-07
-2.10789e-07
-1.48996e-07
-2.64985e-07
3.98145e-07
-3.26207e-07
6.35929e-07
-3.89455e-07
6.76833e-07
-4.42649e-07
5.01905e-07
-4.77654e-07
4.75239e-07
-5.29073e-07
3.38743e-07
-5.51517e-07
3.98701e-07
-5.89103e-07
4.229e-07
-6.38138e-07
4.41836e-07
-6.59928e-07
3.82713e-07
-6.8543e-07
3.76964e-07
-7.05064e-07
3.52122e-07
-7.2097e-07
3.41434e-07
-7.43818e-07
3.36389e-07
-7.52011e-07
3.71104e-07
-7.67041e-07
3.79126e-07
-7.85538e-07
4.15053e-07
-7.9133e-07
4.47089e-07
-8.04664e-07
4.53453e-07
-8.2207e-07
5.19611e-07
-8.29493e-07
5.59948e-07
-8.43858e-07
5.66973e-07
-8.63517e-07
5.65011e-07
-8.73528e-07
5.26216e-07
-8.84635e-07
5.14717e-07
-8.93574e-07
4.94158e-07
-8.99539e-07
5.0415e-07
-9.11134e-07
5.72499e-07
-9.18385e-07
6.72224e-07
-9.34705e-07
6.79461e-07
-9.61266e-07
6.97224e-07
-9.7492e-07
6.29298e-07
-9.88268e-07
6.20988e-07
-1.00983e-06
5.84955e-07
-1.02177e-06
5.846e-07
-1.03884e-06
5.84889e-07
-1.06791e-06
5.93967e-07
-1.0853e-06
5.4284e-07
-1.13986e-06
5.28663e-07
-1.40073e-06
-4.21608e-07
-1.51954e-06
-3.2074e-08
-1.65366e-06
2.41221e-07
-1.736e-06
6.34603e-07
-1.80158e-06
5.00236e-07
-1.85491e-06
3.97297e-07
-1.8816e-06
2.21451e-07
-1.88962e-06
7.72079e-08
-1.8869e-06
-2.68835e-08
-1.87861e-06
-4.5199e-08
-1.87018e-06
-4.75455e-08
-1.86293e-06
-4.59766e-08
-1.85092e-06
-7.06476e-08
-1.83312e-06
-1.11659e-07
-1.81231e-06
-1.52516e-07
-1.79132e-06
-1.50872e-07
-1.77085e-06
-1.3911e-07
-1.74973e-06
-1.54816e-07
-1.72954e-06
-1.51604e-07
-1.7097e-06
-1.34684e-07
-1.68923e-06
-1.4414e-07
-1.67012e-06
-1.55664e-07
-1.65064e-06
-1.31115e-07
-1.63019e-06
-1.34654e-07
-1.61031e-06
-1.48653e-07
-1.59046e-06
-1.33249e-07
-1.57052e-06
-1.38144e-07
-1.55022e-06
-1.49329e-07
-1.52957e-06
-1.40977e-07
-1.50912e-06
-1.39043e-07
-1.55598e-07
-2.60085e-07
-2.06381e-07
-2.66643e-07
-1.47878e-07
-3.346e-07
4.68843e-07
-4.04995e-07
7.26404e-07
-4.74793e-07
7.69394e-07
-5.39885e-07
5.80246e-07
-5.79355e-07
5.47719e-07
-6.3991e-07
4.13037e-07
-6.70455e-07
4.61048e-07
-6.98242e-07
4.82807e-07
-7.41175e-07
5.00694e-07
-7.63418e-07
4.45588e-07
-7.82288e-07
4.38693e-07
-8.00519e-07
4.14172e-07
-8.12087e-07
4.07425e-07
-8.30327e-07
4.02774e-07
-8.40772e-07
4.39994e-07
-8.51876e-07
4.49746e-07
-8.67595e-07
4.84879e-07
-8.74887e-07
5.23984e-07
-8.83946e-07
5.31737e-07
-8.99631e-07
5.96255e-07
-9.08533e-07
6.40489e-07
-9.19096e-07
6.45882e-07
-9.36947e-07
6.47663e-07
-9.46669e-07
6.21871e-07
-9.56399e-07
6.09994e-07
-9.66549e-07
6.04609e-07
-9.73525e-07
6.17704e-07
-9.86405e-07
6.76376e-07
-9.95921e-07
7.65385e-07
-1.00821e-06
7.71907e-07
-1.02891e-06
7.77733e-07
-1.04146e-06
7.28282e-07
-1.05233e-06
7.23269e-07
-1.07188e-06
6.87917e-07
-1.08484e-06
6.87888e-07
-1.10042e-06
6.8751e-07
-1.12825e-06
6.75155e-07
-1.14694e-06
6.24311e-07
-1.20852e-06
6.0877e-07
-1.46875e-06
-4.32045e-07
-1.59545e-06
3.9299e-08
-1.73323e-06
3.35161e-07
-1.8193e-06
7.19994e-07
-1.88981e-06
5.70732e-07
-1.94524e-06
4.5274e-07
-1.97258e-06
2.48776e-07
-1.98109e-06
8.57294e-08
-1.97811e-06
-2.9875e-08
-1.96938e-06
-5.39172e-08
-1.96043e-06
-5.64985e-08
-1.95234e-06
-5.40564e-08
-1.93889e-06
-8.4101e-08
-1.91992e-06
-1.30634e-07
-1.89823e-06
-1.74199e-07
-1.87597e-06
-1.73141e-07
-1.85426e-06
-1.60819e-07
-1.83238e-06
-1.76703e-07
-1.81084e-06
-1.73144e-07
-1.78977e-06
-1.55749e-07
-1.76865e-06
-1.65271e-07
-1.74857e-06
-1.75739e-07
-1.72782e-06
-1.5187e-07
-1.70635e-06
-1.56115e-07
-1.68543e-06
-1.69573e-07
-1.66426e-06
-1.54417e-07
-1.64335e-06
-1.59058e-07
-1.6221e-06
-1.70573e-07
-1.60011e-06
-1.62971e-07
-1.57833e-06
-1.60817e-07
-1.77862e-07
-3.1785e-07
-2.07447e-07
-3.31675e-07
-1.46673e-07
-4.19275e-07
5.11558e-07
-5.00551e-07
8.06551e-07
-5.73702e-07
8.49343e-07
-6.49555e-07
6.60319e-07
-6.86632e-07
6.07787e-07
-7.47209e-07
4.83243e-07
-7.8359e-07
5.26682e-07
-8.02538e-07
5.33902e-07
-8.38823e-07
5.54089e-07
-8.6013e-07
5.07798e-07
-8.72572e-07
4.95238e-07
-8.88831e-07
4.76382e-07
-8.96507e-07
4.70475e-07
-9.10127e-07
4.67069e-07
-9.21763e-07
5.11812e-07
-9.26509e-07
5.16219e-07
-9.39241e-07
5.54728e-07
-9.49896e-07
6.05446e-07
-9.55783e-07
6.08441e-07
-9.69561e-07
6.73161e-07
-9.78945e-07
7.22252e-07
-9.87123e-07
7.23917e-07
-1.00353e-06
7.30744e-07
-1.01285e-06
7.16723e-07
-1.02164e-06
7.04149e-07
-1.03221e-06
7.11562e-07
-1.03963e-06
7.25549e-07
-1.05263e-06
7.75028e-07
-1.0629e-06
8.52463e-07
-1.0729e-06
8.56798e-07
-1.09006e-06
8.53164e-07
-1.10162e-06
8.1641e-07
-1.11111e-06
8.12511e-07
-1.12939e-06
7.76898e-07
-1.14265e-06
7.73653e-07
-1.15749e-06
7.71374e-07
-1.1847e-06
7.43914e-07
-1.20441e-06
6.90062e-07
-1.27422e-06
6.74755e-07
-1.53229e-06
-3.43602e-07
-1.66655e-06
1.5158e-07
-1.80933e-06
4.61525e-07
-1.90028e-06
8.10795e-07
-1.97533e-06
6.45772e-07
-2.03352e-06
5.1094e-07
-2.0619e-06
2.77143e-07
-2.07052e-06
9.43502e-08
-2.06759e-06
-3.2813e-08
-2.05851e-06
-6.29788e-08
-2.04881e-06
-6.6205e-08
-2.04014e-06
-6.27216e-08
-2.02539e-06
-9.88479e-08
-2.00501e-06
-1.5102e-07
-1.98229e-06
-1.96912e-07
-1.95915e-06
-1.96285e-07
-1.93612e-06
-1.83859e-07
-1.91316e-06
-1.99659e-07
-1.89082e-06
-1.9549e-07
-1.8685e-06
-1.78064e-07
-1.84623e-06
-1.87547e-07
-1.82505e-06
-1.96917e-07
-1.80308e-06
-1.7384e-07
-1.78078e-06
-1.78413e-07
-1.75914e-06
-1.91213e-07
-1.73682e-06
-1.76742e-07
-1.71458e-06
-1.81291e-07
-1.69243e-06
-1.92723e-07
-1.6694e-06
-1.86001e-07
-1.64622e-06
-1.8399e-07
-2.01255e-07
-3.39608e-07
-2.03704e-07
-3.59977e-07
-1.39137e-07
-4.51307e-07
5.39459e-07
-5.34032e-07
8.34362e-07
-6.14473e-07
8.86182e-07
-6.89423e-07
7.07051e-07
-7.33357e-07
6.66629e-07
-7.9721e-07
5.53311e-07
-8.26174e-07
5.83721e-07
-8.51105e-07
5.91358e-07
-8.874e-07
6.09317e-07
-9.05264e-07
5.67468e-07
-9.20329e-07
5.55718e-07
-9.34468e-07
5.38493e-07
-9.43917e-07
5.36064e-07
-9.58972e-07
5.35161e-07
-9.6726e-07
5.81931e-07
-9.76387e-07
5.88639e-07
-9.89679e-07
6.27751e-07
-9.95997e-07
6.83474e-07
-1.00435e-06
6.8831e-07
-1.01827e-06
7.51733e-07
-1.02609e-06
8.02403e-07
-1.03577e-06
8.03811e-07
-1.05207e-06
8.14407e-07
-1.06136e-06
8.09294e-07
-1.07127e-06
7.9746e-07
-1.08137e-06
8.12709e-07
-1.08959e-06
8.26925e-07
-1.1038e-06
8.68727e-07
-1.11341e-06
9.32862e-07
-1.12419e-06
9.36676e-07
-1.14192e-06
9.26575e-07
-1.15267e-06
8.94582e-07
-1.16295e-06
8.91473e-07
-1.18185e-06
8.56155e-07
-1.19483e-06
8.46648e-07
-1.21043e-06
8.43291e-07
-1.23856e-06
8.05985e-07
-1.25916e-06
7.47113e-07
-1.33666e-06
7.31089e-07
-1.595e-06
-2.35044e-07
-1.73638e-06
2.70975e-07
-1.88522e-06
5.93615e-07
-1.98256e-06
9.07991e-07
-2.06245e-06
7.2565e-07
-2.12346e-06
5.71957e-07
-2.15325e-06
3.06925e-07
-2.16236e-06
1.0347e-07
-2.15942e-06
-3.57687e-08
-2.15001e-06
-7.238e-08
-2.14001e-06
-7.62079e-08
-2.13059e-06
-7.21311e-08
-2.11437e-06
-1.15068e-07
-2.09294e-06
-1.72452e-07
-2.06912e-06
-2.20726e-07
-2.04476e-06
-2.20651e-07
-2.02068e-06
-2.07944e-07
-1.99679e-06
-2.2355e-07
-1.97327e-06
-2.19012e-07
-1.94991e-06
-2.01428e-07
-1.92681e-06
-2.10646e-07
-1.90474e-06
-2.18981e-07
-1.88171e-06
-1.96876e-07
-1.85832e-06
-2.01796e-07
-1.83558e-06
-2.13953e-07
-1.81213e-06
-2.00198e-07
-1.78903e-06
-2.04387e-07
-1.76586e-06
-2.15889e-07
-1.74159e-06
-2.10275e-07
-1.71738e-06
-2.08197e-07
-2.25588e-07
-4.04025e-07
-1.94978e-07
-4.35691e-07
-1.30492e-07
-5.51744e-07
5.60399e-07
-6.47209e-07
8.52811e-07
-7.28196e-07
9.06924e-07
-8.09967e-07
7.39789e-07
-8.47167e-07
7.11334e-07
-9.03532e-07
6.12868e-07
-9.34188e-07
6.40719e-07
-9.50727e-07
6.40736e-07
-9.79673e-07
6.59475e-07
-9.95388e-07
6.26201e-07
-1.00461e-06
6.12074e-07
-1.01686e-06
6.01157e-07
-1.02312e-06
6.00248e-07
-1.03371e-06
6.01781e-07
-1.04242e-06
6.54853e-07
-1.04706e-06
6.59392e-07
-1.05731e-06
7.01193e-07
-1.06516e-06
7.65228e-07
-1.07102e-06
7.68138e-07
-1.08308e-06
8.31167e-07
-1.09095e-06
8.84987e-07
-1.0989e-06
8.84668e-07
-1.11396e-06
8.99648e-07
-1.12295e-06
9.0333e-07
-1.13203e-06
8.91492e-07
-1.14217e-06
9.13126e-07
-1.15043e-06
9.274e-07
-1.16417e-06
9.60617e-07
-1.17387e-06
1.01245e-06
-1.18339e-06
1.01536e-06
-1.19886e-06
9.98609e-07
-1.20881e-06
9.70187e-07
-1.21857e-06
9.67586e-07
-1.23657e-06
9.30767e-07
-1.2493e-06
9.15917e-07
-1.26481e-06
9.11709e-07
-1.29261e-06
8.65182e-07
-1.31383e-06
8.02167e-07
-1.39786e-06
7.85902e-07
-1.65501e-06
-7.88818e-08
-1.80406e-06
4.09473e-07
-1.95994e-06
7.42062e-07
-2.06416e-06
1.01218e-06
-2.14845e-06
8.09936e-07
-2.21265e-06
6.36169e-07
-2.24384e-06
3.38102e-07
-2.25287e-06
1.12506e-07
-2.25017e-06
-3.84801e-08
-2.24056e-06
-8.19762e-08
-2.22966e-06
-8.71175e-08
-2.21952e-06
-8.22619e-08
-2.20206e-06
-1.32524e-07
-2.17896e-06
-1.95548e-07
-2.15397e-06
-2.45718e-07
-2.12893e-06
-2.45694e-07
-2.10343e-06
-2.33449e-07
-2.07818e-06
-2.48799e-07
-2.05418e-06
-2.43018e-07
-2.02958e-06
-2.26025e-07
-2.00498e-06
-2.35257e-07
-1.98219e-06
-2.41768e-07
-1.95803e-06
-2.21035e-07
-1.9333e-06
-2.26519e-07
-1.91e-06
-2.37252e-07
-1.88556e-06
-2.24644e-07
-1.86085e-06
-2.29088e-07
-1.83674e-06
-2.40006e-07
-1.81167e-06
-2.35345e-07
-1.78602e-06
-2.33846e-07
-2.51267e-07
-4.30491e-07
-1.7988e-07
-4.6984e-07
-1.15272e-07
-5.91357e-07
5.62357e-07
-6.90038e-07
8.4648e-07
-7.78479e-07
9.02017e-07
-8.58342e-07
7.55706e-07
-9.00418e-07
7.4354e-07
-9.59319e-07
6.60482e-07
-9.8373e-07
6.89635e-07
-1.0043e-06
6.93145e-07
-1.03276e-06
7.10953e-07
-1.04599e-06
6.82681e-07
-1.05707e-06
6.70672e-07
-1.06751e-06
6.6305e-07
-1.07486e-06
6.65247e-07
-1.08639e-06
6.70782e-07
-1.09267e-06
7.25685e-07
-1.10007e-06
7.32777e-07
-1.1106e-06
7.76198e-07
-1.11567e-06
8.43519e-07
-1.12303e-06
8.48396e-07
-1.13512e-06
9.10865e-07
-1.14217e-06
9.65392e-07
-1.15109e-06
9.65357e-07
-1.16612e-06
9.8416e-07
-1.1752e-06
9.9388e-07
-1.18501e-06
9.83096e-07
-1.19493e-06
1.00791e-06
-1.20376e-06
1.02157e-06
-1.21826e-06
1.04801e-06
-1.22768e-06
1.08787e-06
-1.23761e-06
1.09034e-06
-1.25335e-06
1.06861e-06
-1.26302e-06
1.04124e-06
-1.27313e-06
1.03883e-06
-1.2915e-06
1.00084e-06
-1.30439e-06
9.80472e-07
-1.32025e-06
9.75469e-07
-1.34871e-06
9.22317e-07
-1.37123e-06
8.55445e-07
-1.46187e-06
8.38524e-07
-1.71848e-06
8.5104e-08
-1.87586e-06
5.55951e-07
-2.03933e-06
8.97938e-07
-2.15096e-06
1.12379e-06
-2.24087e-06
8.99838e-07
-2.30791e-06
7.03218e-07
-2.3404e-06
3.7058e-07
-2.35028e-06
1.22396e-07
-2.34732e-06
-4.14579e-08
-2.3372e-06
-9.20774e-08
-2.32629e-06
-9.8038e-08
-2.31515e-06
-9.33908e-08
-2.2958e-06
-1.51874e-07
-2.27155e-06
-2.19793e-07
-2.24548e-06
-2.71786e-07
-2.21894e-06
-2.72241e-07
-2.19237e-06
-2.60021e-07
-2.16625e-06
-2.74923e-07
-2.14073e-06
-2.68545e-07
-2.11506e-06
-2.51696e-07
-2.08977e-06
-2.60547e-07
-2.06579e-06
-2.6575e-07
-2.04047e-06
-2.46358e-07
-2.01484e-06
-2.52137e-07
-1.9902e-06
-2.61893e-07
-1.96447e-06
-2.50377e-07
-1.93906e-06
-2.54499e-07
-1.91383e-06
-2.65227e-07
-1.88728e-06
-2.61894e-07
-1.86062e-06
-2.60508e-07
-2.77847e-07
-4.97861e-07
-1.60765e-07
-5.49377e-07
-9.856e-08
-6.94913e-07
5.57651e-07
-8.05741e-07
8.33489e-07
-8.92927e-07
8.8912e-07
-9.77073e-07
7.68284e-07
-1.01149e-06
7.6064e-07
-1.06063e-06
6.9992e-07
-1.08526e-06
7.37601e-07
-1.0978e-06
7.37273e-07
-1.11885e-06
7.5745e-07
-1.12987e-06
7.38186e-07
-1.13614e-06
7.25889e-07
-1.14492e-06
7.2535e-07
-1.14952e-06
7.28947e-07
-1.15702e-06
7.38466e-07
-1.16322e-06
7.98635e-07
-1.16711e-06
8.04959e-07
-1.17495e-06
8.52052e-07
-1.18091e-06
9.25119e-07
-1.18645e-06
9.29246e-07
-1.19683e-06
9.91683e-07
-1.20374e-06
1.0488e-06
-1.21155e-06
1.04797e-06
-1.2254e-06
1.07042e-06
-1.23416e-06
1.08676e-06
-1.24346e-06
1.07602e-06
-1.25312e-06
1.10272e-06
-1.26192e-06
1.11653e-06
-1.27584e-06
1.13435e-06
-1.28487e-06
1.16341e-06
-1.29412e-06
1.16581e-06
-1.30835e-06
1.13804e-06
-1.3171e-06
1.11167e-06
-1.32716e-06
1.10989e-06
-1.34484e-06
1.06893e-06
-1.35699e-06
1.04384e-06
-1.37314e-06
1.03867e-06
-1.40138e-06
9.78669e-07
-1.4241e-06
9.08529e-07
-1.52162e-06
8.9273e-07
-1.77728e-06
2.6971e-07
-1.94137e-06
7.13112e-07
-2.11413e-06
1.06606e-06
-2.2336e-06
1.24325e-06
-2.32805e-06
9.9428e-07
-2.39904e-06
7.7422e-07
-2.43329e-06
4.04818e-07
-2.44273e-06
1.31848e-07
-2.44013e-06
-4.40761e-08
-2.42986e-06
-1.02326e-07
-2.41792e-06
-1.09985e-07
-2.40601e-06
-1.05293e-07
-2.38535e-06
-1.72534e-07
-2.35899e-06
-2.46153e-07
-2.33158e-06
-2.99194e-07
-2.30469e-06
-2.99141e-07
-2.27647e-06
-2.88243e-07
-2.2487e-06
-3.02691e-07
-2.22302e-06
-2.94228e-07
-2.196e-06
-2.78715e-07
-2.16879e-06
-2.87759e-07
-2.14446e-06
-2.90084e-07
-2.11804e-06
-2.7278e-07
-2.0906e-06
-2.79567e-07
-2.06564e-06
-2.86851e-07
-2.03903e-06
-2.76986e-07
-2.0116e-06
-2.81934e-07
-1.98542e-06
-2.91398e-07
-1.95835e-06
-2.88973e-07
-1.93002e-06
-2.88835e-07
-3.06028e-07
-5.28056e-07
-1.3461e-07
-5.87956e-07
-7.81908e-08
-7.40033e-07
5.30714e-07
-8.54227e-07
7.97045e-07
-9.48265e-07
8.56003e-07
-1.03122e-06
7.68508e-07
-1.07041e-06
7.65353e-07
-1.12152e-06
7.31655e-07
-1.14055e-06
7.78585e-07
-1.15583e-06
7.8263e-07
-1.17623e-06
8.04831e-07
-1.18527e-06
7.91283e-07
-1.19274e-06
7.81937e-07
-1.20012e-06
7.86337e-07
-1.20537e-06
7.91746e-07
-1.21337e-06
8.06919e-07
-1.2178e-06
8.68477e-07
-1.22365e-06
8.76861e-07
-1.23159e-06
9.27352e-07
-1.2355e-06
1.00135e-06
-1.24193e-06
1.00729e-06
-1.2523e-06
1.07039e-06
-1.25873e-06
1.12702e-06
-1.26708e-06
1.12698e-06
-1.28104e-06
1.15293e-06
-1.28989e-06
1.17235e-06
-1.29959e-06
1.16284e-06
-1.30929e-06
1.18953e-06
-1.31846e-06
1.20223e-06
-1.33274e-06
1.21419e-06
-1.34183e-06
1.23371e-06
-1.3512e-06
1.23569e-06
-1.36544e-06
1.20438e-06
-1.37429e-06
1.1777e-06
-1.38437e-06
1.17566e-06
-1.40215e-06
1.13296e-06
-1.41473e-06
1.10354e-06
-1.43088e-06
1.09739e-06
-1.45951e-06
1.03301e-06
-1.48376e-06
9.60232e-07
-1.5868e-06
9.44976e-07
-1.84276e-06
4.58622e-07
-2.01572e-06
8.78825e-07
-2.19754e-06
1.24312e-06
-2.32475e-06
1.37047e-06
-2.42565e-06
1.09517e-06
-2.49962e-06
8.48204e-07
-2.53532e-06
4.40497e-07
-2.5458e-06
1.42342e-07
-2.5427e-06
-4.71933e-08
-2.53164e-06
-1.13372e-07
-2.52002e-06
-1.21607e-07
-2.50689e-06
-1.18414e-07
-2.48377e-06
-1.95653e-07
-2.45619e-06
-2.73732e-07
-2.42758e-06
-3.27806e-07
-2.39894e-06
-3.27779e-07
-2.36967e-06
-3.1752e-07
-2.34104e-06
-3.31322e-07
-2.31359e-06
-3.21682e-07
-2.28543e-06
-3.06874e-07
-2.2576e-06
-3.15601e-07
-2.23172e-06
-3.15959e-07
-2.20406e-06
-3.00441e-07
-2.17592e-06
-3.07698e-07
-2.14944e-06
-3.13339e-07
-2.1214e-06
-3.05018e-07
-2.09334e-06
-3.09997e-07
-2.06598e-06
-3.18758e-07
-2.03722e-06
-3.17731e-07
-2.00787e-06
-3.18178e-07
-3.35108e-07
-5.89449e-07
-1.07056e-07
-6.5794e-07
-5.70916e-08
-8.27237e-07
4.94372e-07
-9.51151e-07
7.56326e-07
-1.04562e-06
8.16707e-07
-1.13264e-06
7.67299e-07
-1.16739e-06
7.69515e-07
-1.2122e-06
7.6502e-07
-1.2319e-06
8.19916e-07
-1.24062e-06
8.21302e-07
-1.25499e-06
8.48763e-07
-1.26246e-06
8.44218e-07
-1.2665e-06
8.36047e-07