/*--------------------------------*- C++ -*----------------------------------*\
| =========                 |                                                 |
| \\      /  F ield         | OpenFOAM: The Open Source CFD Toolbox           |
|  \\    /   O peration     | Version:  v2012                                 |
|   \\  /    A nd           | Website:  www.openfoam.com                      |
|    \\/     M anipulation  |                                                 |
\*---------------------------------------------------------------------------*/
FoamFile
{
    version     2.0;
    format      ascii;
    class       volScalarField;
    location    "1e-06";
    object      pMean;
}
// * * * * * * * * * * * * * * * * * * * * * * * * * * * * * * * * * * * * * //

dimensions      [1 -1 -2 0 0 0 0];


internalField   nonuniform List<scalar> 
10248
(
2092.08
2068.84
1945.99
1981.8
1933.57
2000.76
2000.41
2001.23
1998.49
2000.81
2000.72
2001.4
2001.08
2001.03
2001.8
2001.18
2000.8
2000.71
3366
2001.01
2000.46
1999.44
1999.29
1996.84
1998.32
2001.01
2000.41
2000.84
2000.9
1994.35
1867.76
1944.8
1972.99
1977.2
1944.74
2006.03
2000.53
2000.77
1992.66
1952.07
1953.69
3184.42
163310
378172
690479
1.01769e+06
1.37421e+06
1.7597e+06
2.14984e+06
2.54068e+06
2.92777e+06
3.30677e+06
3.68229e+06
4.05705e+06
4.42608e+06
4.79035e+06
5.14481e+06
5.48844e+06
5.82712e+06
6.15608e+06
6.47558e+06
6.79172e+06
7.09915e+06
7.39853e+06
7.69769e+06
7.98614e+06
8.2684e+06
8.54939e+06
8.82412e+06
9.09222e+06
9.35832e+06
9.62495e+06
2056.95
2013.25
1946.63
1857.58
1810.34
1777.83
1664.92
1769.36
1779.99
1818.14
1814
1626.47
1687.18
1590.8
1521.77
1707.67
1655.73
1616.92
1823.05
1651.7
1647.82
1733.48
1633.6
1691.49
1772.89
1657.57
1742.47
1789.25
1655.06
1741.16
1738.8
1794.39
1906.96
1889.6
1836
1934.79
1920.13
1915.42
1965.37
1939.57
1924.5
2690.61
163132
377806
689972
1.01684e+06
1.37281e+06
1.75825e+06
2.14936e+06
2.54021e+06
2.92722e+06
3.30678e+06
3.68197e+06
4.05641e+06
4.42607e+06
4.79034e+06
5.14441e+06
5.48844e+06
5.82707e+06
6.15579e+06
6.47547e+06
6.7917e+06
7.09917e+06
7.39829e+06
7.69666e+06
7.98578e+06
8.2679e+06
8.54936e+06
8.82383e+06
9.09144e+06
9.35787e+06
9.62454e+06
2011.56
2002.32
1968.62
1920.63
1868.24
1832.34
1700.33
1798.56
1811.84
1855.68
1868.53
1674.38
1709.37
1815.23
1563.99
1729.21
1676
1624
1818.17
1689.52
1662.7
1755.89
1687.13
1721.62
1813.96
1710.52
1751.76
1801.25
1678.97
1734.38
1782.44
1839.87
1929.8
1916.55
1850.51
1914.11
1903.06
1900.54
1958.22
1950.72
1938.32
2049.45
162617
377203
688676
1.01521e+06
1.37117e+06
1.75653e+06
2.14772e+06
2.53954e+06
2.92656e+06
3.30655e+06
3.68174e+06
4.05595e+06
4.42604e+06
4.79036e+06
5.1444e+06
5.4884e+06
5.82705e+06
6.15577e+06
6.47543e+06
6.79169e+06
7.09913e+06
7.39828e+06
7.69634e+06
7.98577e+06
8.26764e+06
8.54932e+06
8.82382e+06
9.09092e+06
9.35743e+06
9.62428e+06
2004.37
2002.47
1965.41
1919.24
1875.74
1830.52
1710.09
1808.04
1804.35
1870.33
1894.57
1689.47
1713.63
1783.87
1590.65
1730.81
1678.93
1664.18
1799.69
1685.08
1677.97
1761.64
1699.7
1735.3
1820.53
1732.94
1743.77
1765.57
1678.33
1724.63
1786.69
1856.35
1932.24
1895.34
1840.92
1853.83
1841.65
1861.66
1928.92
1916.76
1927.84
1999.28
162576
376894
687415
1.01341e+06
1.36939e+06
1.75473e+06
2.14591e+06
2.53851e+06
2.92579e+06
3.30612e+06
3.68154e+06
4.05566e+06
4.42604e+06
4.79039e+06
5.14443e+06
5.48839e+06
5.82706e+06
6.15579e+06
6.47543e+06
6.79169e+06
7.09917e+06
7.39828e+06
7.69605e+06
7.98579e+06
8.26762e+06
8.54931e+06
8.82383e+06
9.09081e+06
9.35726e+06
9.62427e+06
2007.6
2004.03
1943.3
1858.05
1822.24
1797.03
1671.12
1814.41
1768.4
1827.14
1895.9
1683.87
1696.68
1743.17
1580.46
1715.1
1665.41
1666.95
1756.9
1650.73
1654.51
1740.47
1677.83
1705.17
1787.99
1697.45
1696.44
1687.38
1627.34
1698.1
1738.02
1795.2
1873.53
1827.13
1774.63
1782.15
1763.59
1775.99
1877.6
1860.96
1877.3
1991.38
162559
376350
686185
1.01144e+06
1.36743e+06
1.75276e+06
2.14397e+06
2.53696e+06
2.9248e+06
3.30561e+06
3.68132e+06
4.05544e+06
4.42609e+06
4.79044e+06
5.14446e+06
5.48841e+06
5.8271e+06
6.15582e+06
6.47544e+06
6.79172e+06
7.09921e+06
7.3983e+06
7.69606e+06
7.98583e+06
8.26762e+06
8.54933e+06
8.82386e+06
9.09081e+06
9.35724e+06
9.62429e+06
2001.05
2000.65
1972.98
1918.27
1868.37
1852.37
1721.24
1855
1788.09
1831.87
1919.03
1718.03
1715.47
1742.34
1614.16
1722.43
1674.02
1668.76
1741.97
1669.91
1664.09
1742.29
1706.61
1726.06
1796.1
1726.46
1717.47
1705.45
1669.02
1743.7
1791.01
1835.99
1900.28
1865.94
1829.21
1803.81
1829.58
1838.44
1896.58
1894.65
1913.96
1993.72
163023
376671
685426
1.00935e+06
1.36536e+06
1.75067e+06
2.14199e+06
2.53509e+06
2.92368e+06
3.30496e+06
3.68106e+06
4.05523e+06
4.42614e+06
4.79052e+06
5.1445e+06
5.48842e+06
5.82714e+06
6.15586e+06
6.47545e+06
6.79174e+06
7.09926e+06
7.3983e+06
7.69605e+06
7.98586e+06
8.2676e+06
8.54932e+06
8.82386e+06
9.09077e+06
9.35716e+06
9.62427e+06
1997.67
2000.43
1973.61
1916.32
1869.74
1866.63
1744.16
1868.67
1778.82
1826.11
1924.78
1724.35
1720.05
1729.72
1630.39
1716.4
1664.56
1668.19
1721.03
1659.09
1663.23
1732.48
1707.79
1731.07
1787.27
1723.46
1717
1695.41
1674.96
1750.47
1803.63
1849.84
1911.56
1863.27
1840.54
1816.83
1847.69
1862.9
1906.19
1906.26
1933.99
1996.78
163190
377167
684448
1.00702e+06
1.36309e+06
1.74845e+06
2.13985e+06
2.53314e+06
2.92241e+06
3.3042e+06
3.6808e+06
4.05517e+06
4.42622e+06
4.79062e+06
5.14458e+06
5.48848e+06
5.82722e+06
6.15594e+06
6.47549e+06
6.79178e+06
7.09933e+06
7.39833e+06
7.69608e+06
7.98591e+06
8.26761e+06
8.54933e+06
8.8239e+06
9.09077e+06
9.35714e+06
9.62429e+06
2000.18
2000.41
1988.94
1921.45
1875.46
1886.74
1761.07
1885.95
1774.93
1804.15
1919.59
1723.1
1711.75
1712.19
1629.86
1703.22
1652.02
1657.17
1700.45
1642.39
1650.86
1718.62
1698.77
1719.09
1767.3
1709.96
1705.86
1684.8
1674.05
1750.28
1803.35
1835.8
1893.82
1838.22
1824.66
1820.85
1848.51
1860.81
1906.97
1908.21
1937.44
2047.01
164008
378046
683159
1.00446e+06
1.3606e+06
1.74605e+06
2.13757e+06
2.53109e+06
2.92095e+06
3.30334e+06
3.68051e+06
4.05523e+06
4.42628e+06
4.79073e+06
5.14469e+06
5.48856e+06
5.82731e+06
6.15603e+06
6.47554e+06
6.79184e+06
7.09942e+06
7.39837e+06
7.69612e+06
7.98598e+06
8.26763e+06
8.54936e+06
8.82394e+06
9.09079e+06
9.35715e+06
9.62432e+06
1993.16
2000.41
1996.99
1925.19
1896.89
1903.12
1781.48
1892.75
1759.05
1784.97
1908.92
1709.82
1699.65
1691.68
1621.9
1688.02
1628.79
1637.13
1687.49
1617.5
1633.08
1700.91
1673.73
1699.27
1740.16
1680.04
1684.18
1662.62
1655.41
1736.03
1787.27
1814.6
1876.98
1817.36
1811.57
1825.39
1838.86
1853.74
1910.98
1905.62
1940.92
4075.88
165224
378703
681408
1.00166e+06
1.35789e+06
1.74346e+06
2.13517e+06
2.52899e+06
2.91931e+06
3.3024e+06
3.68024e+06
4.05531e+06
4.4264e+06
4.79086e+06
5.14483e+06
5.48867e+06
5.82743e+06
6.15614e+06
6.47561e+06
6.79192e+06
7.09952e+06
7.39842e+06
7.69617e+06
7.98605e+06
8.26766e+06
8.54939e+06
8.824e+06
9.09081e+06
9.35716e+06
9.62435e+06
2000.13
2000.2
1992.27
1894.86
1886.64
1904.65
1772.26
1891.11
1737.12
1734.72
1877.62
1674.64
1662.14
1655.51
1585.43
1651.9
1588.99
1587.3
1654.47
1569.78
1580.94
1663.19
1620.36
1645.41
1686.88
1610.99
1627.17
1602.75
1584.41
1684.09
1732.21
1741.49
1822.8
1758.12
1747.96
1794.52
1788.99
1797.83
1886.5
1868.89
1905.29
7234.35
166264
379014
679204
998536
1.35494e+06
1.74069e+06
2.1327e+06
2.52681e+06
2.91742e+06
3.30139e+06
3.67995e+06
4.0554e+06
4.42654e+06
4.79102e+06
5.14501e+06
5.4888e+06
5.82757e+06
6.15628e+06
6.4757e+06
6.79202e+06
7.09964e+06
7.39849e+06
7.69624e+06
7.98615e+06
8.26772e+06
8.54945e+06
8.82407e+06
9.09086e+06
9.35719e+06
9.62441e+06
2000.14
2000.28
2000.42
2000.08
1983.89
1986.56
1863.09
1938.66
1791.85
1759.44
1882.04
1707.93
1682.73
1679.25
1621.62
1667.64
1627.13
1618.42
1672.62
1622.31
1624.49
1691.97
1674.86
1688.39
1726.44
1680.09
1685.55
1682.1
1677.76
1749.89
1798.57
1805.09
1857.06
1830.15
1826.33
1856.29
1864.61
1872.5
1927.42
1922.14
1961.6
11459.5
167028
378732
676679
995200
1.35181e+06
1.73778e+06
2.13012e+06
2.52458e+06
2.91551e+06
3.30016e+06
3.67948e+06
4.05554e+06
4.42671e+06
4.79124e+06
5.1452e+06
5.48895e+06
5.82772e+06
6.15643e+06
6.4758e+06
6.79213e+06
7.09976e+06
7.39857e+06
7.69631e+06
7.98625e+06
8.26777e+06
8.5495e+06
8.82413e+06
9.09089e+06
9.3572e+06
9.62443e+06
1994.08
2000.29
2000.56
2000.5
2000.46
2000.48
1939.67
1975.26
1821.34
1783.3
1879.57
1723.57
1698.3
1690.59
1643.95
1676.62
1644.09
1638.81
1679.16
1644.74
1650.17
1706.99
1698.18
1710.74
1744.64
1710.86
1715.54
1721.42
1721.81
1784.01
1825.54
1832.21
1873.18
1859.99
1859.99
1885.32
1894.37
1902.35
1944.06
1940.31
1977.07
14831
167292
377793
673204
991499
1.3484e+06
1.73462e+06
2.12736e+06
2.52224e+06
2.91361e+06
3.29889e+06
3.67902e+06
4.05566e+06
4.42684e+06
4.7915e+06
5.14544e+06
5.48913e+06
5.82793e+06
6.15661e+06
6.47594e+06
6.79227e+06
7.09992e+06
7.39868e+06
7.6964e+06
7.98637e+06
8.26786e+06
8.54958e+06
8.82424e+06
9.09095e+06
9.35723e+06
9.6245e+06
2000.12
2000.4
2000.77
2000.66
2000.55
2000.66
1974.5
1990.87
1843.68
1792.69
1868.71
1732.68
1705.12
1697.76
1658.32
1680.12
1658.5
1650.49
1685.39
1664.92
1667.09
1718.64
1716.85
1725.42
1757.48
1734.08
1736.22
1748.23
1750.24
1804.01
1841.25
1845.6
1880.68
1872.9
1873.75
1898.02
1904.19
1911.43
1949.56
1944.43
1980.05
18209.4
167372
376313
669107
987377
1.3447e+06
1.73127e+06
2.12444e+06
2.51981e+06
2.91163e+06
3.29757e+06
3.67859e+06
4.0558e+06
4.42705e+06
4.79179e+06
5.14572e+06
5.48937e+06
5.82817e+06
6.15684e+06
6.4761e+06
6.79243e+06
7.10011e+06
7.39881e+06
7.69652e+06
7.98651e+06
8.26796e+06
8.54967e+06
8.82436e+06
9.09104e+06
9.35729e+06
9.62458e+06
1994.71
2000.41
2000.92
2000.88
2000.84
2000.83
2000.24
2000.25
1860.32
1812.58
1862.7
1740.94
1717.36
1704.31
1673.38
1687.06
1669.35
1666.04
1692.64
1678.89
1685.3
1730.79
1730.95
1741.13
1771.1
1754.22
1758.22
1774.73
1777.92
1827.18
1857.28
1861.34
1892.6
1887.11
1889.06
1912.19
1917.04
1923.8
1956.5
1951.25
1984.37
21383.1
166986
374068
664534
982810
1.34062e+06
1.72768e+06
2.12136e+06
2.51728e+06
2.90962e+06
3.29624e+06
3.67816e+06
4.05599e+06
4.42735e+06
4.79212e+06
5.14604e+06
5.48965e+06
5.82845e+06
6.1571e+06
6.4763e+06
6.79262e+06
7.10031e+06
7.39896e+06
7.69666e+06
7.98667e+06
8.26808e+06
8.54978e+06
8.82449e+06
9.09115e+06
9.35736e+06
9.62467e+06
2000.13
2000.51
2001.09
2001.01
2000.87
2000.9
2000.22
2000.16
1870.54
1818.68
1851.5
1747.45
1724.27
1711.21
1685.97
1692.27
1682.7
1678.67
1699.97
1697.33
1701.9
1743.67
1748.74
1756.67
1785.82
1775.65
1778.82
1797.04
1800.09
1843.64
1868.26
1871.02
1898.39
1893.56
1896.32
1918.36
1920.65
1927.99
1958.32
1951.95
1986.18
24035.1
166110
371024
659407
977762
1.33618e+06
1.72382e+06
2.1181e+06
2.51467e+06
2.90759e+06
3.29478e+06
3.67774e+06
4.05627e+06
4.4277e+06
4.79252e+06
5.14642e+06
5.48998e+06
5.82877e+06
6.15741e+06
6.47654e+06
6.79285e+06
7.10055e+06
7.39914e+06
7.69682e+06
7.98686e+06
8.26823e+06
8.54991e+06
8.82465e+06
9.09128e+06
9.35746e+06
9.62479e+06
1999.45
2000.56
2001.24
2001.18
2001.08
2000.99
2000.43
2000.28
1880.98
1836.89
1850.3
1759.83
1739.91
1723.38
1706.43
1706.25
1700.67
1701.66
1716.61
1719.49
1727.21
1763.71
1771.27
1779.64
1807.4
1802.53
1806.41
1825.71
1829.32
1866.51
1884.42
1886.67
1909.29
1905.92
1909.03
1929.19
1930.57
1937.29
1963.89
1957.66
1989.01
26080.7
164664
367115
653669
972187
1.33135e+06
1.71964e+06
2.11466e+06
2.51196e+06
2.90552e+06
3.29335e+06
3.67732e+06
4.05659e+06
4.42813e+06
4.79299e+06
5.14684e+06
5.49035e+06
5.82914e+06
6.15776e+06
6.47682e+06
6.79312e+06
7.10082e+06
7.39935e+06
7.69701e+06
7.98706e+06
8.2684e+06
8.55007e+06
8.82483e+06
9.09144e+06
9.35758e+06
9.62492e+06
2000.16
2000.61
2001.36
2001.25
2001.1
2001.01
2000.36
2000.16
1894.43
1849.91
1849.36
1780.76
1758.65
1744.21
1736.44
1725.84
1733.32
1735.77
1738.64
1760.87
1765.52
1791.93
1810.85
1813.93
1837.06
1840.88
1838.93
1855.21
1861.18
1887.12
1900.27
1903.98
1918.8
1916.8
1921.99
1936.74
1937.89
1946.34
1967.68
1962.04
1990.97
27575.9
162585
362401
647244
966019
1.32608e+06
1.71515e+06
2.11103e+06
2.50914e+06
2.90343e+06
3.29194e+06
3.67697e+06
4.05701e+06
4.42863e+06
4.79352e+06
5.14733e+06
5.49076e+06
5.82956e+06
6.15815e+06
6.47714e+06
6.79343e+06
7.10114e+06
7.3996e+06
7.69723e+06
7.9873e+06
8.2686e+06
8.55024e+06
8.82503e+06
9.09161e+06
9.35771e+06
9.62506e+06
2000.47
2000.89
2001.27
2000.99
2000.94
2000.97
2000.44
2000.41
1923.94
1890.51
1872.33
1831.66
1805.1
1793.36
1805.35
1777.18
1804.6
1817.44
1798.49
1849.88
1853.05
1858.83
1904.93
1895.57
1910.1
1938.56
1917.01
1931.47
1952.62
1946.24
1958.33
1969.74
1959.57
1968.22
1977.44
1971.26
1981.49
1990.03
1993.11
1996.88
2003.62
28411.2
159797
356796
639987
959200
1.32034e+06
1.71032e+06
2.10721e+06
2.50623e+06
2.90127e+06
3.29076e+06
3.67668e+06
4.0575e+06
4.42919e+06
4.79411e+06
5.14788e+06
5.49123e+06
5.83003e+06
6.15859e+06
6.47752e+06
6.79379e+06
7.10148e+06
7.39988e+06
7.69748e+06
7.98756e+06
8.26881e+06
8.55044e+06
8.82525e+06
9.09181e+06
9.35786e+06
9.62521e+06
2000.04
2000.65
2001.5
2001.34
2001.23
2001.02
2000.44
2000.18
1892.24
1862.9
1841.95
1783.86
1770.85
1752.68
1750.67
1742.1
1751.68
1758.2
1767.22
1789.85
1796.72
1823.73
1839.94
1844.67
1868.3
1871.34
1872.01
1886.9
1889.73
1909.16
1916.7
1917.23
1928.87
1929.9
1931.4
1945.41
1947.46
1950.51
1970.37
1968.11
1990.95
28327.5
156098
350658
631647
951498
1.31393e+06
1.70508e+06
2.10319e+06
2.50323e+06
2.89911e+06
3.28992e+06
3.67704e+06
4.05792e+06
4.42968e+06
4.79473e+06
5.1485e+06
5.49176e+06
5.83055e+06
6.15909e+06
6.47794e+06
6.7942e+06
7.10188e+06
7.40022e+06
7.69779e+06
7.98789e+06
8.26909e+06
8.55069e+06
8.82551e+06
9.09204e+06
9.35805e+06
9.62543e+06
2000.11
2000.67
2001.48
2001.32
2001.22
2001
2000.44
2000.17
1879.05
1850.53
1829.1
1768.07
1760.52
1743.83
1736.13
1738.3
1744.9
1749.29
1774.03
1786.44
1794.88
1830.83
1837.29
1845.82
1870.69
1868
1874.7
1886.47
1884.36
1908.32
1911.4
1910.89
1926.81
1923.28
1925.25
1943.38
1940.04
1944.67
1966.89
1960.02
1989.33
27459.7
151651
342711
622309
942972
1.30686e+06
1.69949e+06
2.09895e+06
2.50016e+06
2.89701e+06
3.2889e+06
3.6774e+06
4.05845e+06
4.4303e+06
4.79544e+06
5.14919e+06
5.49237e+06
5.83113e+06
6.15965e+06
6.47842e+06
6.79465e+06
7.10233e+06
7.40059e+06
7.69814e+06
7.98825e+06
8.26939e+06
8.55095e+06
8.8258e+06
9.0923e+06
9.35826e+06
9.62565e+06
1987.36
2000.5
2001.5
2001.31
2001.22
2000.98
2000.43
2000.17
1878.74
1847.95
1823.48
1764.97
1759.83
1744.74
1736.12
1742.7
1753.4
1757.28
1786.95
1801.73
1809.91
1844.78
1852.46
1860.56
1884.21
1882.89
1888.53
1899.68
1897.55
1916.03
1918.46
1917.14
1929.61
1927.67
1928.36
1943.91
1941.8
1944.75
1964.84
1960.17
1987.79
25742.8
145797
333505
611862
933532
1.2991e+06
1.69352e+06
2.09452e+06
2.49703e+06
2.89486e+06
3.28799e+06
3.67791e+06
4.05901e+06
4.43099e+06
4.79626e+06
5.14998e+06
5.49307e+06
5.83179e+06
6.16028e+06
6.47896e+06
6.79517e+06
7.10284e+06
7.40102e+06
7.69854e+06
7.98865e+06
8.26975e+06
8.55126e+06
8.82612e+06
9.09259e+06
9.35852e+06
9.62591e+06
1986.56
2000.52
2001.5
2001.2
2001.15
2000.91
2000.43
2000.22
1886.23
1853.75
1828.21
1775.03
1770.83
1758.45
1750.76
1759.08
1772.92
1777.46
1804.82
1821.79
1830.35
1860.02
1867.11
1875.75
1893.94
1892.32
1899.04
1905.41
1903.71
1920.16
1918.94
1919.23
1930.78
1926.19
1929.39
1942.79
1937.98
1943.89
1962.23
1955.33
1985.98
23108.7
138693
322868
600174
923072
1.29052e+06
1.68714e+06
2.08985e+06
2.49383e+06
2.8928e+06
3.28692e+06
3.67838e+06
4.05982e+06
4.43186e+06
4.79717e+06
5.15089e+06
5.49388e+06
5.83255e+06
6.161e+06
6.47958e+06
6.79574e+06
7.10341e+06
7.40152e+06
7.69898e+06
7.98911e+06
8.27016e+06
8.55161e+06
8.82649e+06
9.09295e+06
9.35881e+06
9.6262e+06
1936.99
1997.33
2001.25
2001.07
2001.04
2000.87
2000.41
2000.25
1897.85
1865.08
1840.11
1791.41
1787.83
1777.95
1772.1
1782.16
1796.89
1802.73
1829.85
1844.89
1853.53
1880.7
1885.65
1893.05
1909.31
1906.93
1912.36
1917.62
1915.64
1927.96
1925.07
1924.1
1933.96
1929.23
1930.88
1943.8
1939.26
1943.63
1961.68
1955.46
1983.86
19774.8
130618
310635
587020
911516
1.28103e+06
1.68031e+06
2.08499e+06
2.49058e+06
2.89068e+06
3.28613e+06
3.67909e+06
4.06079e+06
4.43283e+06
4.79821e+06
5.15191e+06
5.49481e+06
5.83343e+06
6.16183e+06
6.48028e+06
6.7964e+06
7.10405e+06
7.40208e+06
7.69948e+06
7.98962e+06
8.27063e+06
8.55202e+06
8.82692e+06
9.09336e+06
9.35916e+06
9.62654e+06
1944.1
1995.2
2001.45
2000.96
2000.97
2000.76
2000.43
2000.34
1931.34
1894.55
1864.56
1827.43
1819.11
1809.01
1810.9
1810.56
1829.54
1837.88
1846.43
1870.69
1879.49
1892.95
1902.98
1909.83
1916.9
1918.96
1923.06
1922.82
1925.01
1932.89
1927.34
1931.22
1935.32
1929.72
1936.65
1942.71
1938.67
1948.81
1959.56
1953.85
1983.77
15711.3
121238
296356
572246
898735
1.27064e+06
1.67302e+06
2.07989e+06
2.48728e+06
2.8887e+06
3.28525e+06
3.67993e+06
4.06183e+06
4.434e+06
4.79937e+06
5.15306e+06
5.49585e+06
5.83442e+06
6.16276e+06
6.48109e+06
6.79713e+06
7.10477e+06
7.40273e+06
7.70005e+06
7.9902e+06
8.27116e+06
8.55249e+06
8.8274e+06
9.09382e+06
9.35956e+06
9.62691e+06
2000.91
2001.12
2001.34
2000.76
2000.79
2000.77
2000.5
2000.54
1991.83
1954.88
1926.81
1913.03
1890.85
1889.32
1907.45
1887.28
1915.26
1926.85
1918.82
1947.93
1949.81
1950.05
1969.61
1964.21
1967.06
1979.58
1968.14
1969.4
1980.3
1970.38
1970.43
1979.35
1968.37
1971.86
1980.52
1972.84
1978.06
1987.09
1986.14
1988.57
2000.61
11163.2
110528
279880
555648
884603
1.25927e+06
1.66521e+06
2.07461e+06
2.48393e+06
2.88661e+06
3.28501e+06
3.68097e+06
4.06291e+06
4.4353e+06
4.80064e+06
5.15434e+06
5.49704e+06
5.83555e+06
6.1638e+06
6.482e+06
6.79797e+06
7.10556e+06
7.40344e+06
7.70069e+06
7.99082e+06
8.27176e+06
8.55302e+06
8.82793e+06
9.09434e+06
9.36001e+06
9.62733e+06
1857.22
1881.39
2000.68
2000.58
2000.66
2000.75
2000.44
2000.42
1966.63
1913.81
1893
1854.2
1842.76
1842.52
1840.17
1843.12
1863.18
1866.31
1883.66
1897.51
1901.08
1916.64
1922.19
1924.4
1934.35
1931.41
1931.42
1934.78
1932.17
1934.49
1933.2
1931.21
1932.79
1934.17
1933.99
1939.95
1942.89
1944.55
1955.91
1956.54
1973.56
6364.88
97645.4
260408
536691
868687
1.24659e+06
1.65678e+06
2.06904e+06
2.48052e+06
2.88471e+06
3.28546e+06
3.68229e+06
4.06436e+06
4.43667e+06
4.80224e+06
5.15584e+06
5.49838e+06
5.8368e+06
6.16499e+06
6.48306e+06
6.79895e+06
7.10647e+06
7.40427e+06
7.70145e+06
7.99157e+06
8.27244e+06
8.55364e+06
8.82855e+06
9.09493e+06
9.36054e+06
9.62785e+06
1863.45
1877.31
2001.35
2000.55
2000.69
2000.66
2000.47
2000.55
1990.67
1937.31
1918.13
1861.33
1854.43
1850.56
1844.02
1854.45
1867.29
1870.93
1887.35
1898.11
1904.51
1917.51
1919.82
1926.1
1930.64
1926.43
1931.32
1928.86
1926.39
1931.17
1924.92
1924.61
1928.92
1925.14
1927.48
1935.35
1933.46
1938.52
1950.48
1946.62
1964.07
2027.62
82600.7
238086
515432
851174
1.23277e+06
1.64782e+06
2.0632e+06
2.47713e+06
2.88319e+06
3.28574e+06
3.6836e+06
4.06607e+06
4.43843e+06
4.80402e+06
5.15751e+06
5.49987e+06
5.83819e+06
6.16631e+06
6.48424e+06
6.80003e+06
7.10751e+06
7.40519e+06
7.70228e+06
7.99239e+06
8.2732e+06
8.5543e+06
8.82923e+06
9.0956e+06
9.36113e+06
9.6284e+06
1725.63
1737.53
1975.7
1977.35
2000.22
2000.48
2000.33
2000.58
1993.56
1949.89
1934.44
1869.61
1865.36
1865.46
1858.51
1872.04
1881.65
1886.99
1902.55
1907.73
1915.02
1927.04
1925.55
1931.43
1935.84
1929.19
1933.06
1929.81
1925.92
1929.9
1924.28
1923.03
1927.54
1924.62
1926.03
1934.09
1932.44
1936.29
1948.23
1944.46
1957.55
1997.26
68168.5
214226
491588
831935
1.21763e+06
1.63828e+06
2.05716e+06
2.47374e+06
2.88168e+06
3.28697e+06
3.68536e+06
4.06801e+06
4.44042e+06
4.80602e+06
5.15937e+06
5.50154e+06
5.83974e+06
6.16778e+06
6.48558e+06
6.80125e+06
7.10868e+06
7.40625e+06
7.70322e+06
7.99332e+06
8.27407e+06
8.55507e+06
8.82999e+06
9.09634e+06
9.36179e+06
9.62901e+06
1791.38
1778.33
1984.42
1973.65
2000.29
2000.46
2000.4
2000.73
2000.12
1997.2
1979.18
1908.91
1897.19
1884.81
1882.96
1890.03
1893.62
1903.25
1906.65
1915.4
1925.45
1926.78
1930.38
1938.19
1932.23
1931.31
1935.61
1925.46
1929
1929.62
1920.12
1926.7
1925.58
1920.7
1930.1
1930.78
1927.99
1940.23
1943.66
1939.4
1959.23
1989.28
50795.9
188620
464635
810899
1.20104e+06
1.62816e+06
2.05088e+06
2.47043e+06
2.88069e+06
3.2886e+06
3.68714e+06
4.07013e+06
4.44278e+06
4.80824e+06
5.16147e+06
5.50342e+06
5.84146e+06
6.16942e+06
6.48707e+06
6.80262e+06
7.11e+06
7.40747e+06
7.70428e+06
7.99435e+06
8.27506e+06
8.55593e+06
8.83084e+06
9.0972e+06
9.36255e+06
9.6297e+06
2007.23
2004.84
2019.27
2000.87
2000.85
2000.67
2000.61
2000.85
2000.36
2000.23
2000.2
1990.7
1964.1
1957.13
1960.8
1950.04
1956.69
1964.34
1957.1
1969.28
1971.68
1968.46
1978.73
1975.85
1972.23
1980.65
1971.98
1968.77
1978.45
1966.09
1966.48
1975.54
1962.5
1967.11
1975.7
1965.14
1971.57
1980.5
1974.52
1979.45
1992.01
2000.43
34986.3
159211
434478
787399
1.18279e+06
1.61741e+06
2.04453e+06
2.46715e+06
2.8795e+06
3.29069e+06
3.68939e+06
4.07279e+06
4.44537e+06
4.81063e+06
5.16376e+06
5.50554e+06
5.8434e+06
6.17124e+06
6.48874e+06
6.80417e+06
7.11143e+06
7.40882e+06
7.70551e+06
7.99548e+06
8.27615e+06
8.55694e+06
8.83177e+06
9.09812e+06
9.36342e+06
9.63046e+06
1548.2
1520.63
1823.2
1797.01
1824.38
1977.84
1988.18
2000.56
2000.16
1994.6
1999.99
1919.55
1896.65
1904.18
1892.37
1903.05
1907.64
1909.74
1916.48
1920.94
1924.48
1929.57
1929.64
1931.41
1933.16
1929.17
1928.45
1928.46
1926.28
1923.63
1925.2
1924.22
1921.71
1925.96
1926.58
1926.98
1932.55
1934.71
1938.75
1942.29
1947.48
1976.96
19653.9
128446
399158
761009
1.16232e+06
1.60591e+06
2.03798e+06
2.46393e+06
2.87884e+06
3.29321e+06
3.69245e+06
4.07568e+06
4.44811e+06
4.81346e+06
5.16634e+06
5.50795e+06
5.84564e+06
6.17326e+06
6.49066e+06
6.80592e+06
7.11305e+06
7.41033e+06
7.70689e+06
7.99676e+06
8.27738e+06
8.55807e+06
8.83286e+06
9.09917e+06
9.36441e+06
9.63137e+06
1745.01
1612.85
2002.24
1842.28
1866.64
1984.37
1992.43
2000.9
2000.29
2000.17
2000.22
1958.64
1935.39
1924.14
1908.68
1926.97
1912.35
1916.7
1923.19
1920.2
1927.5
1927.44
1927.14
1932.69
1925.96
1925.57
1929.01
1921.05
1922.8
1922.05
1917.98
1921.25
1919.16
1918.74
1923.91
1923.36
1924.98
1932.02
1933.7
1934.02
1944.28
1962.8
4764.53
93341.9
358350
731699
1.13984e+06
1.59393e+06
2.03124e+06
2.4609e+06
2.87939e+06
3.29632e+06
3.69564e+06
4.07889e+06
4.45143e+06
4.81653e+06
5.16923e+06
5.51059e+06
5.8481e+06
6.17558e+06
6.49276e+06
6.80784e+06
7.11485e+06
7.412e+06
7.70839e+06
7.99819e+06
8.27875e+06
8.55931e+06
8.83406e+06
9.10036e+06
9.36549e+06
9.63236e+06
2002.18
2001.32
2888.97
2004.04
2002.48
2000.91
2000.77
2001.02
2000.5
2000.44
2000.49
2000.13
1999.52
1993.53
1986.81
1982.43
1966.15
1979.3
1966.06
1965.17
1974.84
1968.27
1974.85
1973.29
1967.88
1977.06
1968.55
1966.23
1975.09
1961.52
1964.19
1972.76
1958.37
1964.24
1972.61
1960.06
1967.65
1976.19
1967.26
1973.9
1983.83
1986.63
2002.69
62939.6
312673
699288
1.11525e+06
1.58139e+06
2.02461e+06
2.45805e+06
2.8805e+06
3.29958e+06
3.69941e+06
4.08281e+06
4.455e+06
4.81985e+06
5.17239e+06
5.51356e+06
5.85082e+06
6.1781e+06
6.49512e+06
6.80999e+06
7.11684e+06
7.41385e+06
7.71007e+06
7.99974e+06
8.28024e+06
8.5607e+06
8.83538e+06
9.10164e+06
9.36671e+06
9.63343e+06
1588.75
1312.43
1678.77
1566.51
1571.98
1769.19
1749.78
1993.5
1986.33
1950.36
2000.16
1943.26
1892.58
1921.74
1892.33
1913.22
1910.55
1902.09
1901.99
1910.74
1908.27
1913.85
1917.66
1913.69
1919.98
1919.53
1914.1
1921.67
1917.57
1908.93
1920
1916.07
1907.69
1921.21
1917.87
1912.46
1927.36
1924.74
1922.62
1935.31
1934.14
1940.63
1981.95
32129.5
269389
662454
1.08786e+06
1.56827e+06
2.018e+06
2.45541e+06
2.88396e+06
3.30343e+06
3.70362e+06
4.08708e+06
4.45914e+06
4.82378e+06
5.17595e+06
5.51685e+06
5.85387e+06
6.18092e+06
6.49775e+06
6.81241e+06
7.11907e+06
7.41594e+06
7.71197e+06
8.00154e+06
8.28194e+06
8.56226e+06
8.83688e+06
9.1031e+06
9.36806e+06
9.63469e+06
1871.77
1614.46
2000.87
1659.04
1678.79
1823.04
1772.12
2000.88
1997.04
1994.06
2000.43
1986.79
1958.28
1950.96
1915.21
1966.3
1916.92
1913.34
1921.54
1904.66
1912.52
1915.03
1910
1917.59
1912.6
1911.51
1917.62
1911.34
1909.87
1910.09
1908.5
1909.2
1907.56
1909.11
1911.66
1911.04
1914.82
1918.69
1919.4
1921.96
1927.42
1933.96
1964.61
2800.42
212731
619588
1.05761e+06
1.55502e+06
2.01147e+06
2.45306e+06
2.88878e+06
3.30774e+06
3.70822e+06
4.09165e+06
4.46345e+06
4.82792e+06
5.17994e+06
5.52042e+06
5.85718e+06
6.18411e+06
6.50061e+06
6.81498e+06
7.12156e+06
7.41821e+06
7.71396e+06
8.00352e+06
8.28385e+06
8.56389e+06
8.83854e+06
9.10478e+06
9.36951e+06
9.63603e+06
2000.3
1768.12
1966.58
1381.78
1388.88
1525.54
1499.17
1859.05
1813.74
1841.76
2000.09
1895.56
1886.55
1902.35
1873.96
1939.84
1892.31
1899.04
1909.3
1885.04
1900.83
1903.12
1895.5
1907.46
1904.84
1902.41
1909.18
1904.99
1903.35
1902.29
1902.04
1904.54
1901.21
1902.94
1908.05
1905.53
1909.22
1915.69
1914.76
1916.53
1923.24
1926.35
1945.18
1990.69
166089
570390
1.0238e+06
1.54161e+06
2.00551e+06
2.45165e+06
2.89466e+06
3.31316e+06
3.71358e+06
4.09704e+06
4.46836e+06
4.83245e+06
5.18427e+06
5.52439e+06
5.86081e+06
6.18756e+06
6.50375e+06
6.81779e+06
7.12426e+06
7.42071e+06
7.71618e+06
8.00569e+06
8.28595e+06
8.56574e+06
8.84036e+06
9.10664e+06
9.37116e+06
9.63753e+06
1924.74
1892.27
2000.44
1570.3
1515.77
1632.71
1591.04
2000.28
1859.06
1883.85
2000.34
1958.98
1956.66
1934.65
1929.88
2000.06
1920.38
1931.32
1935.52
1898.84
1920.35
1903.74
1904.2
1921.81
1895.23
1907.77
1919.31
1891.37
1906.35
1905.98
1888.9
1907.67
1899.81
1890.87
1911.42
1900.86
1897.45
1918.86
1907.87
1904.08
1925.3
1915.07
1920.51
1983.56
103214
520386
982733
1.52817e+06
2.00024e+06
2.455e+06
2.90057e+06
3.31899e+06
3.71961e+06
4.10287e+06
4.47364e+06
4.83746e+06
5.18909e+06
5.52873e+06
5.86478e+06
6.19134e+06
6.50713e+06
6.82081e+06
7.12718e+06
7.42345e+06
7.71858e+06
8.00807e+06
8.2883e+06
8.56775e+06
8.84238e+06
9.10874e+06
9.37299e+06
9.63917e+06
2004.9
2004.42
2004.67
2002.52
2001.93
2003.51
2002.16
2029.22
2001.43
2001.02
2001.37
2000.52
2000.37
2000.31
2000.22
2000.37
2000.09
2000.09
2000.09
1986.84
1996.81
1989.2
1983.5
1986.31
1972.04
1979.3
1973.23
1961.15
1972.42
1958.18
1956.28
1969.13
1951.62
1955.66
1968.24
1950.18
1957.97
1969.91
1953.59
1961.89
1972.81
1958.21
1968.7
1997.68
55835.7
477174
937655
1.51565e+06
1.99643e+06
2.46262e+06
2.90703e+06
3.32608e+06
3.72666e+06
4.10976e+06
4.47999e+06
4.84308e+06
5.19424e+06
5.53356e+06
5.86908e+06
6.19518e+06
6.51069e+06
6.82403e+06
7.13015e+06
7.42633e+06
7.72124e+06
8.01055e+06
8.29075e+06
8.57009e+06
8.84455e+06
9.11091e+06
9.3751e+06
9.641e+06
2002.17
2002.34
2003.05
1846.3
1597.99
1466.52
1333.44
1636.08
1528.6
1568.96
1868.05
1810.58
1795.59
1873.86
1842.6
1948.63
1893.69
1890.98
1928.72
1893.55
1905.19
1919.13
1902.68
1909.72
1910.44
1904
1902.87
1900.55
1900.11
1893.71
1897.76
1902.49
1893.34
1899.96
1906.99
1897.1
1907.03
1915.37
1907.84
1916.27
1922.26
1911.51
1916.3
1968.51
13274.9
421200
889938
1.5045e+06
1.99381e+06
2.47222e+06
2.91582e+06
3.33424e+06
3.73447e+06
4.11685e+06
4.48682e+06
4.84932e+06
5.19984e+06
5.53881e+06
5.87372e+06
6.19929e+06
6.51464e+06
6.82758e+06
7.13333e+06
7.4294e+06
7.72414e+06
8.01326e+06
8.29342e+06
8.57266e+06
8.84697e+06
9.11327e+06
9.37747e+06
9.64312e+06
1771.01
2001.05
2002.57
1840.09
1708.81
1557.83
1521.37
1981.35
1693.05
1679.48
2000.76
1892.25
1883.28
1929.26
1903.46
2000.17
1933.28
1937.31
1993.54
1929.05
1948.55
1950.57
1926.67
1942.73
1917.82
1917.94
1928.23
1893.17
1907.34
1911.97
1888.53
1907.29
1901.48
1890.79
1910.74
1898.45
1897.44
1918.52
1905.89
1906.26
1923.08
1898.61
1898.05
1960.38
1992.68
382810
865121
1.4976e+06
2.00118e+06
2.483e+06
2.926e+06
3.34353e+06
3.74329e+06
4.1252e+06
4.49436e+06
4.85617e+06
5.20606e+06
5.54445e+06
5.87888e+06
6.20412e+06
6.51911e+06
6.8316e+06
7.13707e+06
7.43294e+06
7.72726e+06
8.01619e+06
8.2963e+06
8.57532e+06
8.84956e+06
9.11591e+06
9.37999e+06
9.64541e+06
2003.13
2003.99
2008.13
2003.93
2003.42
2002.69
2002.46
2006.33
2002.62
2002.79
2006.7
2000.92
2000.74
2000.55
2000.37
2000.61
2000.2
2000.27
2000.31
2000.04
2000.18
2000.16
2000.02
2000.09
2000.03
1997.31
1997.31
1973.77
1986.94
1977.4
1960.77
1982.11
1964.59
1957.91
1980.83
1958.67
1958.31
1981.52
1961
1963.31
1981.74
1955.2
1955.76
1991.33
2001.29
341334
839859
1.49616e+06
2.0153e+06
2.49322e+06
2.93636e+06
3.35394e+06
3.7528e+06
4.13411e+06
4.50291e+06
4.86382e+06
5.2129e+06
5.5511e+06
5.88478e+06
6.20933e+06
6.52419e+06
6.83616e+06
7.14108e+06
7.43683e+06
7.73089e+06
8.01934e+06
8.29936e+06
8.57832e+06
8.85229e+06
9.11862e+06
9.38284e+06
9.64793e+06
2000.09
2002.07
2005.47
2001.59
2001.66
2000.54
1918.46
2000.35
1505.2
1387.74
1605.26
1530.88
1545.26
1730.3
1677.86
1875.65
1870.44
1859.45
1950.7
1922.53
1920.36
1960.53
1923.87
1912.36
1937.28
1912.91
1896.1
1910.66
1903.47
1893.73
1908.2
1909.66
1898.55
1916.24
1919.33
1905.66
1925.67
1931.31
1922.26
1941.82
1942.67
1920.75
1926.92
1955.49
1989.83
315504
818557
1.51154e+06
2.02945e+06
2.50814e+06
2.94971e+06
3.36588e+06
3.76375e+06
4.14434e+06
4.51289e+06
4.87286e+06
5.22089e+06
5.5588e+06
5.89167e+06
6.21536e+06
6.53007e+06
6.84152e+06
7.14578e+06
7.44141e+06
7.7352e+06
8.02318e+06
8.30305e+06
8.58197e+06
8.85553e+06
9.12164e+06
9.38604e+06
9.65079e+06
1551.97
1767.72
2001.22
1904.8
2000.45
1937.58
1979.8
2001
1726.28
1610.84
1991.04
1695.1
1716.26
1856.71
1764.7
2000.15
1927.14
1922.19
2000.15
1977.4
1991.26
2000.09
1972.75
1982.61
1978.23
1950.25
1962.67
1927.19
1933.93
1957.41
1919.84
1933.73
1942.53
1922.23
1937.66
1933.74
1927.4
1946.3
1942.13
1942.18
1954.52
1929.73
1923.5
1963.85
1991.2
289745
793576
1.53281e+06
2.0458e+06
2.52434e+06
2.96462e+06
3.37951e+06
3.77645e+06
4.15668e+06
4.52419e+06
4.88286e+06
5.23025e+06
5.56766e+06
5.89964e+06
6.2226e+06
6.53688e+06
6.84764e+06
7.15141e+06
7.44681e+06
7.74004e+06
8.02766e+06
8.30745e+06
8.58594e+06
8.85931e+06
9.12543e+06
9.38957e+06
9.6539e+06
2000.4
2000.67
2002.97
2001.99
2003.07
2003.17
2003.35
2004.59
2002.7
2002.64
2006.34
2002.3
2001.48
2000.88
2000.5
2001.01
2000.28
2000.46
2000.6
2000.2
2000.41
2000.42
2000.16
2000.26
2000.23
2000.13
2000.12
2000.03
2000.1
2000.09
1985.88
2000.07
2000.02
1974.65
2000.06
1989.18
1969.24
2000.05
1986.35
1974.95
2000.05
1979.71
1970
2000.21
2002.45
298503
823258