/*--------------------------------*- C++ -*----------------------------------*\
| =========                 |                                                 |
| \\      /  F ield         | OpenFOAM: The Open Source CFD Toolbox           |
|  \\    /   O peration     | Version:  v2012                                 |
|   \\  /    A nd           | Website:  www.openfoam.com                      |
|    \\/     M anipulation  |                                                 |
\*---------------------------------------------------------------------------*/
FoamFile
{
    version     2.0;
    format      ascii;
    class       volScalarField;
    location    "1e-06";
    object      pPrime2Mean;
}
// * * * * * * * * * * * * * * * * * * * * * * * * * * * * * * * * * * * * * //

dimensions      [2 -2 -4 0 0 0 0];


internalField   nonuniform List<scalar> 
10248
(
24118.6
5899.87
51.3883
254.801
276.785
0.00986072
0.00965477
0.05453
30.4136
0.20555
0.130153
0.138012
0.0483088
0.00637196
0.150881
0.0523562
0.0795117
0.107722
2405.05
0.101516
0.0442822
5.8383
10.7405
79.2957
26.6708
0.149741
0.0154829
0.0272511
0.0457503
14.5716
740.039
467.075
320.982
283.723
46.0014
0.103682
0.00804743
0.00973134
28.3817
65.8601
508.759
1.26097e+06
3.71554e+10
1.54977e+11
4.29808e+11
1.57964e+12
3.79434e+12
7.47591e+12
1.27734e+13
1.97802e+13
2.84946e+13
3.87828e+13
5.07179e+13
6.43678e+13
7.95184e+13
9.60946e+13
1.13801e+14
1.32456e+14
1.5217e+14
1.72677e+14
1.93882e+14
2.15969e+14
2.38626e+14
2.61829e+14
2.85931e+14
3.10219e+14
3.34991e+14
3.60422e+14
3.86219e+14
4.12313e+14
4.38973e+14
4.66396e+14
7131.77
10.3574
5.39148
0.613901
3.93854
52.1233
14.8716
524.492
1019.27
1048.3
1761.98
3640.77
2076.2
2287.05
4211.24
2662.62
3115.8
2719.1
680.548
2996.29
1413.72
1245.97
1484.86
276.389
668.285
1839.97
718.407
1523.36
933.809
6.37725
85.1591
16.3397
81.5478
71.5306
3.91947
226.241
4.32604
1.12197
54.484
28.5003
356.476
537294
3.75022e+10
1.56328e+11
4.28594e+11
1.57516e+12
3.78082e+12
7.45529e+12
1.27638e+13
1.97694e+13
2.84799e+13
3.8783e+13
5.07084e+13
6.43454e+13
7.95188e+13
9.60951e+13
1.13784e+14
1.32457e+14
1.52171e+14
1.72665e+14
1.93879e+14
2.15969e+14
2.38627e+14
2.61814e+14
2.85851e+14
3.10193e+14
3.34951e+14
3.60421e+14
3.86197e+14
4.12241e+14
4.38932e+14
4.66358e+14
0.172972
0.403365
28.9686
359.99
281.924
455.833
227.644
351.885
1389.16
1413.83
2764.79
4809.89
2536.14
2952.03
4665.09
3072.26
4494.23
3002.57
603.153
6009.21
1574.72
1629.56
2769.01
810.482
1621.12
3882.29
766.977
1806.78
1056.96
7.40737
364.309
251.929
149.198
358.365
106.474
239.029
117.462
44.8958
62.971
148.58
191.068
3619.26
3.7985e+10
1.58888e+11
4.2542e+11
1.56607e+12
3.76478e+12
7.43065e+12
1.27324e+13
1.97532e+13
2.8461e+13
3.87752e+13
5.06993e+13
6.43258e+13
7.95181e+13
9.60961e+13
1.13785e+14
1.32457e+14
1.52172e+14
1.72665e+14
1.93879e+14
2.15969e+14
2.38629e+14
2.61813e+14
2.85821e+14
3.10193e+14
3.34931e+14
3.60421e+14
3.86196e+14
4.12189e+14
4.38888e+14
4.66331e+14
0.875609
0.0183065
5.89213
150.124
193.806
65.1364
135.006
9.94737
216.488
696.701
1016.33
1422.38
820.628
278.53
1943.5
1150.08
1358.63
1815.86
173.87
1442.47
871.364
701
806.049
549.097
759.798
1273.4
146.995
154.001
174.914
7.83813
123.891
338.192
159.625
96.6631
104.158
1.81154
3.17692
32.2516
11.3098
7.07219
230.744
234.18
3.77471e+10
1.61686e+11
4.22555e+11
1.55603e+12
3.74723e+12
7.40393e+12
1.26976e+13
1.97284e+13
2.84384e+13
3.87606e+13
5.06912e+13
6.4313e+13
7.95182e+13
9.60982e+13
1.13787e+14
1.32458e+14
1.52174e+14
1.72667e+14
1.93881e+14
2.15971e+14
2.38632e+14
2.61814e+14
2.858e+14
3.10194e+14
3.34932e+14
3.60422e+14
3.86198e+14
4.1218e+14
4.38872e+14
4.66331e+14
0.0450883
0.0201598
52.036
527.55
410.437
679.909
796.215
135.509
309.25
161.615
248.075
354.082
245.679
653.188
378.537
229.783
277.409
475.885
110.442
531.419
243.012
119.023
361.668
379.585
191.457
263.085
464.889
630.947
607.472
517.34
546.353
530.312
336.48
479.622
565.295
799.373
756.111
725.252
285.498
380.56
1495.43
1962.15
3.70538e+10
1.6288e+11
4.20111e+11
1.54508e+12
3.72789e+12
7.375e+12
1.26606e+13
1.96909e+13
2.84093e+13
3.87428e+13
5.06818e+13
6.43027e+13
7.95194e+13
9.61004e+13
1.13788e+14
1.32459e+14
1.52177e+14
1.7267e+14
1.93884e+14
2.15973e+14
2.38636e+14
2.61816e+14
2.85801e+14
3.10197e+14
3.34934e+14
3.60423e+14
3.862e+14
4.12181e+14
4.38873e+14
4.66333e+14
0.00111066
0.00125543
9.93651
72.3068
34.728
37.3262
12.8556
61.9418
41.2148
22.1303
365.476
377.806
118.886
19.9272
293.454
209.552
282.073
320.465
1.10891
166.474
44.3052
38.7599
148.007
28.7325
45.0068
109.59
9.85678
6.57689
31.2911
45.2273
45.5942
6.21208
1.15298
12.5777
6.31354
7.35083
14.607
4.00594
2.01206
19.9551
382.634
450.678
3.59764e+10
1.57837e+11
4.19344e+11
1.53339e+12
3.70706e+12
7.344e+12
1.26212e+13
1.96453e+13
2.83763e+13
3.87199e+13
5.06701e+13
6.42925e+13
7.95215e+13
9.6104e+13
1.1379e+14
1.32461e+14
1.5218e+14
1.72674e+14
1.93887e+14
2.15976e+14
2.3864e+14
2.61818e+14
2.85803e+14
3.102e+14
3.34936e+14
3.60426e+14
3.86203e+14
4.12182e+14
4.3887e+14
4.66335e+14
0.96009
8.74978e-06
1.18054
4.8885
0.0562267
7.24051
16.2452
32.516
15.3509
158.451
446.199
368.483
284.183
21.1822
492.704
165.695
152.964
276.54
3.72928
132.625
138.342
45.2103
200.104
193.883
93.153
134.489
76.0677
11.8567
57.344
39.2394
47.2208
82.3172
54.4071
7.06816
22.994
23.1417
21.0571
31.0774
7.35287
8.29296
325.556
299.219
3.46774e+10
1.46679e+11
4.18407e+11
1.52061e+12
3.68423e+12
7.31039e+12
1.25792e+13
1.95975e+13
2.83386e+13
3.86927e+13
5.06582e+13
6.42887e+13
7.95239e+13
9.61081e+13
1.13794e+14
1.32465e+14
1.52185e+14
1.72679e+14
1.93891e+14
2.1598e+14
2.38646e+14
2.61822e+14
2.85807e+14
3.10205e+14
3.3494e+14
3.60429e+14
3.86207e+14
4.12185e+14
4.38871e+14
4.66338e+14
0.00138407
5.64009e-06
1.29588
1.47707
10.7839
3.22641
5.53788
56.8629
37.7191
41.5978
296.652
185.333
120.159
26.4301
252.127
62.9682
81.6211
170.988
11.5773
63.6103
96.2862
32.4772
190.616
131.041
66.0842
144.478
90.7766
55.8574
134.836
73.1341
86.4553
61.0544
21.7495
45.2742
43.3642
8.22692
27.9534
21.0399
1.84986
5.97982
404.489
12246.7
3.20718e+10
1.31639e+11
4.17042e+11
1.50667e+12
3.65914e+12
7.27401e+12
1.25344e+13
1.95473e+13
2.82948e+13
3.86626e+13
5.06451e+13
6.4289e+13
7.95254e+13
9.61126e+13
1.13799e+14
1.3247e+14
1.52191e+14
1.72686e+14
1.93895e+14
2.15986e+14
2.38653e+14
2.61826e+14
2.85811e+14
3.1021e+14
3.34944e+14
3.60433e+14
3.86213e+14
4.12189e+14
4.38874e+14
4.66342e+14
3.91081
1.51983e-05
6.40604
11.3999
9.45184
21.9417
59.0969
5.85141
227.507
44.5688
123.706
11.9246
21.0981
64.06
16.6898
11.3316
64.6433
21.9294
25.8085
64.4932
32.5796
11.6353
15.2515
28.7195
13.4093
25.0688
24.9881
22.0878
51.1802
23.3778
29.9312
54.4789
29.7117
24.879
49.3974
21.3371
26.8608
39.7112
12.6736
16.4144
437.859
1.89483e+07
2.77976e+10
1.17361e+11
4.14781e+11
1.49135e+12
3.63163e+12
7.23472e+12
1.24865e+13
1.94945e+13
2.82457e+13
3.86288e+13
5.06316e+13
6.42899e+13
7.95289e+13
9.61178e+13
1.13806e+14
1.32477e+14
1.52198e+14
1.72693e+14
1.93901e+14
2.15992e+14
2.38661e+14
2.61832e+14
2.85816e+14
3.10217e+14
3.34949e+14
3.60437e+14
3.86219e+14
4.12194e+14
4.38878e+14
4.66347e+14
0.000306617
0.000258648
0.371415
885.542
641.065
769.195
2050.13
531.412
1977.3
1967.14
258.311
1491.48
1142.49
1276.76
1606.8
780.761
1783.36
1822.21
593.678
2169.97
1865.78
768.81
1765.61
1384.22
1083.81
2011.54
1325.09
1513.98
1927.91
770.038
654.092
845.615
283.384
595.261
663.695
219.991
371.561
394.991
79.9891
164.092
1614.13
5.32998e+07
2.41104e+10
1.0482e+11
4.11738e+11
1.47463e+12
3.60145e+12
7.19213e+12
1.24354e+13
1.94389e+13
2.81892e+13
3.85922e+13
5.06174e+13
6.4291e+13
7.95328e+13
9.61237e+13
1.13815e+14
1.32484e+14
1.52207e+14
1.72702e+14
1.93908e+14
2.16e+14
2.38671e+14
2.61838e+14
2.85822e+14
3.10225e+14
3.34955e+14
3.60443e+14
3.86226e+14
4.12199e+14
4.38882e+14
4.66353e+14
0.000146073
2.09785e-05
3.86639e-06
0.00328254
117.862
96.7632
19.9225
2.05114
45.2161
330.44
0.946142
53.2915
131.228
73.9787
90.556
60.0469
60.894
141.724
22.5477
45.1908
68.5026
18.5648
25.9086
25.95
15.9227
26.0183
15.3516
24.8799
33.6479
15.8999
24.0895
12.9971
2.70868
19.5909
20.494
13.2174
21.069
16.2518
5.8927
8.36189
714.397
9.22186e+07
2.12559e+10
9.44087e+10
4.08139e+11
1.45658e+12
3.56895e+12
7.14628e+12
1.2381e+13
1.93808e+13
2.81307e+13
3.85482e+13
5.0596e+13
6.42929e+13
7.95384e+13
9.61331e+13
1.13824e+14
1.32494e+14
1.52218e+14
1.72713e+14
1.93917e+14
2.16009e+14
2.38682e+14
2.61846e+14
2.8583e+14
3.10235e+14
3.34962e+14
3.6045e+14
3.86235e+14
4.12207e+14
4.38889e+14
4.66361e+14
1.80578
1.09118e-05
1.95303e-05
0.000291557
0.00131389
0.00353122
558.278
185.846
64.6462
33.9985
35.711
24.911
19.4043
17.8371
26.5136
11.7287
18.1573
22.7888
3.9049
23.6817
25.9837
8.1221
24.2299
18.5113
12.0217
28.2393
22.3383
35.3894
44.745
21.6136
15.5007
14.8715
3.93015
15.4032
18.2697
9.556
12.9059
12.1094
3.07706
1.60969
511.825
1.8755e+08
1.90856e+10
8.58833e+10
4.02382e+11
1.4367e+12
3.53331e+12
7.09662e+12
1.23229e+13
1.93196e+13
2.80708e+13
3.85019e+13
5.05737e+13
6.42938e+13
7.9543e+13
9.61438e+13
1.13835e+14
1.32505e+14
1.5223e+14
1.72726e+14
1.93928e+14
2.16021e+14
2.38694e+14
2.61856e+14
2.85839e+14
3.10246e+14
3.34971e+14
3.60458e+14
3.86246e+14
4.12216e+14
4.38896e+14
4.66369e+14
0.000168524
6.75675e-07
4.80982e-06
3.14377e-05
6.85826e-06
2.32784e-06
162.962
61.3415
63.0272
3.1133
4.03441
8.95077
1.60555
7.61816
8.38441
1.17327
13.8358
2.30282
1.20841
21.1713
5.30352
2.71394
12.2251
3.18841
2.66211
8.33142
3.00319
5.52987
6.74206
1.39417
1.28564
0.563336
0.0361799
0.52571
0.573347
0.262003
0.184156
0.135823
0.0495166
2.0054
472.669
2.56487e+08
1.70681e+10
7.88684e+10
3.95358e+11
1.41479e+12
3.49423e+12
7.04279e+12
1.22607e+13
1.92552e+13
2.80085e+13
3.84522e+13
5.05505e+13
6.42951e+13
7.95499e+13
9.61563e+13
1.13849e+14
1.32517e+14
1.52244e+14
1.72741e+14
1.9394e+14
2.16034e+14
2.38709e+14
2.61868e+14
2.8585e+14
3.10258e+14
3.34982e+14
3.60468e+14
3.86257e+14
4.12226e+14
4.38904e+14
4.6638e+14
1.03471
4.36278e-06
6.80005e-06
2.90344e-05
2.44062e-05
9.58145e-06
0.00468392
0.00159301
27.3908
19.6953
3.40969
0.519782
2.75036
0.659235
1.03516
1.34192
0.59412
1.37554
0.92841
0.345391
0.300856
0.0358514
0.103861
0.0162507
0.00305372
0.333827
0.499863
2.14014
2.11539
1.74567
1.08694
0.786419
0.692867
1.24343
1.04421
1.00736
1.1409
0.69984
0.372621
1.93058
350.545
2.97688e+08
1.52908e+10
7.30062e+10
3.87504e+11
1.39064e+12
3.45136e+12
6.98444e+12
1.21942e+13
1.91873e+13
2.79441e+13
3.84012e+13
5.05266e+13
6.42974e+13
7.95601e+13
9.6171e+13
1.13865e+14
1.32533e+14
1.52261e+14
1.72758e+14
1.93955e+14
2.16049e+14
2.38725e+14
2.61882e+14
2.85862e+14
3.10273e+14
3.34994e+14
3.6048e+14
3.86271e+14
4.12238e+14
4.38914e+14
4.66391e+14
3.0485e-05
4.30737e-06
3.19304e-06
2.72039e-05
1.85552e-05
3.94555e-06
2.75299e-06
2.51574e-05
2.08409
14.6514
16.9767
23.301
19.151
15.3689
22.8955
22.2569
14.4049
28.7242
15.9271
7.75584
12.8983
4.78311
3.73457
4.62286
2.08596
1.2063
1.29811
0.370435
0.643854
0.363843
0.276931
0.498325
0.251803
0.4161
0.318486
0.20483
0.489266
0.311938
0.142539
7.61171
350.121
3.73867e+08
1.36998e+10
6.79891e+10
3.78668e+11
1.36397e+12
3.40436e+12
6.92114e+12
1.21229e+13
1.91158e+13
2.78778e+13
3.8345e+13
5.05023e+13
6.43033e+13
7.9573e+13
9.61882e+13
1.13883e+14
1.3255e+14
1.5228e+14
1.72777e+14
1.93973e+14
2.16067e+14
2.38744e+14
2.61898e+14
2.85877e+14
3.10289e+14
3.35009e+14
3.60493e+14
3.86287e+14
4.12252e+14
4.38926e+14
4.66405e+14
0.22745
2.23517e-08
2.02842e-06
7.34488e-06
1.50255e-05
4.66593e-07
3.59118e-06
9.75095e-07
10.4342
2.72305
12.2672
55.2591
21.2442
42.2356
56.6169
30.4029
65.3375
61.3171
21.7934
59.9433
42.5515
12.831
28.236
17.574
6.48286
6.95078
2.99569
0.615467
2.00647
0.0752133
0.301562
1.09171
0.054265
0.148016
0.5585
0.02878
0.0520974
0.437317
0.0135519
7.52348
305.711
4.60682e+08
1.23506e+10
6.35568e+10
3.68643e+11
1.33456e+12
3.35282e+12
6.85245e+12
1.20466e+13
1.90402e+13
2.78088e+13
3.82894e+13
5.04777e+13
6.43095e+13
7.95894e+13
9.62081e+13
1.13905e+14
1.32571e+14
1.52302e+14
1.72799e+14
1.93993e+14
2.16087e+14
2.38765e+14
2.61917e+14
2.85895e+14
3.10308e+14
3.35026e+14
3.60509e+14
3.86304e+14
4.12268e+14
4.38941e+14
4.6642e+14
1.71559e-05
5.98617e-05
2.841e-06
1.00769e-06
5.46686e-07
8.08388e-07
2.2864e-06
9.97586e-06
8.95033
20.8494
19.344
20.4915
17.6174
17.4475
29.6802
25.5321
29.4208
43.0398
40.5487
40.6342
42.44
28.2666
47.0337
32.6332
27.1574
45.9673
23.2428
22.6957
35.3095
13.7328
17.1855
20.934
8.87267
15.4219
15.071
6.28281
12.3322
10.3577
4.48376
31.5954
249.233
5.10231e+08
1.12088e+10
5.95095e+10
3.57259e+11
1.30209e+12
3.29635e+12
6.77788e+12
1.19647e+13
1.89604e+13
2.77381e+13
3.82334e+13
5.04544e+13
6.43194e+13
7.96083e+13
9.6231e+13
1.13929e+14
1.32594e+14
1.52327e+14
1.72824e+14
1.94016e+14
2.1611e+14
2.38789e+14
2.61938e+14
2.85915e+14
3.10329e+14
3.35045e+14
3.60527e+14
3.86325e+14
4.12287e+14
4.38957e+14
4.66438e+14
0.000125641
3.66513e-05
1.57156e-05
5.31515e-05
3.07201e-05
4.06243e-06
9.31323e-07
2.41455e-05
487.456
615.1
341.987
1167.56
794.709
856.863
1633.5
677.237
1218.21
1526.54
500.226
1131.52
1018.84
389.915
762.019
510.871
292.706
498.544
269.682
213.382
333.946
112.359
110.237
151.234
49.868
79.0326
99.6355
32.401
57.3764
53.8407
18.8394
6.37606
4.76589
5.21006e+08
1.02461e+10
5.56238e+10
3.44333e+11
1.26635e+12
3.23437e+12
6.69682e+12
1.18771e+13
1.8876e+13
2.76636e+13
3.81828e+13
5.04316e+13
6.43319e+13
7.96283e+13
9.62567e+13
1.13956e+14
1.32621e+14
1.52355e+14
1.72853e+14
1.94042e+14
2.16137e+14
2.38816e+14
2.61962e+14
2.85938e+14
3.10353e+14
3.35067e+14
3.60548e+14
3.86348e+14
4.12308e+14
4.38976e+14
4.66459e+14
4.90788e-05
1.41445e-05
1.20886e-05
3.83472e-06
3.00352e-06
1.61203e-05
1.84495e-06
1.84821e-06
11.8597
6.54434
5.45329
23.3482
10.6185
22.316
33.4306
20.1685
40.6708
50.804
26.0932
48.6945
48.3208
22.6828
43.3509
32.304
16.683
32.9298
18.1621
12.534
27.1838
8.01842
7.39024
14.1973
4.22925
5.12853
9.8219
2.4075
3.38759
7.06637
1.67417
16.2077
245.314
5.17226e+08
9.52426e+09
5.19089e+10
3.29378e+11
1.22625e+12
3.16532e+12
6.60815e+12
1.17826e+13
1.87863e+13
2.7587e+13
3.81412e+13
5.04313e+13
6.43399e+13
7.9644e+13
9.62828e+13
1.13986e+14
1.32652e+14
1.52387e+14
1.72886e+14
1.94072e+14
2.16167e+14
2.38846e+14
2.61989e+14
2.85964e+14
3.1038e+14
3.35092e+14
3.60571e+14
3.86373e+14
4.12332e+14
4.38997e+14
4.66481e+14
0.0001053
7.1805e-07
1.39698e-09
2.32831e-08
2.04286e-06
1.35065e-05
6.26827e-06
3.82247e-05
49.7162
27.1238
19.3987
62.3462
30.3399
34.5782
57.0455
21.534
42.4107
49.0327
7.60132
30.1229
24.8857
4.11917
15.3154
8.66563
3.82197
8.85578
3.51002
3.47359
4.93751
1.32841
2.18158
2.09092
0.465681
1.61843
1.10061
0.275992
1.29148
0.786365
0.122936
10.7458
284.214
4.71776e+08
8.98998e+09
4.77461e+10
3.12591e+11
1.18204e+12
3.08976e+12
6.51184e+12
1.16806e+13
1.86915e+13
2.7509e+13
3.80918e+13
5.04289e+13
6.43518e+13
7.96654e+13
9.63128e+13
1.1402e+14
1.32686e+14
1.52424e+14
1.72923e+14
1.94106e+14
2.16201e+14
2.3888e+14
2.62019e+14
2.85993e+14
3.10411e+14
3.3512e+14
3.60597e+14
3.86402e+14
4.12359e+14
4.39021e+14
4.66507e+14
0.35751
1.10068e-05
1.0198e-07
1.42441e-05
1.6042e-06
2.81679e-06
3.64147e-07
4.0736e-06
29.6771
22.2764
22.0998
40.4249
24.8129
23.1384
34.9452
14.5684
10.6807
15.122
1.1631
1.44813
2.11258
0.0607241
0.0967312
0.12248
0.144925
0.187531
0.0470359
0.316038
0.142943
0.0734655
0.204872
0.0219287
0.0422554
0.185602
0.017191
0.00915965
0.0612234
0.0269592
0.00583681
3.79456
283.045
3.8679e+08
8.45471e+09
4.33457e+10
2.93766e+11
1.13348e+12
3.007e+12
6.40707e+12
1.15712e+13
1.85913e+13
2.74264e+13
3.80438e+13
5.04303e+13
6.43639e+13
7.96899e+13
9.63474e+13
1.14059e+14
1.32725e+14
1.52465e+14
1.72964e+14
1.94144e+14
2.16239e+14
2.38919e+14
2.62054e+14
2.86027e+14
3.10446e+14
3.35152e+14
3.60628e+14
3.86435e+14
4.12391e+14
4.39049e+14
4.66536e+14
6.59484
3.1332e-05
3.0376e-05
2.80156e-05
1.70851e-05
2.66987e-05
4.80795e-06
1.90386e-05
11.0332
11.9103
10.9551
14.3801
8.66769
5.9747
8.85751
3.86907
1.71269
2.28582
0.830311
0.312645
0.233646
0.271236
0.274049
0.0541474
0.233444
0.368209
0.0732709
0.267351
0.291214
0.112592
0.247206
0.100328
0.0771505
0.267258
0.0682696
0.0430386
0.165709
0.0175794
0.0661278
4.81026
282.035
3.19168e+08
7.98607e+09
3.8714e+10
2.7285e+11
1.08018e+12
2.91644e+12
6.29324e+12
1.14532e+13
1.84853e+13
2.73424e+13
3.79874e+13
5.04277e+13
6.43851e+13
7.97216e+13
9.63871e+13
1.14104e+14
1.32769e+14
1.52511e+14
1.73012e+14
1.94188e+14
2.16283e+14
2.38964e+14
2.62095e+14
2.86065e+14
3.10486e+14
3.3519e+14
3.60662e+14
3.86472e+14
4.12428e+14
4.39081e+14
4.66569e+14
9.39418
1.29583
1.15493e-05
1.97766e-06
1.71922e-06
1.57021e-06
3.8296e-06
1.63075e-06
47.2111
32.0916
17.1891
32.764
16.81
11.0639
20.847
2.92731
3.22757
4.65276
0.661626
0.341151
0.45917
0.465812
0.039503
0.0579809
0.162329
0.02527
0.00870244
0.0801627
0.0505776
0.00989424
0.0152264
0.198548
0.0179479
0.0607346
0.407522
0.00394566
0.0433202
0.389345
0.0254343
2.34682
315.026
3.04053e+08
6.82738e+09
3.39815e+10
2.49861e+11
1.02201e+12
2.81725e+12
6.16937e+12
1.13267e+13
1.83731e+13
2.72524e+13
3.79359e+13
5.04321e+13
6.44112e+13
7.97563e+13
9.64321e+13
1.14154e+14
1.3282e+14
1.52563e+14
1.73066e+14
1.94238e+14
2.16332e+14
2.39014e+14
2.62141e+14
2.86108e+14
3.10531e+14
3.35233e+14
3.60702e+14
3.86515e+14
4.1247e+14
4.39119e+14
4.66607e+14
8.27803
1.17265
2.78535e-05
5.98561e-06
8.9407e-06
3.42261e-07
1.04308e-07
3.68804e-07
17.0717
10.1393
21.2187
29.3406
17.9782
27.6862
32.0473
23.8502
23.3067
20.4318
25.1328
16.2577
10.7147
11.0994
12.3056
6.45234
8.11682
10.6995
5.00588
7.34326
8.71685
4.42071
7.96156
7.34353
4.38861
8.27215
6.5974
4.79722
8.49909
5.56007
4.65944
13.9227
246.855
1.98526e+08
5.41218e+09
2.93893e+10
2.24847e+11
9.58641e+11
2.7088e+12
6.03474e+12
1.11904e+13
1.82546e+13
2.71617e+13
3.78771e+13
5.0438e+13
6.44382e+13
7.97992e+13
9.64824e+13
1.14211e+14
1.32878e+14
1.52623e+14
1.73126e+14
1.94296e+14
2.16388e+14
2.3907e+14
2.62195e+14
2.86158e+14
3.10583e+14
3.35283e+14
3.60749e+14
3.86563e+14
4.12519e+14
4.39164e+14
4.66651e+14
0.0523499
0.0123416
3.34014e-05
9.31323e-08
1.26194e-07
3.71598e-06
3.95719e-06
1.35079e-05
68.8805
266.361
216.304
451.725
306.548
288.786
472.551
204.417
220.068
251.727
96.7864
118.978
100.301
45.5498
67.6426
44.9904
30.7169
52.4796
29.3784
28.6863
47.5054
23.1828
29.183
42.0375
21.3057
30.4265
38.638
18.7935
28.4666
33.127
15.2298
22.4691
0.253687
1.63136e+08
4.18255e+09
2.54204e+10
1.98112e+11
8.90189e+11
2.59007e+12
5.88821e+12
1.10448e+13
1.81289e+13
2.70633e+13
3.78338e+13
5.04485e+13
6.4465e+13
7.98458e+13
9.65373e+13
1.14276e+14
1.32943e+14
1.52689e+14
1.73194e+14
1.9436e+14
2.16451e+14
2.39133e+14
2.62255e+14
2.86216e+14
3.1064e+14
3.35338e+14
3.60801e+14
3.86617e+14
4.12573e+14
4.39214e+14
4.66701e+14
28.6331
25.8835
4.86616e-05
4.01447e-06
4.2785e-06
2.98023e-08
1.03978e-05
3.92552e-06
33.1729
56.9782
38.2318
42.1156
34.5084
22.0692
41.0617
20.5168
15.5089
24.3223
5.58044
8.94487
10.6967
3.30881
5.55875
5.20819
1.99646
4.62897
3.34233
1.8823
4.68939
2.82708
2.29314
5.16805
2.70726
2.33159
5.11105
2.11628
1.88235
4.55514
1.6177
1.73036
226.666
7.85895e+07
3.50533e+09
2.2881e+10
1.69685e+11
8.15445e+11
2.45874e+12
5.72794e+12
1.08875e+13
1.79957e+13
2.69646e+13
3.78073e+13
5.04657e+13
6.45043e+13
7.98933e+13
9.66067e+13
1.14349e+14
1.33017e+14
1.52764e+14
1.73269e+14
1.94432e+14
2.16522e+14
2.39204e+14
2.62321e+14
2.86279e+14
3.10704e+14
3.354e+14
3.6086e+14
3.86678e+14
4.12633e+14
4.3927e+14
4.66756e+14
14.2908
12.7857
0.000892899
0.000131336
4.53652e-05
7.30343e-06
7.49528e-06
4.41121e-06
4.26521
0.460717
0.222219
3.93723
1.99543
2.92093
5.99723
2.12914
2.65202
3.34977
1.63857
1.3849
1.06594
0.667757
0.806688
0.329432
0.492044
0.751725
0.16846
0.531144
0.513814
0.0964991
0.512679
0.402063
0.14649
0.613618
0.451409
0.195521
0.676664
0.468312
0.159014
0.7293
91.7807
4417.99
3.71997e+09
2.29109e+10
1.40813e+11
7.35415e+11
2.31593e+12
5.55429e+12
1.07181e+13
1.78556e+13
2.68697e+13
3.77695e+13
5.04792e+13
6.45513e+13
7.99582e+13
9.6684e+13
1.14433e+14
1.33099e+14
1.52848e+14
1.73354e+14
1.94513e+14
2.16602e+14
2.39284e+14
2.62396e+14
2.86351e+14
3.10777e+14
3.3547e+14
3.60925e+14
3.86746e+14
4.12701e+14
4.39332e+14
4.66817e+14
47.9541
49.3606
3.52034
5.88238
2.4911e-05
2.40048e-06
1.0014e-05
2.78931e-07
0.405369
10.3918
3.90879
12.9581
5.53234
0.664145
1.94711
0.0688856
0.0560931
0.119624
0.341674
0.0315333
0.0313324
0.224314
0.0403594
0.0265336
0.0720549
0.238067
0.161053
0.0126871
0.171204
0.0261346
0.0204104
0.248228
0.00847758
0.0285422
0.215153
0.015123
0.02681
0.201045
0.044236
0.0286639
51.192
185.687
2.1301e+09
2.09877e+10
1.12605e+11
6.51031e+11
2.16074e+12
5.36586e+12
1.05368e+13
1.77082e+13
2.67689e+13
3.77554e+13
5.05059e+13
6.46055e+13
8.00298e+13
9.67708e+13
1.14526e+14
1.33193e+14
1.52942e+14
1.7345e+14
1.94604e+14
2.16691e+14
2.39374e+14
2.62482e+14
2.86431e+14
3.10859e+14
3.35549e+14
3.61e+14
3.86822e+14
4.12778e+14
4.39404e+14
4.66886e+14
31.5164
32.5578
2.60675
6.33083
1.06897e-05
4.80283e-06
5.62333e-06
6.37956e-07
7.25035e-07
5.01177
2.13339
8.64635
3.98356
10.682
9.7048
5.82801
8.29968
5.22566
5.80889
5.93757
2.79019
4.41254
4.97497
2.24774
4.56082
4.42111
2.10109
5.81461
5.39207
3.78713
7.2803
5.47426
4.84487
7.97795
5.03564
5.14683
7.8397
4.20155
5.1988
8.56013
40.1416
289.439
1.80849e+09
1.39051e+10
8.62109e+10
5.63273e+11
1.99278e+12
5.1621e+12
1.03426e+13
1.75537e+13
2.66738e+13
3.77485e+13
5.05294e+13
6.46624e+13
8.01178e+13
9.68677e+13
1.14629e+14
1.33297e+14
1.53048e+14
1.73557e+14
1.94708e+14
2.16792e+14
2.39474e+14
2.62579e+14
2.86523e+14
3.1095e+14
3.35639e+14
3.61085e+14
3.86908e+14
4.12865e+14
4.39486e+14
4.66965e+14
2.2576
3.35511
276.699
0.00561419
0.00299015
0.000178772
9.47062e-05
1.22776e-05
4.1686e-05
5.99804e-05
7.87214e-05
66.6365
84.0139
65.4958
88.6734
39.4496
40.2717
43.209
20.1754
26.7962
22.2904
13.8694
22.0259
15.3435
13.8668
24.1868
15.0081
17.0058
25.3686
15.6497
20.8044
26.858
16.3411
22.5448
25.4494
14.9829
21.4053
21.7949
13.3633
20.1486
6.27858
3.75309
1.25407e+09
1.27943e+10
6.34071e+10
4.73521e+11
1.81151e+12
4.9418e+12
1.01371e+13
1.73914e+13
2.65657e+13
3.77492e+13
5.05661e+13
6.47392e+13
8.0213e+13
9.69716e+13
1.14743e+14
1.33415e+14
1.53167e+14
1.73676e+14
1.94826e+14
2.16907e+14
2.39586e+14
2.62688e+14
2.86627e+14
3.11052e+14
3.3574e+14
3.61182e+14
3.87004e+14
4.12962e+14
4.3958e+14
4.67054e+14
307.445
288.766
135.192
63.4128
65.6471
7.13188
9.06351
8.04011e-06
1.02711e-05
6.44462
0.0018119
44.3131
41.5752
16.0249
23.3035
12.7086
7.11145
9.35454
4.3487
4.69852
5.31826
2.51938
4.22656
3.75082
1.81001
4.52132
3.51724
2.23835
4.78189
3.12973
2.58367
5.16323
2.89886
2.68431
5.00627
2.3928
2.42719
4.42785
1.75194
2.09673
9.71983
333.83
4.85926e+08
8.21188e+09
4.6571e+10
3.83202e+11
1.61559e+12
4.70323e+12
9.91752e+12
1.72217e+13
2.64628e+13
3.77566e+13
5.06269e+13
6.48204e+13
8.0311e+13
9.70949e+13
1.14871e+14
1.33547e+14
1.533e+14
1.73808e+14
1.94956e+14
2.17036e+14
2.39711e+14
2.62809e+14
2.86745e+14
3.11166e+14
3.35852e+14
3.61292e+14
3.87112e+14
4.13069e+14
4.39684e+14
4.67153e+14
39.1412
72.4076
0.16833
21.6706
10.5667
1.51814
1.65027
5.49527e-06
5.54509e-06
6.21658e-07
1.08499e-07
1.36764
2.63481
7.11582
10.6413
2.6217
6.42241
7.64564
2.66852
4.21559
3.77033
3.35039
4.702
2.874
4.59807
5.94324
3.06735
5.72003
6.45852
3.96704
6.7069
6.67959
4.68726
7.07757
6.49979
4.77352
6.84579
5.85634
4.7633
7.0079
7.12931
163.445
3.6606e+07
6.59577e+09
4.16934e+10
2.96599e+11
1.40834e+12
4.44817e+12
9.68448e+12
1.70464e+13
2.63808e+13
3.77779e+13
5.06871e+13
6.49104e+13
8.04346e+13
9.72293e+13
1.15014e+14
1.33693e+14
1.53449e+14
1.73957e+14
1.95103e+14
2.1718e+14
2.39852e+14
2.62946e+14
2.86876e+14
3.11294e+14
3.35977e+14
3.61413e+14
3.87232e+14
4.13189e+14
4.398e+14
4.67264e+14
0.0192352
0.0556399
747735
0.356767
0.320421
0.00527693
0.00298078
8.33082e-05
9.6852e-05
0.000148276
2.62083e-05
0.000243613
1.30219
30.1297
66.24
32.9455
22.398
41.0246
18.554
15.1827
22.6826
13.6648
16.934
16.1422
12.2797
19.5563
14.5753
13.467
21.464
15.1009
15.2562
23.391
15.7469
15.7957
23.2912
14.7064
14.6634
20.9927
13.3448
13.6737
18.5747
7.6316
39.3366
4.14902e+09
4.76075e+10
2.19444e+11
1.19315e+12
4.17626e+12
9.44081e+12
1.68654e+13
2.63036e+13
3.77981e+13
5.07636e+13
6.50267e+13
8.05654e+13
9.73742e+13
1.15172e+14
1.33857e+14
1.53614e+14
1.74122e+14
1.95268e+14
2.1734e+14
2.40009e+14
2.63099e+14
2.87023e+14
3.11437e+14
3.36118e+14
3.6155e+14
3.87367e+14
4.13324e+14
4.39932e+14
4.67389e+14
435.935
706.912
252.43
132.199
140.142
41.4505
62.5582
4.73763
3.32944
28.1029
6.14952e-06
18.7938
58.7532
14.5854
23.0697
21.7677
5.15654
10.9246
9.53243
2.56072
6.24704
3.46672
2.54165
4.74251
1.68406
2.72527
4.02364
1.2541
2.93486
3.58419
1.14962
3.30786
3.40383
1.07425
3.43995
3.00459
0.887927
3.2015
2.42011
0.727246
2.97266
12.4699
451.834
2.03452e+09
2.83e+10
1.56577e+11
9.73414e+11
3.88749e+12
9.1864e+12
1.66788e+13
2.62787e+13
3.78306e+13
5.08493e+13
6.51516e+13
8.07177e+13
9.75459e+13
1.1535e+14
1.34038e+14
1.53798e+14
1.74307e+14
1.95449e+14
2.17518e+14
2.40182e+14
2.63267e+14
2.87185e+14
3.11595e+14
3.36273e+14
3.617e+14
3.87518e+14
4.13474e+14
4.40075e+14
4.67527e+14
1.96933
15.3824
0.0024783
8.70699
25.258
37.621
15.3791
0.00170742
9.47348
20.6801
1.61044e-05
21.1917
20.9838
7.87948
2.60138
6.97117
0.727413
0.107806
0.835321
0.0485359
0.014833
0.0345982
0.00861387
0.0176156
0.080744
0.113771
0.0153085
0.165983
0.204543
0.00375531
0.241817
0.286155
0.0313353
0.267437
0.353312
0.055577
0.28203
0.379504
0.0953789
0.314681
0.381144
0.489812
548.408
3.07488e+06
2.98785e+10
1.17596e+11
7.60226e+11
3.5867e+12
8.92337e+12
1.6487e+13
2.62785e+13
3.78733e+13
5.09432e+13
6.52827e+13
8.08757e+13
9.77268e+13
1.15547e+14
1.34236e+14
1.54e+14
1.74514e+14
1.95648e+14
2.17712e+14
2.40377e+14
2.63453e+14
2.8736e+14
3.11774e+14
3.36449e+14
3.61862e+14
3.87685e+14
4.13646e+14
4.40232e+14
4.67678e+14
1.49668e-05
11.8851
1.15919
102.24
61.6411
59.958
77.3568
18.5446
30.8974
33.0839
4.56348e-08
23.5587
25.2088
8.34439
15.7869
7.22193
5.04554
2.31155
1.14068
2.29285
0.941815
0.16431
0.822776
0.468995
0.00549681
0.27168
0.227945
0.0151941
0.0673136
0.0571052
0.00982427
0.0169451
0.00354954
0.00638919
0.00487061
0.0171955
0.00637056
0.00614312
0.0668324
0.00691542
0.00976983
0.102064
277.892
654.557
1.07936e+10
1.21392e+11
5.72114e+11
3.27687e+12
8.65969e+12
1.63032e+13
2.62995e+13
3.79438e+13
5.10595e+13
6.5445e+13
8.10568e+13
9.79255e+13
1.15763e+14
1.34454e+14
1.54221e+14
1.74741e+14
1.95867e+14
2.1792e+14
2.40589e+14
2.63656e+14
2.8755e+14
3.1197e+14
3.36643e+14
3.62042e+14
3.87871e+14
4.13838e+14
4.40408e+14
4.67845e+14
743.055
40.5485
0.000132498
84.5015
49.8569
30.2736
34.4185
0.0011918
15.3631
6.44303
9.8818e-06
3.46457
0.274372
6.12437
1.57401
1.4646e-05
5.59358
1.98373
2.12609
6.60284
3.05898
8.12038
5.23908
2.12126
8.76172
4.55896
1.74151
8.13499
4.05802
3.02197
8.42196
3.67324
4.28358
8.48338
3.24179
5.00263
8.06045
2.73289
5.19209
8.05271
2.64517
7.10517
120.746
639.004
8.06982e+09
1.19675e+11
4.41229e+11
2.96478e+12
8.402e+12
1.62064e+13
2.63137e+13
3.80215e+13
5.11945e+13
6.56176e+13
8.12527e+13
9.81457e+13
1.16002e+14
1.34695e+14
1.54462e+14
1.74986e+14
1.96102e+14
2.18145e+14
2.40815e+14
2.63878e+14
2.87758e+14
3.12182e+14
3.36857e+14
3.6224e+14
3.88074e+14
4.14052e+14
4.40605e+14
4.68031e+14
0.00178781
0.00671975
0.00134433
0.00442968
0.00812116
0.0546949
0.0508443
1198.56
0.0169978
0.00916737
0.000672431
0.000758389
0.000654032
0.000471392
0.000493088
9.51649e-05
0.000316809
0.000256702
0.000152491
33.6383
11.7084
22.8391
23.181
18.1442
17.6195
20.2926
14.2153
16.7106
18.8094
13.2719
17.2025
17.6263
12.7413
17.4436
16.0541
11.8098
16.1601
13.2623
9.84164
14.8191
11.4799
9.54693
5.97931
36.0994
5.93103e+09
8.03634e+10
4.39153e+11
2.66573e+12
8.16109e+12
1.61883e+13
2.634e+13
3.81299e+13
5.13629e+13
6.58343e+13
8.1492e+13
9.83951e+13
1.1626e+14
1.34961e+14
1.54724e+14
1.7524e+14
1.96351e+14
2.18384e+14
2.41047e+14
2.64112e+14
2.87987e+14
3.12405e+14
3.37085e+14
3.62467e+14
3.88296e+14
4.14278e+14
4.40831e+14
4.6824e+14
0.00102888
0.000820699
7.64378e-05
237.883
226.569
194.984
334.944
73.2645
123.151
116.672
20.9604
47.5754
60.489
20.288
48.5657
10.9747
24.0318
23.4452
13.0367
14.7448
13.2125
6.04468
7.72362
8.05873
2.90579
5.47553
6.06351
2.08281
4.38072
4.25163
1.75197
3.50322
2.7867
1.62412
2.99188
1.89704
1.3191
2.35657
1.13276
1.00865
1.8219
0.599297
3.57458
1109.16
6.26496e+08
9.9685e+10
5.76258e+11
2.40149e+12
7.93725e+12
1.62076e+13
2.64253e+13
3.82669e+13
5.1554e+13
6.60553e+13
8.17502e+13
9.86715e+13
1.16542e+14
1.35248e+14
1.55003e+14
1.75508e+14
1.96622e+14
2.18645e+14
2.41296e+14
2.64358e+14
2.88231e+14
3.12645e+14
3.37328e+14
3.62711e+14
3.88537e+14
4.14522e+14
4.41078e+14
4.68473e+14
4718.18
7.1926e-06
7.01463e-05
263.445
18.6104
70.0825
12.8132
23.6153
35.23
16.5808
0.000656969
7.72092
2.22641
3.82612
4.26332
3.92413e-06
4.53898
2.63803
0.17626
2.94552
1.39774
1.35199
2.74873
0.971922
5.45186
3.85938
1.2851
7.22662
4.47038
2.40696
6.86617
4.37105
3.82145
6.92231
4.16874
4.99334
6.34955
3.57385
5.07336
6.04929
3.35587
7.26738
10.6305
1123.02
691.349
7.22293e+10
4.80322e+11
2.20637e+12
7.86035e+12
1.6248e+13
2.65401e+13
3.8438e+13
5.1778e+13
6.63217e+13
8.2041e+13
9.8976e+13
1.16852e+14
1.35559e+14
1.55315e+14
1.75821e+14
1.96931e+14
2.18944e+14
2.41587e+14
2.64644e+14
2.88499e+14
3.12904e+14
3.37589e+14
3.62968e+14
3.88795e+14
4.14789e+14
4.41347e+14
4.68728e+14
0.00751416
0.00636423
0.00396392
0.0014384
0.00368582
0.00403945
0.00367183
0.0022289
0.0200716
0.035521
0.00850992
0.00479587
0.00383199
0.00104581
0.00110314
0.000231188
0.000274986
0.000323426
8.95914e-05
0.000110478
0.000160756
7.04811e-05
9.87481e-05
0.000139383
0.0001052
7.91686
8.46637
13.5659
18.9195
16.0485
10.5061
17.0987
12.3279
8.51727
15.1531
9.98691
6.62361
12.0157
7.1637
4.96951
9.64926
6.95925
5.87441
79.9746
64.333
8.35527e+10
3.76036e+11
2.07776e+12
7.88589e+12
1.62793e+13
2.6657e+13