/*--------------------------------*- C++ -*----------------------------------*\
| =========                 |                                                 |
| \\      /  F ield         | OpenFOAM: The Open Source CFD Toolbox           |
|  \\    /   O peration     | Version:  v2012                                 |
|   \\  /    A nd           | Website:  www.openfoam.com                      |
|    \\/     M anipulation  |                                                 |
\*---------------------------------------------------------------------------*/
FoamFile
{
    version     2.0;
    format      ascii;
    class       volScalarField;
    location    "1e-06";
    object      totalPPrime2Mean;
}
// * * * * * * * * * * * * * * * * * * * * * * * * * * * * * * * * * * * * * //

dimensions      [2 -2 -4 0 0 0 0];


internalField   nonuniform List<scalar> 
10248
(
24120.5
5900.48
51.451
254.316
276.578
0.00780372
0.0010953
0.054829
30.1895
0.221004
0.146389
0.155589
0.0513349
0.00303203
0.159387
0.0560689
0.061364
0.126361
2401.07
0.0821898
0.0306996
5.60006
10.4282
78.7414
25.4106
0.0897806
0.000117945
0.00125309
0.0282021
15.6757
722.623
461.017
293.153
236.757
31.0017
1.50879
2.12833
2.05313
10.0455
29.8296
459.936
1.44303e+06
3.71859e+10
1.54958e+11
4.29597e+11
1.57915e+12
3.79356e+12
7.47492e+12
1.27723e+13
1.97791e+13
2.84935e+13
3.87817e+13
5.07167e+13
6.43666e+13
7.95173e+13
9.60935e+13
1.138e+14
1.32455e+14
1.52169e+14
1.72676e+14
1.93881e+14
2.15968e+14
2.38624e+14
2.61827e+14
2.8593e+14
3.10217e+14
3.34989e+14
3.6042e+14
3.86218e+14
4.12311e+14
4.38972e+14
4.66394e+14
7130.47
10.2819
5.41952
0.563432
3.81533
52.7389
15.1101
523.924
1020.98
1050.5
1771.45
3650.44
2080.59
2291.84
4212.28
2661.88
3120.98
2724.08
687.754
3009.68
1412.18
1247.11
1491.38
274.758
667.895
1847.05
710
1513.85
933.055
4.52321
79.7405
13.424
69.2147
62.4331
2.02951
192.866
1.27714
3.18216
32.2876
14.3751
457.945
744294
3.75369e+10
1.56303e+11
4.28347e+11
1.5746e+12
3.77993e+12
7.45415e+12
1.27625e+13
1.9768e+13
2.84786e+13
3.87816e+13
5.0707e+13
6.4344e+13
7.95174e+13
9.60935e+13
1.13783e+14
1.32455e+14
1.52169e+14
1.72663e+14
1.93877e+14
2.15968e+14
2.38625e+14
2.61813e+14
2.8585e+14
3.10191e+14
3.34949e+14
3.6042e+14
3.86195e+14
4.12239e+14
4.3893e+14
4.66356e+14
0.217989
0.335673
29.1227
363.597
284.642
462.048
231.163
353.484
1399.05
1424.75
2782.36
4840.25
2545.07
2974.61
4701.52
3084.2
4539.24
3031.71
604.794
6093.19
1607.6
1652.11
2842.25
839.891
1667.04
4019.35
810.434
1903.26
1148.71
13.9926
432.307
306.418
180.205
446.279
157.049
289.655
192.473
95.1409
98.8198
265.56
113.855
72454
3.80254e+10
1.58866e+11
4.25165e+11
1.56548e+12
3.76386e+12
7.42947e+12
1.27311e+13
1.97518e+13
2.84596e+13
3.87738e+13
5.06979e+13
6.43244e+13
7.95167e+13
9.60947e+13
1.13783e+14
1.32456e+14
1.5217e+14
1.72664e+14
1.93878e+14
2.15968e+14
2.38628e+14
2.61812e+14
2.85819e+14
3.10191e+14
3.34929e+14
3.60419e+14
3.86194e+14
4.12187e+14
4.38887e+14
4.6633e+14
1.03442
0.0481864
5.7205
148.058
192.033
64.3602
132.953
9.46895
211.646
687.725
1015.54
1416.5
810.023
274.144
1926.74
1130.6
1339.38
1789.14
164.465
1417.69
845.601
681.596
776.723
521.211
721.365
1216.98
123.406
125.981
144.701
10.0106
92.4095
276.919
122.214
65.0386
70.0726
8.25324
17.3737
11.9761
2.19802
2.58115
367.128
59423.6
3.77873e+10
1.61661e+11
4.22285e+11
1.55541e+12
3.74625e+12
7.40269e+12
1.26963e+13
1.9727e+13
2.84369e+13
3.87591e+13
5.06896e+13
6.43114e+13
7.95165e+13
9.60965e+13
1.13785e+14
1.32456e+14
1.52172e+14
1.72665e+14
1.93879e+14
2.15969e+14
2.3863e+14
2.61812e+14
2.85798e+14
3.10192e+14
3.3493e+14
3.6042e+14
3.86196e+14
4.12178e+14
4.3887e+14
4.66329e+14
0.0279105
0.00847466
52.1552
526.746
410.115
676.974
795.539
135.763
309.399
162.193
249.876
355.868
245.541
650.688
380.337
229.089
280.009
475.066
107.649
529.006
242.314
119.001
356.45
376.768
190.605
259.101
456.701
613.746
593.161
511.224
531.774
525.535
337.879
468.798
553.005
800.558
721.266
701.898
282.558
352.193
1499.25
72429.2
3.70961e+10
1.62859e+11
4.19839e+11
1.54446e+12
3.7269e+12
7.37374e+12
1.26592e+13
1.96894e+13
2.84078e+13
3.87413e+13
5.06803e+13
6.43011e+13
7.95178e+13
9.60988e+13
1.13786e+14
1.32458e+14
1.52175e+14
1.72668e+14
1.93882e+14
2.15971e+14
2.38634e+14
2.61814e+14
2.85799e+14
3.10195e+14
3.34932e+14
3.60421e+14
3.86198e+14
4.12179e+14
4.38871e+14
4.66331e+14
0.0379964
0.0306149
10.596
76.646
36.9312
39.6259
11.862
63.5976
44.0792
24.0335
374.536
396.662
123.816
18.8515
305.589
212.351
296
332.432
1.10539
182.054
49.4893
40.4704
164.917
34.8286
50.7803
131.278
13.8977
8.91973
42.8883
57.0463
73.1557
17.8461
3.33601
28.843
15.9332
5.63845
35.4533
9.59033
4.09181
54.6231
297.418
72319.2
3.60183e+10
1.57813e+11
4.19065e+11
1.53276e+12
3.70606e+12
7.34273e+12
1.26198e+13
1.96439e+13
2.83748e+13
3.87185e+13
5.06686e+13
6.4291e+13
7.952e+13
9.61024e+13
1.13788e+14
1.3246e+14
1.52179e+14
1.72672e+14
1.93885e+14
2.15975e+14
2.38639e+14
2.61817e+14
2.85801e+14
3.10198e+14
3.34934e+14
3.60424e+14
3.86201e+14
4.1218e+14
4.38868e+14
4.66333e+14
1.51588
0.0674876
1.43306
4.18826
0.0768787
6.781
15.3412
30.9021
14.1795
150.945
441.59
364.647
276.301
20.1549
482.301
159.059
147.451
264.922
5.12825
125.932
128.318
39.9521
187.463
178.944
82.6736
121.797
65.5122
8.06377
43.8982
24.166
27.8032
50.9371
33.3406
1.23001
9.48107
11.3652
7.63562
11.6189
1.00762
0.65635
439.686
73256.8
3.4717e+10
1.46643e+11
4.18111e+11
1.51996e+12
3.6832e+12
7.30909e+12
1.25777e+13
1.9596e+13
2.83371e+13
3.86912e+13
5.06566e+13
6.42871e+13
7.95222e+13
9.61064e+13
1.13792e+14
1.32464e+14
1.52183e+14
1.72677e+14
1.93889e+14
2.15979e+14
2.38644e+14
2.6182e+14
2.85805e+14
3.10203e+14
3.34938e+14
3.60427e+14
3.86205e+14
4.12183e+14
4.38869e+14
4.66336e+14
0.131816
0.0908794
1.73403
2.36286
9.12956
3.84492
4.99451
59.1595
38.8449
43.63
304.326
198.603
125.43
27.4754
262.512
64.9786
87.732
177.868
9.64273
70.6438
102.651
34.726
208.123
142.05
72.1036
165.536
101.113
70.2676
157.338
86.5316
120.993
89.8564
32.4568
74.1808
70.602
14.9471
56.4641
44.2586
5.80719
22.9251
352.607
106925
3.2107e+10
1.31592e+11
4.16736e+11
1.50602e+12
3.65812e+12
7.27272e+12
1.2533e+13
1.95458e+13
2.82933e+13
3.86611e+13
5.06436e+13
6.42875e+13
7.95238e+13
9.6111e+13
1.13797e+14
1.32469e+14
1.52189e+14
1.72684e+14
1.93893e+14
2.15984e+14
2.38651e+14
2.61824e+14
2.85809e+14
3.10209e+14
3.34942e+14
3.60431e+14
3.86211e+14
4.12187e+14
4.38872e+14
4.6634e+14
5.50104
0.147727
5.49183
11.1027
9.53168
22.8511
61.2949
6.33456
231.75
46.8961
121.438
12.2327
20.6106
66.2799
16.1372
11.2928
68.2709
22.4792
27.6602
69.0832
33.1242
12.6653
16.1855
26.3558
13.944
24.2183
22.6234
21.161
43.4805
16.5223
20.4089
37.5961
20.0601
16.9278
33.6596
12.884
15.9369
22.4443
5.39739
7.57585
681.641
2.00717e+07
2.78256e+10
1.17295e+11
4.14456e+11
1.49069e+12
3.6306e+12
7.23341e+12
1.24851e+13
1.9493e+13
2.82442e+13
3.86273e+13
5.06301e+13
6.42883e+13
7.95273e+13
9.61161e+13
1.13804e+14
1.32475e+14
1.52197e+14
1.72691e+14
1.93899e+14
2.1599e+14
2.38659e+14
2.6183e+14
2.85814e+14
3.10215e+14
3.34947e+14
3.60435e+14
3.86217e+14
4.12192e+14
4.38876e+14
4.66345e+14
0.00632325
0.0080197
0.389252
877.024
634.388
761.863
2037.45
528.575
1958.97
1969.97
257.16
1473.17
1138.75
1268.07
1600.83
781.252
1771.04
1822.02
590.195
2149.79
1863.6
769.615
1746.9
1378.22
1080.22
1981.94
1316.94
1482.84
1907.43
769.48
626.868
823.305
277.889
557.945
635.407
213.874
336.277
370.072
76.0264
138.352
2331.25
5.57284e+07
2.41327e+10
1.04738e+11
4.11402e+11
1.47397e+12
3.60042e+12
7.19083e+12
1.2434e+13
1.94375e+13
2.81877e+13
3.85907e+13
5.06158e+13
6.42894e+13
7.95312e+13
9.6122e+13
1.13813e+14
1.32483e+14
1.52205e+14
1.727e+14
1.93906e+14
2.15998e+14
2.38669e+14
2.61836e+14
2.8582e+14
3.10223e+14
3.34953e+14
3.60441e+14
3.86224e+14
4.12198e+14
4.3888e+14
4.66351e+14
0.329932
0.338804
0.126574
0.546541
129.633
106.088
15.466
2.61276
40.2505
320.343
0.821171
45.7356
124.635
68.2825
83.5823
57.6703
54.7381
133.151
21.9447
40.6519
62.1489
17.4753
24.3514
22.4691
14.7759
27.0588
15.1352
30.3594
40.32
18.6607
35.8987
20.4515
3.81032
32.232
32.2427
16.7615
35.4789
26.3976
7.28069
14.9448
1762.17
9.59868e+07
2.12732e+10
9.43108e+10
4.07789e+11
1.45591e+12
3.56792e+12
7.14498e+12
1.23796e+13
1.93793e+13
2.81292e+13
3.85467e+13
5.05944e+13
6.42914e+13
7.95368e+13
9.61314e+13
1.13822e+14
1.32492e+14
1.52216e+14
1.72711e+14
1.93915e+14
2.16007e+14
2.3868e+14
2.61845e+14
2.85828e+14
3.10233e+14
3.3496e+14
3.60448e+14
3.86233e+14
4.12205e+14
4.38887e+14
4.66359e+14
3.75175
0.39196
0.174593
0.275184
0.0877687
0.0394565
549.113
184.544
64.2283
34.4221
34.1698
24.7031
19.3496
17.6056
25.6124
11.4907
17.6755
22.2775
3.83967
22.6369
24.1362
6.99552
22.2296
16.349
9.95596
25.9952
19.283
33.5972
38.9767
16.0518
12.6718
10.6491
2.08462
14.2129
15.0048
7.25174
13.0337
10.2397
2.29223
2.28576
1927.78
1.92291e+08
1.90985e+10
8.57731e+10
4.02022e+11
1.43602e+12
3.53227e+12
7.09534e+12
1.23215e+13
1.93182e+13
2.80693e+13
3.85004e+13
5.05722e+13
6.42922e+13
7.95414e+13
9.61422e+13
1.13833e+14
1.32503e+14
1.52228e+14
1.72724e+14
1.93926e+14
2.16019e+14
2.38693e+14
2.61855e+14
2.85837e+14
3.10244e+14
3.34969e+14
3.60456e+14
3.86244e+14
4.12214e+14
4.38894e+14
4.66368e+14
0.422084
0.444111
0.188912
0.490718
0.263098
0.16425
179.352
66.4715
72.7633
2.13096
4.94009
11.776
1.32147
8.95518
10.2355
1.1692
16.5841
2.77721
1.28811
25.9435
7.05829
3.10017
16.7649
4.87506
3.41905
13.6407
4.63415
9.78392
10.9705
2.03535
4.08359
2.47641
0.116391
2.41665
2.0338
0.366642
0.993896
0.459635
0.0172709
1.92089
2258.66
2.6189e+08
1.70757e+10
7.87476e+10
3.94988e+11
1.41411e+12
3.49319e+12
7.0415e+12
1.22593e+13
1.92537e+13
2.8007e+13
3.84507e+13
5.05489e+13
6.42935e+13
7.95483e+13
9.61546e+13
1.13847e+14
1.32516e+14
1.52242e+14
1.72739e+14
1.93939e+14
2.16032e+14
2.38707e+14
2.61866e+14
2.85848e+14
3.10256e+14
3.3498e+14
3.60466e+14
3.86255e+14
4.12224e+14
4.38902e+14
4.66378e+14
2.63599
0.458299
0.237926
0.397556
0.160906
0.120837
0.0690286
0.000392193
27.0961
18.2563
3.06308
0.540438
2.63825
0.749552
0.983973
1.61053
0.736124
1.54242
1.20228
0.461501
0.239514
0.161666
0.183153
0.0429035
0.0694963
0.232193
0.191869
2.13006
1.42094
0.773267
1.01325
0.433503
0.346971
1.89227
1.1862
0.963774
2.78893
1.52299
0.800773
0.846024
2239.33
3.03442e+08
1.52936e+10
7.2879e+10
3.87129e+11
1.38996e+12
3.45034e+12
6.98317e+12
1.21928e+13
1.91859e+13
2.79426e+13
3.83997e+13
5.05251e+13
6.42959e+13
7.95586e+13
9.61694e+13
1.13863e+14
1.32531e+14
1.52259e+14
1.72756e+14
1.93954e+14
2.16047e+14
2.38724e+14
2.6188e+14
2.8586e+14
3.10271e+14
3.34992e+14
3.60478e+14
3.86269e+14
4.12236e+14
4.38913e+14
4.66389e+14
0.437183
0.460551
0.195563
0.498385
0.272134
0.150829
0.318492
0.100789
3.87123
12.1962
15.3552
18.8705
16.8208
13.0268
19.5167
20.9114
11.6223
25.14
15.6453
5.35472
10.4898
4.47092
1.87733
3.09602
1.70884
0.156897
0.64297
0.0269505
0.0715228
0.244483
0.0134945
0.055337
0.238457
0.0894595
0.172194
0.429701
0.581383
0.852407
0.90621
12.4315
2783.3
3.79877e+08
1.36978e+10
6.78546e+10
3.78283e+11
1.36328e+12
3.40333e+12
6.91986e+12
1.21215e+13
1.91143e+13
2.78763e+13
3.83434e+13
5.05007e+13
6.43017e+13
7.95713e+13
9.61865e+13
1.13882e+14
1.32549e+14
1.52278e+14
1.72775e+14
1.93971e+14
2.16065e+14
2.38742e+14
2.61896e+14
2.85875e+14
3.10287e+14
3.35007e+14
3.60491e+14
3.86285e+14
4.1225e+14
4.38924e+14
4.66403e+14
0.919326
0.343019
0.160219
0.333149
0.095415
0.0853507
0.0711847
1.40583e-05
10.4601
3.09839
12.6383
55.2169
21.9037
42.5433
57.7006
31.3415
65.3384
62.3225
22.4711
59.5343
43.7301
14.0526
27.6456
18.1998
7.40024
6.22377
3.31231
0.313004
1.8654
0.14419
0.0567823
0.653897
0.025344
0.184894
0.024726
0.277028
1.16691
0.234582
0.657536
1.86444
2607.73
4.66775e+08
1.23456e+10
6.34208e+10
3.68257e+11
1.33388e+12
3.35181e+12
6.85121e+12
1.20453e+13
1.90388e+13
2.78074e+13
3.8288e+13
5.04762e+13
6.4308e+13
7.95878e+13
9.62065e+13
1.13903e+14
1.32569e+14
1.523e+14
1.72797e+14
1.93991e+14
2.16085e+14
2.38763e+14
2.61915e+14
2.85893e+14
3.10306e+14
3.35024e+14
3.60507e+14
3.86303e+14
4.12266e+14
4.38939e+14
4.66418e+14
0.290869
0.27256
0.0653046
0.265503
0.134934
0.0818477
0.188566
0.0404536
10.5322
19.7535
18.2313
19.6765
16.9612
16.5037
28.5639
24.5031
26.8833
39.7278
40.0679
35.7941
38.1697
27.5455
39.9681
28.235
25.9383
38.2521
20.4608
18.3709
30.9782
13.6856
15.2636
20.2724
10.2657
16.9352
18.6454
9.24405
18.5943
19.247
9.78455
54.9893
3035.6
5.16358e+08
1.12009e+10
5.93689e+10
3.56863e+11
1.3014e+12
3.29531e+12
6.77662e+12
1.19634e+13
1.89589e+13
2.77366e+13
3.82318e+13
5.04528e+13
6.43178e+13
7.96066e+13
9.62293e+13
1.13927e+14
1.32593e+14
1.52325e+14
1.72823e+14
1.94014e+14
2.16108e+14
2.38787e+14
2.61936e+14
2.85913e+14
3.10327e+14
3.35043e+14
3.60525e+14
3.86323e+14
4.12285e+14
4.38955e+14
4.66436e+14
0.000668494
0.00286335
1.49542e-05
0.00194072
0.00158285
0.00173435
0.00310178
0.0212222
493.304
618.658
344.054
1174.69
796.791
860.217
1636.81
675.395
1220.78
1528.58
497.817
1134.59
1018.84
383.382
765.24
509.456
285.353
502.351
265.769
216.435
332.053
108.556
112.038
150.073
47.904
80.5965
98.5198
30.7652
58.6405
52.2543
17.101
6.13462
1718.56
5.27047e+08
1.02371e+10
5.54846e+10
3.43938e+11
1.26566e+12
3.23335e+12
6.69559e+12
1.18758e+13
1.88746e+13
2.76621e+13
3.81813e+13
5.04301e+13
6.43304e+13
7.96267e+13
9.62551e+13
1.13954e+14
1.3262e+14
1.52353e+14
1.72851e+14
1.94041e+14
2.16135e+14
2.38814e+14
2.6196e+14
2.85936e+14
3.10351e+14
3.35066e+14
3.60546e+14
3.86346e+14
4.12306e+14
4.38974e+14
4.66457e+14
0.031197
0.094868
0.104542
0.0698694
0.0213698
0.0152974
0.0215124
0.00100037
11.8512
6.38864
5.50335
23.5857
10.7711
22.4408
34.2267
20.9617
41.1881
52.3718
27.5603
49.0682
49.9484
23.9094
43.0524
33.2512
17.2562
30.9866
18.5708
10.3844
25.2743
7.44909
4.53199
10.3232
2.64975
1.5329
4.37748
0.631622
0.155885
0.985472
0.0465144
2.45693
2514.92
5.23205e+08
9.5157e+09
5.17728e+10
3.28987e+11
1.22557e+12
3.16433e+12
6.60694e+12
1.17813e+13
1.87849e+13
2.75856e+13
3.81398e+13
5.04299e+13
6.43385e+13
7.96425e+13
9.62813e+13
1.13985e+14
1.3265e+14
1.52386e+14
1.72884e+14
1.9407e+14
2.16165e+14
2.38844e+14
2.61987e+14
2.85962e+14
3.10379e+14
3.3509e+14
3.60569e+14
3.86371e+14
4.1233e+14
4.38995e+14
4.6648e+14
0.0592958
0.0345807
0.0128431
0.0237258
0.0144878
0.0341081
0.043044
0.0861694
44.8478
24.838
17.7088
58.0932
28.6847
32.007
54.3424
21.1277
39.4864
46.9291
7.62708
27.2458
23.407
4.31601
13.2936
7.87055
4.11765
7.9244
3.5878
3.16472
5.39321
2.13334
2.97012
3.71305
1.6412
3.86913
4.09111
2.28237
5.72744
6.26984
3.65566
29.3956
2945.73
4.77754e+08
8.98174e+09
4.76115e+10
3.12195e+11
1.18133e+12
3.08874e+12
6.51061e+12
1.16793e+13
1.86901e+13
2.75075e+13
3.80903e+13
5.04274e+13
6.43503e+13
7.96638e+13
9.63111e+13
1.14019e+14
1.32684e+14
1.52422e+14
1.72921e+14
1.94104e+14
2.16199e+14
2.38878e+14
2.62017e+14
2.85991e+14
3.10409e+14
3.35118e+14
3.60595e+14
3.864e+14
4.12357e+14
4.39019e+14
4.66505e+14
0.139354
0.0154179
0.00510518
0.0491112
0.0167948
0.0106828
0.0136661
0.0107347
27.5036
21.6578
21.4543
38.8272
24.6659
21.8083
34.2202
14.7707
9.56275
14.5645
1.25882
0.906807
1.82125
0.0524166
0.158396
0.0425421
0.321252
1.07309
0.255495
1.52455
1.15521
0.658505
2.13218
1.57157
1.22914
3.7618
3.06186
2.07844
6.01281
4.70361
4.24978
3.1676
2082.99
3.92437e+08
8.4491e+09
4.32214e+10
2.93384e+11
1.1328e+12
3.00602e+12
6.4059e+12
1.15699e+13
1.859e+13
2.74251e+13
3.80424e+13
5.04289e+13
6.43625e+13
7.96885e+13
9.6346e+13
1.14058e+14
1.32723e+14
1.52463e+14
1.72963e+14
1.94142e+14
2.16238e+14
2.38918e+14
2.62053e+14
2.86025e+14
3.10444e+14
3.3515e+14
3.60626e+14
3.86433e+14
4.12389e+14
4.39047e+14
4.66534e+14
5.94849
0.0455607
0.0885079
0.0716473
0.0791278
0.00561361
0.00701185
0.00837123
9.15841
10.7198
9.96016
12.4901
7.91475
4.96363
7.8513
3.83358
1.18913
1.88041
1.00238
0.133949
0.152566
0.449106
0.192075
0.0524173
0.499233
0.606295
0.242075
0.560904
1.02502
0.815498
1.28308
1.54327
1.41168
2.54488
2.82037
2.46445
4.61453
5.29745
5.49078
23.5551
2282.93
3.24613e+08
7.98302e+09
3.85953e+10
2.72467e+11
1.07948e+12
2.91543e+12
6.29205e+12
1.14519e+13
1.8484e+13
2.7341e+13
3.79859e+13
5.04262e+13
6.43836e+13
7.972e+13
9.63854e+13
1.14102e+14
1.32768e+14
1.52509e+14
1.7301e+14
1.94186e+14
2.16281e+14
2.38962e+14
2.62093e+14
2.86063e+14
3.10484e+14
3.35188e+14
3.6066e+14
3.8647e+14
4.12426e+14
4.39079e+14
4.66567e+14
5.44173
0.277135
0.285389
0.658038
0.34141
0.267414
0.317552
0.132958
41.6578
29.1471
15.5653
29.2297
15.5123
9.26733
18.5031
2.54802
2.06399
3.52085
0.848605
0.0351076
0.127053
0.836274
0.365625
0.0651047
0.746494
1.0378
0.394537
1.46795
0.89705
0.91296
1.85508
1.30685
1.32565
2.78685
2.10754
2.81749
6.1346
5.12248
6.40625
6.65091
1316.85
3.0886e+08
6.82751e+09
3.38774e+10
2.49497e+11
1.02134e+12
2.81629e+12
6.16824e+12
1.13255e+13
1.83719e+13
2.72512e+13
3.79346e+13
5.04308e+13
6.44099e+13
7.9755e+13
9.64307e+13
1.14152e+14
1.32819e+14
1.52562e+14
1.73064e+14
1.94237e+14
2.16331e+14
2.39012e+14
2.6214e+14
2.86107e+14
3.1053e+14
3.35231e+14
3.60701e+14
3.86513e+14
4.12468e+14
4.39118e+14
4.66606e+14
11.6047
3.30112
0.69497
0.731772
0.537428
0.279079
0.307458
0.0786911
16.1254
9.75083
20.7786
27.1866
17.0517
25.6997
30.1959
23.8936
21.7167
19.3828
26.4058
15.9875
10.8056
12.732
13.7986
7.51809
10.542
14.9195
7.31684
10.7842
15.0842
8.38541
14.737
17.0633
10.3543
19.9268
21.2652
14.3731
28.369
28.4498
20.1372
54.225
1248.22
2.02544e+08
5.41447e+09
2.92958e+10
2.24489e+11
9.57956e+11
2.70781e+12
6.03358e+12
1.11892e+13
1.82533e+13
2.71603e+13
3.78757e+13
5.04365e+13
6.44367e+13
7.97977e+13
9.64807e+13
1.14209e+14
1.32876e+14
1.52621e+14
1.73124e+14
1.94294e+14
2.16386e+14
2.39068e+14
2.62193e+14
2.86156e+14
3.10581e+14
3.35281e+14
3.60747e+14
3.86561e+14
4.12517e+14
4.39162e+14
4.66649e+14
0.0656125
0.00222683
0.0299223
0.0096938
0.0265858
0.00160597
0.00240095
2.31331e-05
71.1
268.648
217.815
456.039
307.404
291.341
473.507
201.857
221.942
251.019
95.0672
120.103
99.5124
44.0249
68.3609
44.5071
29.9347
52.9946
29.015
29.3973
47.7083
22.8947
30.046
42.2267
20.484
31.1634
38.4329
17.2181
29.1301
32.4017
12.8016
23.0476
136.778
1.66022e+08
4.18795e+09
2.53453e+10
1.97773e+11
8.89525e+11
2.58912e+12
5.8871e+12
1.10436e+13
1.81277e+13
2.7062e+13
3.78325e+13
5.04471e+13
6.44636e+13
7.98444e+13
9.65358e+13
1.14274e+14
1.32942e+14
1.52688e+14
1.73192e+14
1.94359e+14
2.1645e+14
2.39132e+14
2.62253e+14
2.86214e+14
3.10639e+14
3.35337e+14
3.60799e+14
3.86615e+14
4.12571e+14
4.39213e+14
4.66699e+14
17.6808
16.703
1.02145
2.78693
1.53868
1.35531
1.50843
0.355446
26.0562
49.2999
34.4025
36.9655
31.8506
19.0276
37.2182
18.9458
12.4532
20.9924
4.59473
5.77263
7.88376
1.96356
2.28704
2.70125
0.561407
0.920639
0.899394
0.101907
0.615012
0.25072
0.0489739
0.223613
0.0364872
0.440623
0.116644
0.514466
2.82728
1.65697
3.10394
8.96823
233.126
7.99981e+07
3.51495e+09
2.28286e+10
1.6937e+11
8.14804e+11
2.45783e+12
5.72688e+12
1.08864e+13
1.79945e+13
2.69634e+13
3.78061e+13
5.04645e+13
6.4503e+13
7.9892e+13
9.66054e+13
1.14348e+14
1.33016e+14
1.52763e+14
1.73268e+14
1.94431e+14
2.16521e+14
2.39203e+14
2.6232e+14
2.86278e+14
3.10703e+14
3.35398e+14
3.60858e+14
3.86676e+14
4.12631e+14
4.39268e+14
4.66754e+14
9.32653
6.76347
1.38612
1.67697
1.67786
0.973749
1.36802
0.595957
3.14678
0.764102
0.301949
4.29316
2.40764
3.06492
6.78282
2.95018
3.1714
4.30408
2.81341
2.36963
2.07442
1.86217
2.41375
1.39433
1.98306
3.5716
1.57786
2.72647
3.91746
2.1083
4.11718
5.30075
3.73049
6.78303
8.24992
6.64344
11.4923
13.6095
11.4152
19.9994
200.465
26314.1
3.7348e+09
2.28843e+10
1.40515e+11
7.34771e+11
2.31499e+12
5.5532e+12
1.07169e+13
1.78544e+13
2.68684e+13
3.77681e+13
5.04778e+13
6.45499e+13
7.99567e+13
9.66824e+13
1.14431e+14
1.33098e+14
1.52846e+14
1.73352e+14
1.94511e+14
2.166e+14
2.39282e+14
2.62395e+14
2.86349e+14
3.10775e+14
3.35468e+14
3.60923e+14
3.86744e+14
4.12699e+14
4.3933e+14
4.66815e+14
32.5074
35.284
0.227555
0.0663919
3.08448
4.15285
4.41992
2.05484
0.53646
4.45973
1.23204
7.10184
3.00049
0.0383226
0.452724
0.12816
0.392757
0.18458
1.50955
0.672355
0.440847
1.65603
1.09779
0.703839
1.81038
1.24949
0.675287
2.31036
1.94486
1.88678
3.23199
3.03662
3.55786
5.49489
5.60813
6.65622
10.0964
10.5971
12.3268
18.8802
11.0663
7413.54
2.1453e+09
2.09883e+10
1.1234e+11
6.50431e+11
2.15988e+12
5.36488e+12
1.05358e+13
1.77072e+13
2.67678e+13
3.77543e+13
5.05048e+13
6.46043e+13
8.00286e+13
9.67696e+13
1.14524e+14
1.33191e+14
1.52941e+14
1.73448e+14
1.94603e+14
2.1669e+14
2.39372e+14
2.6248e+14
2.8643e+14
3.10857e+14
3.35548e+14
3.60998e+14
3.86821e+14
4.12777e+14
4.39402e+14
4.66885e+14
26.767
31.1497
7.03247
16.0259
2.22867
2.21017
3.82242
2.03558
1.05793
1.76508
0.759465
11.3973
5.7403
12.6679
12.8392
8.11058
11.0761
8.10043
9.00313
9.9754
5.80343
8.10373
10.6891
5.75839
9.25297
12.4248
6.32096
13.0306
16.2453
10.6118
18.8759
20.127
14.9868
25.8665
25.1108
19.9665
34.9298
32.9167
27.6196
52.542
132.932
5985.12
1.82404e+09
1.39212e+10
8.59661e+10
5.62678e+11
1.99191e+12
5.1611e+12
1.03416e+13
1.75526e+13
2.66726e+13
3.77472e+13
5.0528e+13
6.46611e+13
8.01163e+13
9.68661e+13
1.14628e+14
1.33296e+14
1.53046e+14
1.73555e+14
1.94707e+14
2.1679e+14
2.39473e+14
2.62577e+14
2.86521e+14
3.10948e+14
3.35638e+14
3.61083e+14
3.86906e+14
4.12864e+14
4.39484e+14
4.66963e+14
1.68084
2.4597
273.774
0.00215463
0.123579
0.000210647
0.0503172
0.055339
0.000169047
0.0205683
0.00270557
67.5533
83.1465
66.8504
88.4904
38.7014
40.8776
42.982
19.7495
27.2765
22.145
13.5212
22.3431
15.0227
13.782
24.2368
14.6392
17.1573
25.547
15.1111
20.9647
27.0539
15.2009
22.703
25.5254
13.0389
21.5436
21.5428
10.3655
20.2626
5.64646
1739.19
1.26642e+09
1.283e+10
6.32001e+10
4.72965e+11
1.8107e+12
4.94087e+12
1.01361e+13
1.73904e+13
2.65647e+13
3.7748e+13
5.05649e+13
6.4738e+13
8.02116e+13
9.69703e+13
1.14742e+14
1.33414e+14
1.53166e+14
1.73674e+14
1.94824e+14
2.16905e+14
2.39585e+14
2.62686e+14
2.86626e+14
3.1105e+14
3.35739e+14
3.61181e+14
3.87002e+14
4.12961e+14
4.39578e+14
4.67052e+14
366.023
323.188
118.74
35.7178
42.4968
0.140747
0.346555
4.12644
5.14226
0.420829
1.85918
26.1383
28.506
8.88243
13.7696
7.51967
2.83338
4.24267
1.49244
1.00765
1.51501
0.294888
0.385417
0.500714
0.00954199
0.101395
0.14004
0.049092
0.0275012
0.0238766
0.272961
0.0902538
0.387236
1.14799
0.83008
1.92141
3.88625
3.6182
6.29093
10.8423
5.35542
1021.31
4.92572e+08
8.25912e+09
4.64119e+10
3.8269e+11
1.61484e+12
4.7024e+12
9.91671e+12
1.72208e+13
2.64618e+13
3.77556e+13
5.06259e+13
6.48194e+13
8.03099e+13
9.70938e+13
1.1487e+14
1.33546e+14
1.53299e+14
1.73807e+14
1.94955e+14
2.17035e+14
2.3971e+14
2.62808e+14
2.86744e+14
3.11165e+14
3.3585e+14
3.6129e+14
3.87111e+14
4.13067e+14
4.39683e+14
4.67152e+14
2.34811
2.34358
4.96957
21.83
13.9526
6.96912
9.14805
3.8633
3.21858
3.25977
2.41412
5.63304
7.30502
12.6942
18.732
6.77711
11.6372
14.1088
7.51249
9.9992
9.28418
8.93107
12.6477
8.67728
11.8064
17.5551
10.2695
15.7865
20.3242
14.0799
20.9683
24.294
18.9475
27.144
29.6366
24.8597
35.1389
37.436
34.2369
49.7085
57.8302
403.129
3.77074e+07
6.64653e+09
4.15939e+10
2.96123e+11
1.4076e+12
4.44733e+12
9.68362e+12
1.70454e+13
2.63798e+13
3.77768e+13
5.06859e+13
6.49091e+13
8.04332e+13
9.72279e+13
1.15013e+14
1.33692e+14
1.53447e+14
1.73955e+14
1.95102e+14
2.17178e+14
2.3985e+14
2.62944e+14
2.86874e+14
3.11292e+14
3.35976e+14
3.61411e+14
3.87231e+14
4.13188e+14
4.39798e+14
4.67262e+14
2.5804
0.122797
746290
0.191132
0.0897388
1.81999e-05
0.0880063
0.00119857
0.00569114
0.0525073
0.0518169
4.26313e-05
1.28743
31.8831
65.5977
34.7376
23.2986
40.464
21.7588
15.4227
22.3273
15.0503
16.9997
16.2612
13.3916
19.6219
15.3199
14.4159
21.7532
16.4333
16.0219
23.7253
17.5629
16.425
23.5954
16.8341
15.2468
21.0946
15.5217
14.3153
18.1715
8.56667
5803.63
4.18952e+09
4.7591e+10
2.19029e+11
1.19249e+12
4.17555e+12
9.4401e+12
1.68646e+13
2.63027e+13
3.77971e+13
5.07626e+13
6.50256e+13
8.05642e+13
9.73729e+13
1.15171e+14
1.33856e+14
1.53613e+14
1.74121e+14
1.95266e+14
2.17339e+14
2.40007e+14
2.63097e+14
2.87022e+14
3.11435e+14
3.36117e+14
3.61549e+14
3.87366e+14
4.13323e+14
4.3993e+14
4.67387e+14
943.613
1031.89
358.508
163.354
156.844
30.4532
45.432
0.302445
0.799723
9.62976
2.65504
3.56444
35.3736
5.41674
9.29345
12.2318
0.771616
3.50009
4.57733
0.037574
1.23586
0.515284
0.0604465
0.461376
0.0349265
0.265286
0.10169
0.476257
0.475195
0.0267538
1.27667
0.922962
0.211129
2.87132
2.05908
1.04997
6.25216
5.02179
3.61208
13.1238
11.8798
2.82792
1865.22
2.05624e+09
2.83238e+10
1.56221e+11
9.72854e+11
3.8869e+12
9.18583e+12
1.66781e+13
2.62779e+13
3.78297e+13
5.08484e+13
6.51507e+13
8.07167e+13
9.75449e+13
1.15348e+14
1.34037e+14
1.53797e+14
1.74305e+14
1.95448e+14
2.17517e+14
2.40181e+14
2.63266e+14
2.87184e+14
3.11594e+14
3.36272e+14
3.61699e+14
3.87516e+14
4.13473e+14
4.40074e+14
4.67526e+14
1044.59
1170.61
105.932
93.1668
100.527
54.0355
23.5583
0.628592
2.93129
8.31649
3.05815
7.72785
8.27733
1.90407
0.117007
1.51179
0.282242
1.44683
0.217421
1.68819
1.99861
1.63908
3.2987
2.16874
3.43279
5.61942
2.68624
4.97113
6.86693
4.09227
6.98239
8.82122
6.20104
9.67087
11.7548
9.24687
13.7755
16.3407
14.4359
20.8093
24.5607
27.5224
899.773
3.70652e+06
2.99611e+10
1.17341e+11
7.59737e+11
3.58615e+12
8.92279e+12
1.64862e+13
2.62776e+13
3.78723e+13
5.09421e+13
6.52816e+13
8.08745e+13
9.77255e+13
1.15545e+14
1.34235e+14
1.53998e+14
1.74512e+14
1.95647e+14
2.1771e+14
2.40375e+14
2.63451e+14
2.87359e+14
3.11772e+14
3.36447e+14
3.61861e+14
3.87684e+14
4.13644e+14
4.4023e+14
4.67677e+14
186.412
114.789
88.363
369.111
162.292
121.67
119.924
17.6844
15.8235
18.9471
4.78665
3.66659
6.83369
0.0807237
1.86283
0.114325
0.00992073
0.530874
1.38979
0.610712
1.35416
3.27139
2.38496
2.26885
5.3505
4.66513
3.56316
6.55071
6.53662
5.68345
7.73812
8.81014
8.69579
9.81527
11.9277
12.591
13.5279
16.8823
18.6076
20.2129
25.1694
27.8274
141.268
26509.1
1.08896e+10
1.21288e+11
5.71768e+11
3.27656e+12
8.65935e+12
1.63027e+13
2.62988e+13
3.79431e+13
5.10588e+13
6.54442e+13
8.10559e+13
9.79247e+13
1.15762e+14
1.34453e+14
1.5422e+14
1.7474e+14
1.95866e+14
2.17919e+14
2.40588e+14
2.63655e+14
2.87549e+14
3.11969e+14
3.36642e+14
3.62041e+14
3.8787e+14
4.13837e+14
4.40407e+14
4.67844e+14
741.671
2473.2
991.866
580.833
316.718
70.7086
67.5331
18.258
3.12062
1.24859
0.27376
8.72249
3.06416
16.0429
9.4593
3.14098
16.4739
11.0898
10.6817
20.0872
13.363
22.0912
19.9876
11.5821
23.7968
21.1851
11.1834
24.3977
20.8891
15.0357
27.9244
21.8552
19.6707
32.3825
23.8666
24.4405
37.7408
27.4617
29.8543
46.7983
35.6027
43.288
259.854
11139.8
8.17e+09
1.19727e+11
4.40947e+11
2.96454e+12
8.40164e+12
1.62058e+13
2.63129e+13
3.80207e+13
5.11935e+13
6.56166e+13
8.12516e+13
9.81445e+13
1.16001e+14
1.34693e+14
1.54461e+14
1.74985e+14
1.96101e+14
2.18143e+14
2.40814e+14
2.63876e+14
2.87756e+14
3.1218e+14
3.36856e+14
3.62239e+14
3.88073e+14
4.1405e+14
4.40603e+14
4.68029e+14
70.3699
40.0434
79.5039
17.3441
1.2748
5.95856
0.33559
1154.97
0.067168
0.00300335
0.0248835
0.00946889
0.10439
0.00129377
0.0267066
0.029215
6.58017e-05
0.0174977
0.00182042
33.3279
10.8958
22.7311
23.0344
17.1636
17.5961
20.1209
13.3863
16.5722
18.6596
12.539
16.8327
17.506
11.876
16.9279
15.931
10.6359
15.532
13.119
8.26291
14.0705
11.2654
7.17667
5.64823
1906.27
5.99426e+09
8.04978e+10
4.3898e+11
2.6657e+12
8.1609e+12
1.61878e+13
2.63394e+13
3.81292e+13
5.13622e+13
6.58334e+13
8.14911e+13
9.83941e+13
1.16259e+14
1.3496e+14
1.54723e+14
1.75239e+14
1.9635e+14
2.18383e+14
2.41046e+14
2.6411e+14
2.87986e+14
3.12404e+14
3.37084e+14
3.62466e+14
3.88294e+14
4.14277e+14
4.40829e+14
4.68239e+14
2.16188
151.808
232.081
1435.63
666.669
964.173
778.926
234.573
276.409
207.079
28.8627
38.4567
47.8798
7.03251
24.23
0.994254
5.52714
5.39097
1.00936
1.20423
1.03563
0.0703723
0.0500322
0.0445024
1.03996
0.546138
0.108765
1.8024
1.02247
0.72832
2.55203
1.9007
2.12137
3.62683
3.164
4.30612
5.90525
5.75587
8.23028
9.93693
10.4183
15.0639
10.149
1062.98
6.40693e+08
9.99718e+10
5.76378e+11
2.40167e+12
7.93724e+12
1.62073e+13
2.64249e+13
3.82664e+13
5.15534e+13
6.60547e+13
8.17495e+13
9.86708e+13
1.16541e+14
1.35247e+14
1.55002e+14
1.75508e+14
1.96621e+14
2.18645e+14
2.41295e+14
2.64357e+14
2.8823e+14
3.12644e+14
3.37327e+14
3.6271e+14
3.88536e+14
4.14521e+14
4.41077e+14
4.68472e+14
960.309
1072.53
1659.98
3537.01
3049.28
2497.92
2792.14
799.674
209.255
194.881
57.2803
6.29857
5.87661
0.118922
0.217532
0.0003488
6.37949
5.18775
0.544072
8.68061
6.62549
7.8321
11.7314
7.52142
17.6817
16.3321
9.56065
21.926
18.5695
13.3455
22.8928
19.5124
17.8253
25.2562
20.7022
22.4632
27.3121
22.0182
25.9415
31.0509
25.5037
35.7156
49.3383
1406.77
79768.2
7.25171e+10
4.80514e+11
2.20634e+12
7.86026e+12
1.62477e+13
2.65396e+13
3.84373e+13
5.17773e+13
6.63209e+13
8.20401e+13
9.8975e+13
1.16851e+14
1.35558e+14
1.55314e+14
1.7582e+14
1.9693e+14
2.18943e+14
2.41586e+14
2.64643e+14
2.88497e+14
3.12903e+14
3.37588e+14
3.62967e+14
3.88793e+14
4.14788e+14
4.41346e+14
4.68727e+14
16.8286
17.5299
89.2583
0.501272
36.8938
40.3707
3.16216
175.058
10.4245
0.214072
12.0811
0.357053
0.0630336
0.165363
0.0306056
0.0263094
0.000398885
0.00361084
0.0145921
0.000994934
0.00129702
0.046285
0.000353365
0.000271603
0.035635
7.97229
8.65048
14.6242
18.9206
16.9426
11.181
17.1449
13.5603
8.9526
15.2592
11.4256
6.91222
12.1492
8.54602
5.21467
9.84375
8.54108
5.98646
87.8884
47816.8
8.38873e+10
3.76306e+11
2.07764e+12
7.88589e+12
1.6279e+13
2.66566e+13
3.86384e+13
5.20256e+13
6.66145e+13
8.2373e+13
9.93208e+13
1.17202e+14
1.35928e+14
1.55674e+14
1.76166e+14
1.97284e+14
2.19284e+14
2.41904e+14
2.64962e+14
2.88809e+14
3.13188e+14
3.37871e+14
3.63255e+14
3.8907e+14
4.15071e+14
4.41649e+14
4.69012e+14
15.8981
46.8475
10.4597
184.496
164.083
441.474
674.53
231.435
1205.92
650.32
332.463
385.228
287.301
96.1969
148.486
36.2359
26.6187
31.4605
5.23351
3.80432
8.22381
0.275998
0.607097
4.60187
0.0185436
0.103871
3.14829
0.346396
0.0121776
0.779741
1.33967
0.230768
0.012048
2.98105
0.757344
0.729867
5.08721
1.97402
2.6683
8.14284
4.27586
5.43186
6.8359