/*--------------------------------*- C++ -*----------------------------------*\
| =========                 |                                                 |
| \\      /  F ield         | OpenFOAM: The Open Source CFD Toolbox           |
|  \\    /   O peration     | Version:  v2012                                 |
|   \\  /    A nd           | Website:  www.openfoam.com                      |
|    \\/     M anipulation  |                                                 |
\*---------------------------------------------------------------------------*/
FoamFile
{
    version     2.0;
    format      ascii;
    class       volScalarField;
    location    "1e-06";
    object      totalPMean;
}
// * * * * * * * * * * * * * * * * * * * * * * * * * * * * * * * * * * * * * //

dimensions      [1 -1 -2 0 0 0 0];


internalField   nonuniform List<scalar> 
10248
(
2095.08
2071.7
1947.67
1994.89
1951.6
2025.37
2017.7
2006.13
2006.06
2010.09
2024.99
2025.22
2025.71
2022.4
2019.57
2018.28
2015.49
2014.49
3371.11
2020.9
2021.2
2025.03
2040.81
2047.86
2075.44
2080.89
2095.94
2097.25
2073.42
2067.4
1979.93
2063.81
2248.08
2415.91
2373.68
2532.02
2549.01
2552.54
2716.17
2845.33
2849.72
4464.91
165311
380832
693907
1.02152e+06
1.37827e+06
1.76419e+06
2.15449e+06
2.54527e+06
2.93249e+06
3.31147e+06
3.68686e+06
4.06173e+06
4.43071e+06
4.79477e+06
5.14923e+06
5.49279e+06
5.83127e+06
6.16018e+06
6.4796e+06
6.7956e+06
7.10295e+06
7.40195e+06
7.70131e+06
7.98965e+06
8.27188e+06
8.55277e+06
8.82736e+06
9.09543e+06
9.36147e+06
9.62794e+06
2063.99
2019.18
1948.89
1876.29
1833.94
1815.64
1700.22
1789.37
1806.23
1844.09
1852.88
1667.61
1729.48
1636.89
1563.89
1752.31
1702.53
1662.52
1856.35
1713.93
1711.21
1802.78
1738.64
1804.18
1927.78
1839.33
1934.71
2002.42
1859.43
1923.87
1993.87
2077.67
2343.31
2544.64
2515.6
2657.44
2738.02
2756.1
2935.6
3155.19
3165.47
4295.88
165625
381070
693914
1.0213e+06
1.37759e+06
1.76329e+06
2.15467e+06
2.54555e+06
2.9325e+06
3.3121e+06
3.68728e+06
4.06164e+06
4.43126e+06
4.79546e+06
5.14936e+06
5.49328e+06
5.83183e+06
6.16041e+06
6.47994e+06
6.79611e+06
7.10347e+06
7.40258e+06
7.70075e+06
7.98977e+06
8.27173e+06
8.55313e+06
8.82754e+06
9.095e+06
9.36135e+06
9.62793e+06
2029.98
2018.68
1974.44
1956.14
1907.92
1896.13
1764.82
1851.51
1877.89
1920.71
1930.09
1742.81
1775.25
1894.8
1648.44
1813.58
1782.19
1730.78
1914.49
1833.41
1805.55
1906.73
1902.55
1938.45
2083.59
2052.5
2085.8
2190.97
2082.54
2130.61
2301.73
2388.09
2644.51
2838.38
2782.27
2944.17
3095.23
3117.06
3316.46
3580.35
3599.09
4159.11
165728
381173
693391
1.02045e+06
1.37676e+06
1.76241e+06
2.15383e+06
2.54568e+06
2.93264e+06
3.31263e+06
3.6878e+06
4.06192e+06
4.43194e+06
4.79616e+06
5.15004e+06
5.49389e+06
5.83243e+06
6.16101e+06
6.48049e+06
6.79667e+06
7.10399e+06
7.40292e+06
7.70095e+06
7.99029e+06
8.27199e+06
8.55358e+06
8.828e+06
9.09495e+06
9.36136e+06
9.62809e+06
2023.72
2019.58
1973.97
1955.47
1918.4
1897.67
1775.7
1874.81
1872.11
1937.25
1965.79
1759.33
1784.15
1870.18
1676.91
1833.57
1790.24
1774.16
1926.24
1833.45
1826.62
1947.12
1919.53
1962.1
2113.84
2080.51
2097.34
2175.51
2089.22
2157.52
2323.17
2413.57
2687.63
2830.28
2782.94
2921.97
3052.92
3093.78
3365.36
3569.58
3608.12
4218.31
165721
380893
692274
1.01869e+06
1.37502e+06
1.76072e+06
2.15208e+06
2.5447e+06
2.93196e+06
3.31226e+06
3.68764e+06
4.06171e+06
4.43201e+06
4.79623e+06
5.15012e+06
5.49396e+06
5.83248e+06
6.16107e+06
6.48061e+06
6.7967e+06
7.10407e+06
7.40312e+06
7.70069e+06
7.99034e+06
8.27204e+06
8.55361e+06
8.82804e+06
9.09488e+06
9.36123e+06
9.62811e+06
2044.64
2038.42
1965.86
1927.43
1898.89
1904.3
1777.44
1918.34
1877.03
1935.38
2007.14
1813.92
1827.32
1904.27
1746.41
1903.78
1879.28
1883.86
2028.2
1931.58
1935.5
2057.56
2053.81
2081.83
2242.07
2225.11
2228.46
2300.97
2250.3
2364.26
2499.98
2577.59
2811.53
2921.89
2886.71
3005.93
3214.5
3255.83
3547.49
3782.76
3831.94
4511.08
166089
380776
691468
1.01718e+06
1.37354e+06
1.75922e+06
2.15061e+06
2.54361e+06
2.93141e+06
3.31218e+06
3.68786e+06
4.0619e+06
4.43246e+06
4.79667e+06
5.15055e+06
5.49434e+06
5.83288e+06
6.16146e+06
6.48093e+06
6.79707e+06
7.10445e+06
7.40342e+06
7.70101e+06
7.99068e+06
8.27232e+06
8.5539e+06
8.82834e+06
9.09514e+06
9.36146e+06
9.62837e+06
2060.85
2057.64
2017.07
2027.78
1985.36
1998.14
1867.16
1991.83
1939.28
1983.5
2081.58
1915.75
1912.38
1973.81
1853.37
1985.28
1978.66
1977.78
2076.69
2060.53
2058.07
2173.96
2207.02
2229.1
2368.45
2377.81
2371.92
2457.14
2443.04
2588.03
2748.45
2819.93
3005.47
3131.2
3117.77
3215.55
3475.57
3514.64
3761.51
4019.88
4073.98
4723.93
166796
381356
690961
1.01535e+06
1.37174e+06
1.75739e+06
2.14889e+06
2.54202e+06
2.93056e+06
3.31179e+06
3.68785e+06
4.06194e+06
4.43276e+06
4.79698e+06
5.15081e+06
5.49456e+06
5.83313e+06
6.16172e+06
6.48113e+06
6.79728e+06
7.10468e+06
7.40356e+06
7.70118e+06
7.99088e+06
8.27246e+06
8.55404e+06
8.8285e+06
9.09525e+06
9.36152e+06
9.62848e+06
2060.12
2059.58
2025.56
2027.37
1991.57
2016.55
1891.82
2015.86
1933.19
1981.18
2102.97
1924.58
1924.61
1969.4
1871.94
1994.42
1974.21
1980.54
2074.97
2053.9
2062.45
2187.19
2212.26
2242.89
2375.51
2379.14
2384.98
2461.43
2454.49
2623.36
2780.33
2844.51
3057.12
3143.43
3139.21
3273.36
3509.14
3551.44
3818.24
4047.64
4107.72
4781.06
166984
381864
690031
1.01305e+06
1.3695e+06
1.75522e+06
2.14678e+06
2.54009e+06
2.92934e+06
3.31107e+06
3.68762e+06
4.06192e+06
4.43287e+06
4.7971e+06
5.15092e+06
5.49466e+06
5.83322e+06
6.16181e+06
6.48122e+06
6.79734e+06
7.10478e+06
7.40364e+06
7.70122e+06
7.99096e+06
8.2725e+06
8.55408e+06
8.82855e+06
9.09527e+06
9.36152e+06
9.62852e+06
2092.17
2089.19
2070.76
2072.21
2033.23
2071.07
1946.19
2070.77
1982.79
2013.46
2154.89
1991.47
1981.25
2015.78
1939.4
2041.8
2031.06
2040.45
2129.84
2115.01
2127.86
2248.8
2292.47
2318.18
2440.6
2464.18
2468.72
2558.3
2569.18
2750.92
2932.56
2985.55
3168.98
3252.38
3260.67
3408.52
3653
3695.23
3947.14
4184.8
4248.31
4954.99
167929
382876
688859
1.01062e+06
1.36716e+06
1.75296e+06
2.14464e+06
2.53818e+06
2.92801e+06
3.31033e+06
3.68745e+06
4.0621e+06
4.43304e+06
4.79732e+06
5.15114e+06
5.49484e+06
5.83342e+06
6.162e+06
6.48135e+06
6.7975e+06
7.10495e+06
7.40377e+06
7.70134e+06
7.9911e+06
8.2726e+06
8.55417e+06
8.82866e+06
9.09535e+06
9.36159e+06
9.6286e+06
2089.04
2092.55
2090.73
2077.99
2060.48
2092.68
1968.8
2092.17
1971.06
1999.17
2161.14
1980.93
1977.82
2003.91
1934.05
2041.37
2013.09
2024.17
2128.22
2094.26
2115.72
2250.23
2271.43
2307.03
2428.02
2438.52
2460.34
2549.01
2555.73
2758.37
2931.01
2972.92
3179.32
3244.1
3256.37
3447.98
3656.31
3698.27
3988.69
4195.04
4263.94
7018.59
169159
383532
687121
1.00783e+06
1.36446e+06
1.7504e+06
2.14226e+06
2.5361e+06
2.9264e+06
3.30942e+06
3.68721e+06
4.0622e+06
4.43317e+06
4.79746e+06
5.15129e+06
5.49496e+06
5.83354e+06
6.16213e+06
6.48145e+06
6.79758e+06
7.10507e+06
7.40382e+06
7.7014e+06
7.99118e+06
8.27265e+06
8.55422e+06
8.82872e+06
9.09539e+06
9.36161e+06
9.62864e+06
2134.62
2131.48
2124.86
2096.27
2092.95
2138.27
2007.8
2138.44
2013.99
2013.69
2187.29
2012.52
2002.09
2028.11
1962.64
2060.8
2036.66
2039.21
2152.64
2114.69
2131.27
2273.26
2293.55
2326.11
2446.8
2455.22
2483.94
2576.82
2579.03
2798.67
2985.6
3013.02
3224.27
3305.3
3317.53
3530.54
3729.94
3768.42
4068.46
4262.14
4336.75
10256.8
170274
383902
684951
1.00475e+06
1.36157e+06
1.74769e+06
2.13985e+06
2.53398e+06
2.92457e+06
3.30847e+06
3.68697e+06
4.06234e+06
4.43335e+06
4.79766e+06
5.15151e+06
5.49512e+06
5.83372e+06
6.1623e+06
6.48155e+06
6.79771e+06
7.10522e+06
7.40392e+06
7.7015e+06
7.9913e+06
8.27272e+06
8.5543e+06
8.82882e+06
9.09545e+06
9.36165e+06
9.62871e+06
2180.33
2179.24
2183.4
2266.45
2246.39
2278.94
2163.19
2240.53
2135.82
2104.77
2246.83
2107.5
2079.33
2106.7
2058.46
2125.85
2130.93
2128.15
2214.41
2227.52
2234.73
2356.43
2416.82
2435.27
2553.38
2605.97
2618.17
2739.04
2762.98
2950.49
3154.88
3187.72
3358.23
3502.3
3526.59
3698.63
3915.07
3953.61
4186.7
4381.76
4465.72
14527.4
171061
383623
682417
1.00142e+06
1.35846e+06
1.74479e+06
2.13727e+06
2.53175e+06
2.92267e+06
3.30723e+06
3.68651e+06
4.06248e+06
4.43351e+06
4.79787e+06
5.15169e+06
5.49526e+06
5.83386e+06
6.16244e+06
6.48165e+06
6.7978e+06
7.10532e+06
7.40399e+06
7.70155e+06
7.99139e+06
8.27276e+06
8.55432e+06
8.82886e+06
9.09547e+06
9.36164e+06
9.62872e+06
2181.09
2185.2
2200.16
2272.36
2275.07
2304.31
2244.42
2296.93
2170.82
2134.45
2259.57
2126.37
2103.09
2126.69
2083.64
2147.74
2153.41
2152.22
2238.21
2254.32
2265.63
2386.38
2444.16
2465.59
2585.08
2640.76
2660.62
2791.58
2811.71
3003.45
3195.54
3221.33
3402.01
3544.93
3567.06
3758.86
3953.78
3988.82
4224.47
4403.67
4489.78
17911.5
171317
382658
678916
997715
1.35505e+06
1.74163e+06
2.13451e+06
2.52941e+06
2.92076e+06
3.30597e+06
3.68605e+06
4.06259e+06
4.43364e+06
4.79812e+06
5.15192e+06
5.49544e+06
5.83406e+06
6.16261e+06
6.48177e+06
6.79794e+06
7.10548e+06
7.40408e+06
7.70163e+06
7.9915e+06
8.27284e+06
8.55439e+06
8.82896e+06
9.09552e+06
9.36167e+06
9.62878e+06
2239.19
2241.08
2264.65
2353.67
2346.59
2374.84
2354.94
2370.11
2255.63
2205.08
2297.48
2189.54
2158.91
2181.84
2150.76
2194.25
2217.75
2215.8
2287.16
2331.64
2339.25
2451.2
2534
2547.74
2669.04
2756.37
2764.74
2912.06
2946.01
3118.63
3319.88
3352.77
3510.03
3666.91
3693.68
3853.31
4035.43
4069.05
4267.22
4428.35
4517.42
21289.3
171364
381128
674770
993554
1.35131e+06
1.73824e+06
2.13155e+06
2.52693e+06
2.91875e+06
3.3046e+06
3.68557e+06
4.06269e+06
4.4338e+06
4.79836e+06
5.15215e+06
5.49563e+06
5.83425e+06
6.16279e+06
6.48189e+06
6.79805e+06
7.10561e+06
7.40417e+06
7.7017e+06
7.99159e+06
8.27289e+06
8.55444e+06
8.82903e+06
9.09557e+06
9.36168e+06
9.62881e+06
2241.89
2248.32
2284.48
2360.81
2362.39
2387.76
2386.36
2397.83
2278.05
2231.08
2304.13
2201.07
2178.97
2196.4
2168.7
2212.39
2234.12
2235.1
2307.26
2350.18
2363.07
2477.74
2552.4
2572.68
2698.42
2780.8
2802.22
2954.89
2978.49
3164.23
3350.05
3374.15
3547.67
3690.4
3713.16
3887.57
4051.56
4082.45
4280.61
4432.31
4524.41
24458.3
170954
378847
670160
988972
1.34722e+06
1.73464e+06
2.12845e+06
2.5244e+06
2.91671e+06
3.30326e+06
3.68513e+06
4.06286e+06
4.43408e+06
4.79867e+06
5.15245e+06
5.49589e+06
5.83451e+06
6.16303e+06
6.48206e+06
6.79822e+06
7.10579e+06
7.4043e+06
7.70182e+06
7.99174e+06
8.27299e+06
8.55453e+06
8.82915e+06
9.09566e+06
9.36173e+06
9.62889e+06
2300.34
2306.34
2352.01
2440.46
2432.87
2453.06
2456.71
2448.65
2342.12
2289.92
2334.13
2256.03
2229.65
2246.44
2229.7
2257.9
2296.71
2299.52
2360.65
2431.95
2442.45
2552.25
2657.02
2669.51
2800.82
2917.29
2924.47
3086.39
3124.57
3283.29
3463.46
3492.79
3633.99
3770.35
3795.46
3938.77
4083.74
4113.65
4284.44
4417.35
4513.86
27081.6
170008
375718
664954
983847
1.3427e+06
1.73071e+06
2.12511e+06
2.5217e+06
2.91461e+06
3.30172e+06
3.68462e+06
4.06306e+06
4.43433e+06
4.79898e+06
5.15274e+06
5.49613e+06
5.83474e+06
6.16325e+06
6.48223e+06
6.79836e+06
7.10595e+06
7.40441e+06
7.70191e+06
7.99184e+06
8.27308e+06
8.55459e+06
8.82923e+06
9.09572e+06
9.36176e+06
9.62893e+06
2307.72
2313.73
2372.05
2447.11
2446.74
2464.04
2462.07
2464.86
2357.93
2313.79
2343.57
2271.7
2252.95
2266.3
2253.01
2282.7
2320.71
2326.54
2389.37
2459.56
2474.5
2588.94
2684.85
2704.41
2842.13
2948.96
2971.4
3133.28
3158.67
3329.01
3490.82
3512.16
3662.65
3786.58
3808.76
3957.8
4090.82
4119.31
4285.02
4413.73
4511.92
29110.2
168529
371770
659170
978247
1.33786e+06
1.7265e+06
2.12165e+06
2.51897e+06
2.91251e+06
3.30026e+06
3.68418e+06
4.06335e+06
4.43473e+06
4.79942e+06
5.15313e+06
5.49646e+06
5.83508e+06
6.16358e+06
6.48247e+06
6.7986e+06
7.1062e+06
7.40458e+06
7.70207e+06
7.99202e+06
8.27321e+06
8.55472e+06
8.82939e+06
9.09585e+06
9.36185e+06
9.62904e+06
2351.42
2360.93
2421.9
2502.81
2496.56
2512.25
2515.18
2504.77
2417.06
2371.74
2379.4
2340.03
2314.45
2330.92
2333.52
2345.51
2409.53
2420.51
2466.64
2579.29
2590.49
2693.73
2831.77
2838.11
2974.46
3114.03
3113.7
3269.09
3308.31
3436.35
3579.8
3605.43
3717.48
3828.28
3852
3973.47
4087.1
4114.54
4262.51
4372.98
4467.95
30550.2
166353
366942
652644
971970
1.33247e+06
1.72192e+06
2.1179e+06
2.51604e+06
2.91032e+06
3.29875e+06
3.68371e+06
4.06366e+06
4.43511e+06
4.79982e+06
5.1535e+06
5.49677e+06
5.83538e+06
6.16385e+06
6.4827e+06
6.7988e+06
7.1064e+06
7.40473e+06
7.70218e+06
7.99215e+06
8.27332e+06
8.55479e+06
8.82949e+06
9.09593e+06
9.3619e+06
9.62909e+06
2357.1
2366.15
2436.37
2506.08
2504.53
2519.83
2518.8
2519.27
2451.41
2417.35
2412.59
2394.45
2369.14
2388.56
2405.7
2409.76
2488.58
2507.41
2543.88
2675.82
2687.05
2783.47
2932.84
2934.97
3070.77
3216.92
3212.74
3361.99
3404.49
3513.97
3644.69
3673.44
3767.54
3879.56
3906.49
4007.37
4124.98
4153.66
4275.19
4397.43
4473.47
31358.6
163531
361304
645338
965131
1.32672e+06
1.71706e+06
2.11407e+06
2.51312e+06
2.90813e+06
3.29754e+06
3.68341e+06
4.06412e+06
4.43564e+06
4.80039e+06
5.15402e+06
5.49719e+06
5.83583e+06
6.16427e+06
6.48303e+06
6.79914e+06
7.10672e+06
7.40497e+06
7.70241e+06
7.99239e+06
8.2735e+06
8.55497e+06
8.82968e+06
9.0961e+06
9.36202e+06
9.62922e+06
2361.22
2370.15
2443.74
2509.32
2511.04
2526.81
2522.31
2526.76
2424.24
2394.93
2392.48
2349.99
2343.2
2356.96
2354.27
2386.96
2443.65
2453.79
2531.84
2623.18
2640.71
2771.58
2874.44
2900.09
3051.5
3154.41
3186.72
3332.04
3345.1
3489.34
3607.7
3621.7
3738.55
3838.79
3857.69
3972.59
4082.89
4107.31
4234.95
4355.73
4448.42
31242.6
159794
355128
636945
957406
1.3203e+06
1.71178e+06
2.11002e+06
2.5101e+06
2.90594e+06
3.29668e+06
3.68376e+06
4.0645e+06
4.43609e+06
4.80098e+06
5.1546e+06
5.49768e+06
5.83632e+06
6.16473e+06
6.4834e+06
6.79952e+06
7.10709e+06
7.40526e+06
7.70269e+06
7.9927e+06
8.27373e+06
8.55518e+06
8.82993e+06
9.09629e+06
9.36218e+06
9.62941e+06
2380.59
2392.61
2466.89
2536.42
2535.94
2559.41
2560.12
2563.14
2454.22
2425.91
2421.84
2388.96
2381.78
2400.2
2400.74
2440.14
2508.02
2520.92
2613.28
2716.28
2734.04
2872.17
2988.47
3008.04
3153.82
3261.12
3282.44
3407.06
3423.66
3538.38
3630.03
3644.17
3741.06
3817.28
3834.33
3940.22
4026.1
4049.32
4174.71
4272.87
4365.49
30283.4
155213
347033
627475
948738
1.31308e+06
1.70606e+06
2.10564e+06
2.50687e+06
2.90369e+06
3.29551e+06
3.68395e+06
4.06487e+06
4.43656e+06
4.80152e+06
5.15514e+06
5.49814e+06
5.83674e+06
6.16514e+06
6.48375e+06
6.79983e+06
7.1074e+06
7.40551e+06
7.70291e+06
7.99291e+06
8.27392e+06
8.55532e+06
8.83008e+06
9.09644e+06
9.36228e+06
9.62952e+06
2368.56
2393.4
2468.79
2537.19
2538.46
2564.34
2562.82
2569.94
2459.22
2429.04
2425.73
2390.2
2390.42
2411.81
2404.98
2457.12
2526.91
2536.21
2640.44
2740.81
2760.89
2904.06
3010.43
3038.13
3183.56
3278.88
3309.1
3427.37
3437.67
3549.15
3633.97
3646.61
3736.1
3811.16
3828.59
3925.03
4011.45
4035.23
4149.52
4250.06
4338.75
28519.6
149299
337774
616970
939257
1.3053e+06
1.70004e+06
2.10116e+06
2.5037e+06
2.90149e+06
3.29455e+06
3.68442e+06
4.06537e+06
4.43718e+06
4.80229e+06
5.15587e+06
5.49878e+06
5.83735e+06
6.16571e+06
6.48423e+06
6.80029e+06
7.10786e+06
7.40588e+06
7.70325e+06
7.99327e+06
8.27422e+06
8.55558e+06
8.83036e+06
9.09669e+06
9.36248e+06
9.62973e+06
2354.49
2383.41
2469.6
2546.92
2550.34
2589.69
2593.93
2608.53
2514.81
2483.42
2482.51
2465.24
2459.78
2489.59
2494.33
2544.8
2630.37
2646.16
2747.25
2863.39
2881.72
3013.88
3128
3146.29
3270.8
3359.19
3378.06
3467.9
3479.54
3561.26
3619.63
3629.34
3703.37
3758.44
3773.8
3863
3929.63
3951.31
4064.68
4146.03
4226.09
25761.3
142029
326960
605122
928623
1.29653e+06
1.6935e+06
2.09632e+06
2.5003e+06
2.89926e+06
3.2933e+06
3.68468e+06
4.06599e+06
4.43786e+06
4.80299e+06
5.15659e+06
5.49942e+06
5.83791e+06
6.16625e+06
6.48468e+06
6.80068e+06
7.10824e+06
7.40622e+06
7.70353e+06
7.99356e+06
8.27449e+06
8.55578e+06
8.83057e+06
9.0969e+06
9.36264e+06
9.62987e+06
2298.66
2374.86
2465.84
2543.81
2548.49
2591.63
2594.52
2614.77
2532.09
2500.92
2503.86
2486.74
2487.31
2520.73
2520.85
2581.47
2665.7
2679.79
2786.6
2895.43
2916.48
3050.01
3151.06
3175.22
3295.74
3372.9
3396.9
3478.96
3488.25
3564.13
3615.18
3625.61
3692.11
3744.99
3761.84
3843.28
3908.67
3931.93
4035.95
4116.76
4190.37
22364.1
133875
314668
591907
917019
1.287e+06
1.68662e+06
2.0914e+06
2.497e+06
2.89707e+06
3.29245e+06
3.68534e+06
4.06688e+06
4.43875e+06
4.80397e+06
5.15754e+06
5.50027e+06
5.83873e+06
6.16701e+06
6.48532e+06
6.80127e+06
7.10882e+06
7.40673e+06
7.70397e+06
7.99402e+06
8.27489e+06
8.55613e+06
8.83095e+06
9.09725e+06
9.36292e+06
9.63017e+06
2245.29
2316.11
2436.18
2535.13
2547.27
2609.8
2619.17
2651.85
2618.84
2584.65
2584.3
2596.75
2584.77
2623.9
2643.31
2685.49
2785.29
2807.08
2884.94
3011.04
3029.31
3132.12
3235
3250.53
3339.22
3402.98
3419.48
3472.54
3479.12
3535.48
3564.77
3572.71
3630.94
3665.38
3679.6
3758.52
3805.01
3826.65
3931.33
3991.93
4051.47
18146.4
124291
300178
576955
904034
1.2764e+06
1.67915e+06
2.08608e+06
2.49346e+06
2.89488e+06
3.29134e+06
3.68593e+06
4.0677e+06
4.4397e+06
4.80488e+06
5.15846e+06
5.5011e+06
5.83948e+06
6.16773e+06
6.48593e+06
6.80179e+06
7.10933e+06
7.40719e+06
7.70434e+06
7.99439e+06
8.27525e+06
8.55642e+06
8.83124e+06
9.09755e+06
9.36317e+06
9.63036e+06
2289.07
2310.61
2427.66
2529.08
2541.18
2608.78
2618.69
2661.45
2685.68
2652.23
2661.21
2688.57
2669.99
2718.25
2746.53
2781.91
2882.87
2905.29
2985.24
3095.71
3109.95
3208.38
3303.31
3312.09
3394.4
3460.2
3463.11
3511.97
3529.59
3559.95
3594.04
3611.96
3643.22
3690.01
3710.99
3760.11
3822.6
3848.18
3921.55
3999.69
4040.82
13519.4
113504
283656
560297
889870
1.26502e+06
1.67129e+06
2.08077e+06
2.49009e+06
2.89273e+06
3.29106e+06
3.68693e+06
4.06871e+06
4.44093e+06
4.8061e+06
5.15968e+06
5.50222e+06
5.84056e+06
6.16871e+06
6.48677e+06
6.80258e+06
7.11008e+06
7.40783e+06
7.70493e+06
7.99497e+06
8.27579e+06
8.5569e+06
8.83173e+06
9.09801e+06
9.36357e+06
9.63075e+06
2128.37
2174.72
2407.75
2521.22
2533.98
2605.52
2615.65
2664.07
2666.32
2617.53
2636.18
2636.03
2633.59
2684.33
2685.13
2751.25
2841.91
2853.04
2956.21
3051.75
3069.21
3177.72
3256.41
3274.58
3356.75
3407.51
3419
3465.32
3474.4
3508.92
3540.23
3552.61
3586.49
3631.89
3649.19
3700.11
3762.66
3785.63
3857.62
3937.49
3983.59
8640.79
100540
264141
541291
873921
1.25233e+06
1.66282e+06
2.07516e+06
2.48665e+06
2.89078e+06
3.29146e+06
3.6882e+06
4.07008e+06
4.44222e+06
4.80765e+06
5.1611e+06
5.50348e+06
5.84176e+06
6.16984e+06
6.48775e+06
6.80351e+06
7.11094e+06
7.40858e+06
7.70564e+06
7.99567e+06
8.2764e+06
8.55747e+06
8.83231e+06
9.09854e+06
9.36404e+06
9.63123e+06
2021.49
2056.91
2311.27
2443.62
2475.81
2588.17
2605.68
2681.92
2727.1
2681.36
2711.5
2705.42
2706.1
2757.61
2763.32
2829.79
2909.41
2924.38
3017.24
3095.47
3113.34
3202.52
3257.46
3276.14
3332.38
3358.33
3376.61
3400.67
3400.96
3433.37
3446.27
3450.4
3488.56
3514.38
3525.09
3581
3622.47
3640.3
3718.01
3775.71
3811.28
4102.28
85233.9
241570
519817
856169
1.23825e+06
1.65363e+06
2.06905e+06
2.48295e+06
2.88899e+06
3.29146e+06
3.6892e+06
4.07151e+06
4.44371e+06
4.80912e+06
5.16251e+06
5.50471e+06
5.84286e+06
6.17089e+06
6.48869e+06
6.80432e+06
7.11172e+06
7.40928e+06
7.70622e+06
7.99625e+06
8.27695e+06
8.55791e+06
8.83275e+06
9.09901e+06
9.36443e+06
9.63156e+06
1862.65
1895.58
2264.41
2399.53
2453.2
2571.71
2592.22
2677.68
2728.38
2694.13
2731.25
2715.68
2723.8
2778.92
2780.66
2855.19
2926.89
2943.06
3038.31
3102.34
3122.73
3209.51
3255.1
3273.64
3325.85
3349.23
3363.23
3383.37
3386.76
3411.76
3422.59
3430.52
3461.9
3485.75
3499.99
3549.11
3587.27
3607.94
3678.13
3731.24
3766.33
3984.14
70662.7
217600
495908
836878
1.22308e+06
1.64403e+06
2.06295e+06
2.47951e+06
2.88741e+06
3.2926e+06
3.69087e+06
4.07335e+06
4.44559e+06
4.81103e+06
5.16427e+06
5.50628e+06
5.84433e+06
6.17227e+06
6.48994e+06
6.80546e+06
7.11281e+06
7.41026e+06
7.70708e+06
7.9971e+06
8.27773e+06
8.5586e+06
8.83345e+06
9.09968e+06
9.36502e+06
9.63211e+06
1855.42
1842.65
2122.38
2227.73
2306.2
2464.51
2485.15
2621.48
2707.48
2722.32
2776.28
2765.13
2767.5
2811.66
2818.97
2881.43
2939.04
2957.66
3023.15
3080.91
3103.48
3161.91
3196.71
3221.97
3251.16
3258.9
3283.92
3285.51
3282.51
3311.43
3304.91
3308.24
3342.91
3347.7
3358.69
3410.68
3427.09
3445.52
3518.53
3547.79
3578.66
3764.99
52986.7
191671
468695
815564
1.20619e+06
1.63365e+06
2.05635e+06
2.47584e+06
2.8861e+06
3.2939e+06
3.69228e+06
4.07515e+06
4.44763e+06
4.81289e+06
5.16605e+06
5.50785e+06
5.84572e+06
6.17361e+06
6.49115e+06
6.80652e+06
7.11383e+06
7.41122e+06
7.70787e+06
7.99785e+06
8.27848e+06
8.55921e+06
8.83402e+06
9.1003e+06
9.36556e+06
9.63255e+06
2078.78
2070.05
2135.15
2229.58
2270.55
2433.4
2464.53
2601.84
2695.06
2714.8
2800.58
2841.9
2833.55
2884.51
2894.71
2943.76
2996.59
3013.88
3071.1
3124.7
3139.27
3189.82
3232.81
3243.07
3272.45
3295.2
3298.28
3306.49
3318.16
3319.2
3325.98
3339.63
3344.46
3365.75
3382.78
3402.7
3438.09
3459.48
3498.84
3549.38
3579.47
3689.88
37040.5
162155
438469
792034
1.18794e+06
1.62285e+06
2.04996e+06
2.47252e+06
2.88483e+06
3.29591e+06
3.69446e+06
4.0777e+06
4.45012e+06
4.81521e+06
5.16824e+06
5.50988e+06
5.84759e+06
6.17534e+06
6.49272e+06
6.80801e+06
7.11519e+06
7.41247e+06
7.70903e+06
7.99892e+06
8.27948e+06
8.56015e+06
8.83491e+06
9.10115e+06
9.36635e+06
9.63326e+06
1638.62
1594.28
1912.61
1999.87
2058.88
2373.16
2422.96
2567.32
2674.2
2690.18
2778.99
2761.37
2754.26
2818.61
2818.53
2883.35
2935.67
2949.73
3011.5
3063.41
3078.58
3131.42
3169.7
3180.82
3211.15
3228.81
3232.77
3241.28
3249.48
3251.15
3257.3
3268.11
3274.57
3293.87
3309.18
3330.69
3363.82
3384.1
3423.1
3470.8
3499.15
3596.8
21560.5
131241
403079
765620
1.16748e+06
1.61132e+06
2.04335e+06
2.46926e+06
2.8841e+06
3.29835e+06
3.69745e+06
4.08049e+06
4.45276e+06
4.81798e+06
5.17072e+06
5.51218e+06
5.84975e+06
6.17728e+06
6.49454e+06
6.80969e+06
7.11673e+06
7.41389e+06
7.71034e+06
8.00014e+06
8.28063e+06
8.56121e+06
8.83595e+06
9.10213e+06
9.36727e+06
9.63413e+06
2369.84
2096.08
2117.11
1910.49
1947.13
2174.36
2207.74
2379.79
2511.72
2545.58
2663.12
2692.39
2696.69
2750.09
2742.29
2820.98
2850.14
2864.73
2925.03
2957.85
2979.54
3023.06
3044.67
3066.95
3083.53
3085.02
3105.56
3100.06
3098
3110.44
3103.09
3105.46
3119.58
3122.47
3130.72
3156.51
3170.73
3184.89
3226.21
3253.21
3275.22
3354.5
6333.41
95707.9
361952
735986
1.14465e+06
1.59901e+06
2.03624e+06
2.4658e+06
2.88427e+06
3.30105e+06
3.70018e+06
4.0833e+06
4.45568e+06
4.82061e+06
5.17323e+06
5.51446e+06
5.85182e+06
6.17923e+06
6.4963e+06
6.81124e+06
7.11819e+06
7.41524e+06
7.7115e+06
8.00123e+06
8.28171e+06
8.56215e+06
8.83682e+06
9.10304e+06
9.36808e+06
9.63482e+06
2803.92
2631.82
3031.29
2073.41
2075.06
2161.62
2189.5
2343.2
2477.8
2512.72
2646.93
2713.02
2738.98
2799.88
2803.66
2861.71
2884.14
2909.23
2961.75
2983.17
3006.31
3047.14
3072.89
3084.13
3102.41
3117.41
3118.76
3118.58
3130.31
3121.32
3120.27
3133.89
3127.44
3135.75
3152.4
3157.89
3176.79
3197.22
3218.8
3250.52
3277.19
3328.41
3452.25
65073.2
316126
703551
1.12009e+06
1.58647e+06
2.02955e+06
2.46292e+06
2.8853e+06
3.30422e+06
3.70388e+06
4.08711e+06
4.45915e+06
4.82385e+06
5.17629e+06
5.51733e+06
5.85446e+06
6.18165e+06
6.49857e+06
6.81332e+06
7.12009e+06
7.41701e+06
7.7131e+06
8.00271e+06
8.28312e+06
8.56347e+06
8.83809e+06
9.10425e+06
9.36922e+06
9.63584e+06
2680.79
2179.86
1953.23
1645.75
1645.94
1893.72
1906.55
2280.25
2416.86
2415.57
2582.35
2628.22
2591.33
2688.34
2684
2750.32
2798.51
2806.99
2848.22
2902.63
2911.71
2949.29
2991.77
2992.29
3014.6
3037.35
3028.29
3035.91
3049.14
3029.18
3038.15
3050.48
3032.72
3052.79
3066.83
3059.92
3092.74
3109.93
3116.37
3162.28
3185.5
3215.12
3331.73
34036.2
272648
666649
1.09274e+06
1.57333e+06
2.02288e+06
2.46023e+06
2.88866e+06
3.30795e+06
3.70801e+06
4.09125e+06
4.46316e+06
4.8277e+06
5.17974e+06
5.52049e+06
5.85743e+06
6.18438e+06
6.50107e+06
6.81565e+06
7.12224e+06
7.41897e+06
7.71492e+06
8.00444e+06
8.28471e+06
8.56493e+06
8.83953e+06
9.10562e+06
9.37049e+06
9.63704e+06
5646.32
4890.44
3453.12
2269.28
2115.8
1965.84
1894.89
2111.47
2200.1
2226.77
2360.43
2440.5
2449.41
2527.38
2504.04
2625.76
2626.28
2636.53
2700.13
2715.27
2738.19
2780.46
2795.39
2819.49
2834.39
2834.67
2855.42
2849.37
2846.89
2852.56
2844.28
2845.62
2847.59
2845.32
2851.29
2859.28
2866.34
2876.87
2894.75
2911.82
2927.85
2965.44
3027.64
4202.69
215472
623368
1.06209e+06
1.55969e+06
2.01588e+06
2.45737e+06
2.893e+06
3.31175e+06
3.71206e+06
4.09534e+06
4.467e+06
4.83132e+06
5.18327e+06
5.52363e+06
5.86026e+06
6.18713e+06
6.50352e+06
6.81779e+06
7.12432e+06
7.42087e+06
7.71653e+06
8.00603e+06
8.28628e+06
8.56623e+06
8.84081e+06
9.10698e+06
9.37163e+06
9.63805e+06
6364.07
5597.79
3703.63
2169.77
1964.8
1720.78
1659.23
1961.51
1984.25
2038.55
2323.7
2308.9
2336.62
2438.84
2426.38
2566.36
2563.98
2586.7
2659.19
2659.54
2690.17
2736.88
2747.08
2773.09
2791.69
2793.71
2811.18
2805.75
2807.87
2809.12
2798.41
2805.75
2804.49
2796.43
2808.52
2814.04
2813.33
2829.54
2845.34
2852.08
2872.25
2904.94
2942.62
3191.94
168544
574047
1.02834e+06
1.54629e+06
2.00984e+06
2.45589e+06
2.89877e+06
3.31702e+06
3.71729e+06
4.10059e+06
4.47177e+06
4.83573e+06
5.18746e+06
5.52746e+06
5.86378e+06
6.19045e+06
6.50655e+06
6.82048e+06
7.1269e+06
7.42327e+06
7.71863e+06
8.0081e+06
8.28827e+06
8.56797e+06
8.84254e+06
9.10873e+06
9.37318e+06
9.63946e+06
9905.78
9473.47
7472.41
5035.52
4239.82
2933.32
2752.15
2419.7
2044.79
2038.83
2135.32
2137.66
2167.75
2215.85
2215.23
2369.4
2333.68
2356.35
2428.2
2412.92
2457.56
2490.5
2498.61
2546.75
2544.57
2545.5
2590.71
2562.96
2564.98
2590.42
2559.32
2569.56
2581.32
2554.15
2570.47
2581.04
2560.3
2580.93
2596.75
2580.19
2603.21
2630.03
2630.36
2772.8
105048
523418
986755
1.53239e+06
2.00401e+06
2.45861e+06
2.90409e+06
3.32226e+06
3.72268e+06
4.10586e+06
4.4765e+06
4.84014e+06
5.19176e+06
5.53131e+06
5.86721e+06
6.19374e+06
6.50947e+06
6.82302e+06
7.12935e+06
7.42558e+06
7.72059e+06
8.01003e+06
8.29023e+06
8.56958e+06
8.84414e+06
9.11047e+06
9.37466e+06
9.64072e+06
10446.4
10173.1
8237.33
6128.22
5412.31
3676.07
3435.3
2604.4
2252.83
2207.17
2130.41
2156.74
2174.02
2239.72
2254.64
2320.24
2370.67
2384.69
2441.6
2460.56
2488.08
2528.64
2541.1
2562.78
2574.98
2584.15
2594.98
2587.42
2597.84
2591.88
2582.76
2596
2580.35
2575.06
2590.07
2574.28
2575.42
2591.86
2581.44
2588.91
2606.75
2604.59
2622.24
2689.56
57293.1
479998
941706
1.51987e+06
2.00015e+06
2.46616e+06
2.91037e+06
3.3292e+06
3.72962e+06
4.11259e+06
4.4827e+06
4.84567e+06
5.19676e+06
5.53599e+06
5.87141e+06
6.19746e+06
6.51289e+06
6.82614e+06
7.13221e+06
7.42832e+06
7.72316e+06
8.01243e+06
8.29256e+06
8.57182e+06
8.84624e+06
9.11254e+06
9.37667e+06
9.64249e+06
10905.7
10633
9001.69
6572.46
5626.07
3589.73
3119.24
2404.28
1869.08
1843.69
2006.42
1952.44
1948.33
2077.64
2064.1
2226.7
2219.48
2234
2325.04
2323.43
2352.36
2410.34
2419
2441.36
2465.76
2471.46
2480.98
2481.96
2489.2
2486.11
2481.08
2492.77
2481.74
2476.47
2491.03
2480.37
2480.12
2497.29
2492.68
2495.72
2512.7
2510.56
2515.6
2586.22
14447.1
423811
894012
1.50881e+06
1.9975e+06
2.47569e+06
2.91903e+06
3.33723e+06
3.73732e+06
4.11955e+06
4.48941e+06
4.85181e+06
5.20225e+06
5.54112e+06
5.87595e+06
6.20146e+06
6.51673e+06
6.8296e+06
7.13529e+06
7.4313e+06
7.72596e+06
8.01505e+06
8.29514e+06
8.57431e+06
8.84859e+06
9.11482e+06
9.37895e+06
9.64454e+06
13524.3
13555.9
13421.7
12337.8
11334.2
8591.45
8000.84
5761.17
3838.27
3482.52
2855.13
2337.11
2223.74
2107.03
2064.94
2114.45
2047.66
2056.5
2138.67
2092.48
2125.97
2161.53
2152.16
2189.34
2188.4
2191.25
2226.3
2201.58
2212.13
2239.21
2212.46
2228.88
2236.17
2215.74
2235.19
2232.41
2218.94
2241
2237.68
2226.21
2245.13
2231.42
2217.63
2281.51
2628.78
384597
868299
1.50117e+06
2.00413e+06
2.48566e+06
2.92848e+06
3.3458e+06
3.74541e+06
4.12725e+06
4.49631e+06
4.85799e+06
5.20786e+06
5.54618e+06
5.88051e+06
6.20573e+06
6.52067e+06
6.83307e+06
7.13852e+06
7.43435e+06
7.7286e+06
8.01749e+06
8.29758e+06
8.57653e+06
8.85071e+06
9.11705e+06
9.38109e+06
9.64642e+06
14407.1
14254.6
13779.7
13322.6
12442.2
10048.3
9394.78
6411.26
4642.58
4251.75
3047.33
2591.45
2471.72
2228.69
2199.11
2118.95
2107.24
2108.97
2128.22
2138.89
2148.58
2183.74
2194.74
2209.17
2235.72
2239.41
2255.4
2245.2
2259.16
2266.28
2247.46
2269.93
2262.01
2245.89
2270.8
2255.5
2242.3
2268.33
2254.02
2244.12
2266.36
2246.54
2232.49
2271.86
2499.67
342862
842974
1.4997e+06
2.01815e+06
2.49576e+06
2.93867e+06
3.35606e+06
3.7548e+06
4.13601e+06
4.50471e+06
4.86554e+06
5.21457e+06
5.5527e+06
5.88631e+06
6.21082e+06
6.52563e+06
6.83754e+06
7.14242e+06
7.43813e+06
7.73214e+06
8.02056e+06
8.30053e+06
8.57944e+06
8.85338e+06
9.11967e+06
9.38385e+06
9.64888e+06
15160
14934.5
14773.7
14110.6
13509.8
11304.7
10388.1
7607.05
4845.93
4256.35
3122.42
2314.25
2208.75
2060.98
1945.47
2030.89
1984.33
1968.55
2056.98
2038.17
2042.3
2101.13
2085.33
2081.76
2124.71
2119.85
2108.51
2133.89
2139.2
2134.6
2149.17
2160.82
2147.98
2160.72
2172.73
2154.49
2166.99
2181.1
2166.57
2179.07
2188.99
2161.42
2157.75
2195.28
2375.86
316792
821649
1.51505e+06
2.03216e+06
2.51054e+06
2.95186e+06
3.36784e+06
3.76563e+06
4.1461e+06
4.51456e+06
4.87446e+06
5.22242e+06
5.56027e+06
5.89309e+06
6.21673e+06
6.53139e+06
6.84279e+06
7.14703e+06
7.4426e+06
7.73635e+06
8.02431e+06
8.30412e+06
8.58299e+06
8.85655e+06
9.12259e+06
9.38696e+06
9.65167e+06
23102.1
22727
21290.3
20096.5
19649.1
18702.3
18209.6
15934.5
12424.2
11329.1
8538.4
5994.64
5364.13
4060.87
3752.42
3206.28
2743.42
2653.02
2499.87
2358.39
2325.5
2248.18
2178.6
2162.28
2126.53
2086.03
2085.95
2043.11
2048.88
2066.54
2026.14
2039.17
2045.46
2022.25
2037.11
2031.2
2020.38
2038.7
2031.48
2026.2
2038.52
2012.35
2000.68
2039.54
2109.16
290352
795668
1.5354e+06
2.04759e+06
2.52585e+06
2.96597e+06
3.38073e+06
3.77757e+06
4.15776e+06
4.52521e+06
4.88381e+06
5.23118e+06
5.56855e+06
5.90048e+06
6.22342e+06
6.53767e+06
6.84839e+06
7.15215e+06
7.44752e+06
7.74071e+06
8.02832e+06
8.30809e+06
8.58655e+06
8.85989e+06
9.126e+06
9.39011e+06
9.6544e+06
25086.4
24456.3
22255.2
21392
20875.4
19808.3
19398.5
16994.9
14231.9
13220.1
9457.92
7198.08
6410.13
4689.8
4457.92
3488.83
3072.06
2968.54
2615.18
2517.17
2459.87
2314.76
2275.9
2241.63
2186.61
2169.32
2149.95
2135.37
2133.16
2118.7
2100.16
2112.39
2104.34
2076.02
2100.08
2084.34
2060.14
2089.73
2071.2
2054.39
2078.92
2056.41
2042.54
2070.75