/*--------------------------------*- C++ -*----------------------------------*\
| =========                 |                                                 |
| \\      /  F ield         | OpenFOAM: The Open Source CFD Toolbox           |
|  \\    /   O peration     | Version:  v2012                                 |
|   \\  /    A nd           | Website:  www.openfoam.com                      |
|    \\/     M anipulation  |                                                 |
\*---------------------------------------------------------------------------*/
FoamFile
{
    version     2.0;
    format      ascii;
    class       volScalarField;
    location    "1e-06";
    object      totalP;
}
// * * * * * * * * * * * * * * * * * * * * * * * * * * * * * * * * * * * * * //

dimensions      [1 -1 -2 0 0 0 0];


internalField   nonuniform List<scalar> 
10248
(
2027.06
2025.33
1956.34
2013.09
1972.15
2025.48
2017.74
2006.44
2008.57
2010.78
2025.53
2025.74
2026
2022.45
2020.1
2018.58
2015.8
2014.96
3325.36
2021.28
2021.43
2026.08
2042.32
2051.31
2077.31
2081.3
2095.92
2097.19
2073.63
2061.9
2011.6
2089.69
2267.96
2433.22
2379.91
2530.17
2546.9
2550.46
2718.22
2850.82
2882.14
4052.47
82337.5
129658
172831
209984
241720
266067
279965
287763
291207
291445
289747
287468
284248
281111
277470
273306
270218
266864
262992
260678
257912
254274
252938
250759
247899
246838
245136
242869
241306
240811
2025.5
2017.39
1946.59
1876.91
1836.37
1806.15
1694.77
1764.84
1763.84
1799.67
1802.99
1603.18
1681.99
1595.24
1499.42
1698.1
1638.9
1599.22
1824
1657.15
1669.24
1756.16
1687.26
1784.91
1891.5
1795.77
1904.23
1959.28
1825.46
1920.88
1986.71
2075.43
2335.42
2536.2
2513.79
2641.07
2736.32
2757.64
2929.32
3151.03
3198.75
4294.56
82923.5
130329
173394
210671
242502
266687
280689
288561
291809
292104
290527
288052
284855
281828
278034
273828
270849
267403
263463
261231
258452
255146
253416
251266
248278
247258
245627
243240
241661
241236
2029.45
2019.4
1967.79
1934.44
1888.82
1873.35
1748.51
1828.87
1829.9
1868.96
1861.44
1667.7
1720.95
1835.32
1573.81
1751.3
1711.75
1668.77
1884.78
1741.21
1755.63
1854.83
1837.65
1905.35
2034.25
1970.46
2051.76
2140.56
2043.17
2126.59
2277.19
2366.61
2627.06
2812.44
2766.61
2922.64
3078.76
3104.91
3303.4
3559.68
3617.05
4511.67
83590.8
130986
174174
211470
243338
267531
281505
289358
292605
292858
291281
288801
285551
282492
278717
274459
271457
268010
264038
261788
259000
255501
253952
251788
248776
247728
246087
243691
242089
241646
2025.01
2019.89
1971.3
1942.38
1903.62
1889.66
1766.33
1869.34
1851.04
1902.8
1919.4
1709.28
1747.21
1845.41
1621.42
1789.87
1743.23
1725.89
1909.02
1780.89
1790.49
1912.42
1881.37
1937.33
2080.57
2032.71
2083.14
2159.77
2074.3
2161.78
2313.46
2396.99
2676.49
2822
2776.23
2926.63
3059.92
3094.98
3366.38
3572.42
3640.11
4480.72
83665
131063
174341
211565
243452
267735
281615
289440
292741
292958
291370
288912
285653
282554
278792
274556
271517
268075
264175
261844
259075
255698
254002
251850
248861
247781
246133
243746
242151
241689
2044.43
2038.3
1973.74
1949.36
1917.72
1926.05
1802.08
1924.72
1883.99
1932.36
1981.93
1791.63
1814.61
1907.15
1720.58
1880.53
1856.71
1851.46
2028.12
1921.09
1929.17
2048.7
2049.55
2086.72
2239.08
2217.52
2240.57
2317.98
2266.64
2385.49
2520.37
2597.53
2828.89
2942.94
2910.26
3037.18
3244.7
3285.41
3566.52
3803.86
3886.53
4788.2
84034.3
131501
174768
212074
243991
268243
282090
289925
293204
293407
291821
289343
286061
282936
279172
274908
271867
268423
264480
262165
259394
255983
254296
252156
249129
248046
246395
243999
242385
241919
2060.58
2057.39
2014.12
2020.87
1981.75
1996.53
1871.71
1984.77
1934.43
1975.32
2052.85
1887.1
1894.76
1971.42
1825.81
1963.13
1954
1950.62
2075.7
2040.66
2046.19
2163.44
2189.29
2220.16
2357.67
2360.86
2367.66
2455.77
2436.66
2582.28
2740.19
2815.64
3004.1
3126.81
3115.08
3218.69
3471.07
3513.26
3760.82
4012.21
4102.57
5007.02
84339.7
131479
175036
212415
244361
268567
282415
290239
293506
293686
292103
289607
286292
283157
279394
275110
272068
268625
264657
262348
259577
256110
254460
252323
249283
248195
246544
244138
242513
242046
2061.65
2059.96
2026.57
2024.61
1992.09
2015.2
1891.67
2009.86
1932.32
1970.41
2075.88
1901.2
1906.43
1967.05
1845.65
1977.78
1958.27
1959.3
2077.88
2040.44
2050
2179.21
2195.71
2228.66
2364.77
2364.77
2376.37
2458.59
2446.39
2617.4
2773.53
2836.41
3050.95
3141.96
3135.63
3270.36
3505.8
3547.79
3817.5
4046.65
4141.33
5069.42
84421.4
131078
175107
212526
244509
268745
282534
290346
293621
293772
292184
289684
286355
283192
279433
275151
272099
268658
264705
262375
259606
256166
254484
252355
249316
248220
246567
244162
242537
242065
2091.68
2088.76
2068.88
2070.58
2037.03
2071.15
1949.59
2064.72
1985.2
2009.97
2133.19
1976.69
1970.23
2016.76
1922.11
2032.54
2022.92
2026.77
2134.66
2108.7
2119.32
2243.58
2278.13
2306.1
2432.11
2450.48
2458.63
2550.39
2555.54
2739.95
2918.77
2973.15
3161.13
3241.57
3249.73
3403.13
3642.83
3685.97
3943.61
4178.1
4279.01
5463.46
84607.7
130767
175230
212745
244799
268993
282767
290563
293812
293938
292351
289828
286477
283302
279534
275237
272188
268747
264778
262454
259686
256235
254551
252428
249377
248282
246630
244218
242586
242117
2091.94
2093.1
2087.39
2080.47
2063.75
2099.39
1980.64
2095.26
1990.42
2007.64
2148.48
1984.07
1978.87
2015.48
1933.91
2042.67
2023.55
2027.63
2135.51
2106.08
2120.81
2254.6
2275.86
2308.39
2432
2442.08
2462.44
2552.65
2555.95
2757.88
2928.72
2969.79
3176.22
3242.17
3252.63
3445.47
3653.31
3694.56
3986.91
4193.04
4312.15
16995.9
84636.9
130267
175258
212929
244996
269197
282934
290702
293932
294026
292432
289893
286518
283331
279554
275253
272202
268762
264792
262464
259698
256237
254559
252440
249387
248291
246639
244225
242592
242124
2134.73
2131.61
2125.26
2127.46
2117.38
2160.04
2049.33
2155.67
2053.28
2053.71
2194.55
2042.14
2029.52
2059.74
1993.67
2084
2073.41
2075.92
2175.6
2157.1
2170.47
2299.29
2332.35
2360.82
2479.02
2499.33
2520.17
2616.64
2623.79
2828.11
3012.46
3044.23
3242.81
3331.89
3345.88
3547.28
3751.21
3790.88
4078.75
4276.55
4415.03
20533.6
84750
129797
175302
213109
245272
269470
283165
290897
294082
294143
292544
289976
286565
283373
279587
275273
272227
268787
264804
262482
259719
256250
254571
252458
249395
248301
246652
244233
242594
242130
2179.52
2178.41
2182.89
2265.42
2234.42
2268.19
2168.95
2238.88
2144.45
2126.83
2246.35
2116.34
2092.9
2118.54
2069.95
2135.83
2141.63
2143.52
2221.69
2236.02
2246.45
2362.8
2421.71
2442.35
2558.54
2609.08
2621.64
2738.77
2762.14
2949.14
3150.37
3185.54
3357.84
3497.4
3521.77
3694.67
3908.82
3948.48
4183.85
4378.58
4530.1
21978.3
84780.8
129247
175305
213337
245575
269764
283399
291079
294214
294229
292621
290025
286560
283365
279580
275257
272209
268773
264786
262462
259705
256228
254550
252444
249375
248280
246632
244212
242567
242106
2183.61
2186.09
2200.76
2273.11
2275.48
2304.58
2224.09
2282.85
2166.95
2140.31
2255.13
2126.7
2106.43
2129
2084.69
2149.98
2154.64
2155.22
2240.16
2253.25
2265.44
2386.23
2441.32
2463.98
2583.55
2636.5
2657.13
2785.56
2805.14
2999.11
3191.22
3217.71
3400.54
3540.15
3562.21
3755.35
3948.98
3984.66
4222.44
4402.73
4547.48
23254.1
84409.6
128628
175299
213554
245926
270106
283673
291287
294356
294322
292705
290072
286566
283360
279567
275233
272191
268755
264760
262441
259688
256207
254528
252429
249351
248260
246616
244191
242542
242088
2238.27
2240.13
2264.03
2352.67
2345.85
2374.25
2339.64
2359.58
2247.1
2207.8
2295.04
2187.85
2160.69
2181.28
2149.49
2195.51
2215.47
2216.48
2287.52
2327.13
2337.21
2449.75
2529.42
2545.33
2666.94
2751.54
2761.81
2907.51
2941.16
3116.36
3316.78
3350.3
3509.44
3664.44
3691.39
3852.26
4033.76
4067.86
4267.03
4430.88
4578.69
24661.1
83876.6
128002
175287
213784
246326
270496
283970
291500
294494
294395
292763
290095
286545
283329
279522
275179
272136
268703
264706
262385
259638
256154
254475
252382
249301
248210
246569
244143
242491
242041
2244.05
2249.28
2285.17
2361.71
2362.96
2388.26
2386.71
2397.81
2271.82
2229.5
2303.27
2202.3
2180.06
2198.05
2169.71
2214.64
2235.71
2237.13
2309.26
2351.01
2363.7
2478.5
2552.74
2573.11
2698.83
2780.05
2801.66
2952.86
2976.82
3163.12
3348.68
3373.32
3547.01
3688.55
3711.7
3886.28
4049.32
4080.82
4279.44
4433.55
4584.78
25817.9
83285.4
127376
175295
214108
246837
270979
284350
291779
294672
294504
292859
290138
286541
283317
279492
275135
272100
268667
264660
262348
259605
256113
254437
252352
249261
248175
246540
244109
242451
242010
2299.41
2305.38
2351.38
2439.45
2432.12
2452.51
2455.9
2448.19
2338.72
2292.34
2337.67
2260.41
2233.78
2250.51
2234.31
2263.24
2300.98
2305.54
2365.63
2435.17
2446.6
2555.07
2659.01
2671.89
2802.61
2917.8
2925.44
3086.12
3124.77
3283.77
3463.24
3493.03
3634.59
3770.61
3795.94
3939.56
4084.64
4114.84
4285.69
4423.17
4580.19
27009
82611.6
126703
175250
214471
247399
271519
284749
292053
294838
294581
292913
290143
286493
283255
279416
275050
272011
268581
264576
262260
259524
256033
254353
252276
249186
248099
246465
244036
242377
241938
2308.96
2314.56
2372.61
2447.94
2447.17
2464.45
2462.45
2464.85
2358.15
2314.73
2347.01
2277.7
2256.8
2272.01
2259.26
2288.45
2328.52
2334.52
2395.05
2467.96
2481.99
2593.63
2691.31
2709.79
2845.82
2952.39
2973.96
3134.16
3160.7
3329.67
3491.22
3513.42
3662.9
3786.23
3809.03
3957.26
4089.54
4118.77
4284.07
4416.17
4575.03
28100.2
81906.9
126052
175239
214968
248118
272191
285268
292426
295066
294717
293028
290185
286479
283232
279371
274988
271958
268529
264511
262205
259475
255972
254299
252230
249130
248048
246422
243988
242322
241894
2350.65
2360.19
2421.53
2502.08
2496.03
2511.84
2514.56
2504.48
2412.25
2369.81
2380.28
2337.31
2312.44
2329.44
2330.49
2346.37
2409.24
2420.72
2470.52
2581.47
2593.07
2697.43
2836.19
2841.93
2978.97
3119.52
3117.75
3273.11
3313.77
3440.23
3584.03
3610.38
3721.18
3833.07
3857.06
3977.13
4092.33
4119.92
4266.43
4383.9
4537.57
29059.1
81090.4
125331
175213
215516
248901
272937
285812
292790
295279
294816
293090
290178
286411
283132
279267
274876
271839
268416
264403
262089
259365
255869
254189
252127
249033
247946
246323
243894
242226
241797
2357.06
2366.22
2436.37
2506.15
2504.47
2519.77
2518.72
2519.06
2430.26
2393.56
2395.69
2362.08
2342.14
2360.34
2366.35
2384.49
2453.3
2467.87
2521.2
2639.6
2652.71
2761.89
2901.23
2909.15
3050.96
3190.01
3193.12
3343.89
3382.15
3501.06
3631.4
3658.09
3758.86
3868.14
3893.88
4000.32
4115.17
4143.81
4269.77
4394.96
4530.69
29916.1
80245.6
124645
175268
216259
249912
273871
286531
293310
295589
295017
293260
290237
286412
283134
279226
274815
271795
268368
264335
262041
259323
255800
254141
252088
248975
247896
246287
243848
242171
241758
2361.47
2370.59
2444.21
2509.7
2511.25
2526.99
2522.52
2526.81
2424.73
2391.63
2392.26
2349.59
2341.46
2357.3
2353.71
2388.01
2445.66
2456.19
2534.83
2627.05
2645.07
2775.2
2879.6
2904.91
3055.18
3159.58
3190.86
3335.03
3350.21
3492.16
3609.73
3625.08
3740.24
3839.76
3859.76
3973.27
4082.52
4107.98
4234.58
4358.58
4511.88
30603.6
79270.6
123888
175304
217129
251074
274951
287351
293900
295942
295246
293449
290295
286414
283136
279219
274747
271748
268313
264256
261987
259272
255725
254088
252044
248912
247846
246249
243799
242117
241723
2380.24
2392.34
2466.72
2536.2
2535.76
2559.15
2559.82
2562.72
2461.45
2430.71
2426.56
2397.09
2387.36
2406.44
2408.67
2445.46
2515.24
2528.87
2616.71
2722.64
2740.06
2874.92
2993.22
3011.76
3156.56
3264.91
3285.04
3409.47
3426.89
3540.41
3632.38
3646.89
3742.84
3819.95
3837.19
3942.29
4029.33
4052.83
4177.32
4281.45
4435.37
31119
78118.8
123021
175311
218079
252330
276135
288195
294463
296265
295408
293541
290272
286329
283022
279082
274599
271588
268163
264113
261833
259128
255589
253942
251908
248787
247712
246119
243678
241995
241599
2368.85
2393.22
2468.69
2536.88
2538.27
2564.19
2562.65
2569.79
2466.35
2435.2
2431.89
2398.56
2396.99
2418.08
2412.84
2462.35
2531.37
2541.6
2642.18
2742.42
2763.02
2904.47
3010.37
3038.5
3183.02
3277.73
3308.59
3425.84
3436.38
3548.16
3632.08
3644.97
3734.63
3808.6
3826.26
3923.11
4008.18
4032.32
4146.78
4249.5
4398.83
31508.7
76864.5
122165
175413
219292
253885
277577
289254
295205
296700
295676
293741
290313
286307
282984
279001
274497
271496
268069
264009
261740
259041
255494
253850
251828
248697
247623
246046
243599
241907
241524
2351.4
2383.71
2470.02
2547.3
2550.73
2589.8
2594.05
2608.4
2519.7
2488.45
2487.31
2470.8
2464.18
2493.18
2498.86
2547.84
2632.22
2648.45
2748.65
2864.03
2882.41
3014.77
3128.61
3146.65
3271.73
3360.22
3378.73
3468.87
3480.92
3562.49
3621.15
3631.06
3704.99
3760.61
3776.13
3865.13
3932.52
3954.49
4067.83
4153.68
4291.42
31645
75290.7
121118
175470
220622
255571
279160
290361
295932
297108
295888
293845
290276
286201
282835
278831
274314
271297
267881
263830
261547
258860
255327
253668
251656
248544
247456
245884
243452
241758
241367
2301.76
2375.59
2465.08
2542.66
2547.65
2590.89
2593.72
2614.25
2540.13
2507.67
2509.19
2493.84
2492.54
2524.98
2526.66
2583.94
2667.85
2682.5
2785.98
2895.71
2917.08
3049.04
3150.43
3175
3294.73
3371.67
3396.14
3477.43
3487.07
3562.89
3613.44
3624.13
3690.63
3742.83
3759.92
3841.06
3905.44
3928.94
4032.63
4114.75
4241.66
31884.9
73502
120049
175629
222295
257643
281077
291733
296877
297658
296236
294079
290323
286178
282786
278734
274194
271183
267766
263708
261432
258754
255217
253554
251558
248439
247347
245794
243358
241657
241275
2249.92
2318.59
2437.38
2536.36
2548.32
2610.55
2619.96
2652.24
2622.73
2587.12
2588.53
2601.32
2588.21
2628.65
2648.28
2690.38
2790.05
2811.49
2890.76
3015.54
3032.95
3136.4
3239.49
3253.83
3343.29
3407.81
3422.87
3476.7
3484.06
3539.2
3569.72
3578.07
3635.14
3671.2
3685.66
3763.53
3812.03
3833.72
3937.31
4002.55
4104.98
31567.2
71226.2
118720
175738
224147
259910
283188
293170
297799
298185
296525
294197
290283
286056
282590
278534
273979
270946
267544
263500
261199
258539
255021
253337
251354
248260
247149
245600
243187
241482
241087
2288.73
2310.68
2427.91
2529.21
2541.41
2608.72
2618.76
2661.44
2672.81
2633.78
2644.56
2663.7
2649.55
2697.97
2720.6
2764.79
2864.44
2885.69
2973.06
3081.72
3097.23
3199.86
3292.56
3303.41
3387.25
3450.64
3456.03
3504.82
3520.5
3553.65
3586.82
3603.38
3637.27
3682.64
3702.79
3754.65
3815.49
3840.65
3916.81
3993.9
4063.85
30773.2
68573.5
117317
175980
226485
262721
285730
294966
299032
298895
297018
294503
290370
286065
282558
278451
273865
270853
267440
263375
261095
258443
254898
253233
251267
248152
247047
245520
243095
241383
241003
2133.72
2180.03
2406.31
2518.83
2532.21
2603.86
2613.9
2663.22
2670.57
2624.25
2641.83
2641.46
2638.93
2688.3
2690.93
2755.69
2845.36
2857.85
2958.39
3054.23
3072.33
3179.22
3257.96
3276.4
3357.44
3408.39
3419.96
3465.38
3475.03
3509.28
3539.88
3552.79
3586.33
3630.75
3648.55
3698.95
3760.1
3783.58
3855.03
3933.43
4014.56
28556.1
65074
115529
176278
229198
265938
288639
296985
300409
299684
297575
294827
290472
286078
282548
278358
273745
270753
267327
263246
260993
258341
254781
253132
251178
248048
246949
245443
243005
241291
240934
2017.76
2053.83
2312.95
2445.46
2477.65
2589.56
2607.33
2683.01
2725.33
2682.89
2712.43
2708.59
2708.53
2760.14
2767.08
2832.28
2911.94
2927.36
3019.57
3097.67
3115.42
3204.44
3259.68
3277.84
3334.37
3361.03
3378.44
3402.99
3403.79
3435.45
3449.11
3453.68
3491.28
3518
3529.14
3584.58
3627.12
3645.42
3722.67
3781.91
3833.87
4394.34
60272.7
113199
176484
232241
269494
291837
299074
301729
300412
298022
294950
290436
285933
282327
278105
273477
270459
267051
262982
260702
258074
254535
252864
250924
247825
246707
245203
242798
241082
240706
1870.49
1903.79
2265.05
2399.8
2450.7
2568.81
2589.22
2675.64
2727.2
2696.47
2732.46
2719.32
2726.19
2779.25
2781.75
2854.93
2926.24
2942.66
3036.8
3101.34
3121.91
3207.85
3253.74
3272.54
3324.09
3347.76
3362.13
3381.37
3384.92
3409.92
3420.23
3428.2
3459.38
3482.65
3496.84
3545.66
3583.05
3603.61
3673.45
3725.48
3772.48
4095
54983
110475
176853
236004
273829
295657
301590
303382
301366
298680
295253
290534
285918
282261
277965
273314
270295
266884
262815
260528
257914
254380
252698
250777
247680
246552
245068
242665
240947
240575
1862.43
1850.23
2126.11
2233.28
2308.33
2466.64
2487.95
2623.52
2708.94
2720.51
2775.34
2769.24
2770.32
2816.01
2823.35
2884.97
2943.25
2961.24
3027.02
3085.03
3106.61
3165.66
3201.05
3225.15
3255.21
3263.61
3287.28
3290.34
3287.92
3315.79
3310.75
3314.29
3348.11
3354.56
3365.47
3416.71
3435.09
3453.3
3525.65
3557.62
3596.75
3867.71
48482.3
106585
176973
240278
278693
299865
304202
305002
302284
299222
295359
290496
285736
281974
277670
272996
269938
266557
262498
260179
257593
254090
252374
250467
247420
246261
244773
242418
240694
240301
2076.97
2067.87
2128.63
2229.65
2271.05
2433.42
2464.85
2602.18
2695.04
2715
2800.5
2829.86
2821.92
2873.97
2882.57
2935.7
2988.21
3005.28
3065.26
3117.77
3133.02
3184.94
3226.5
3237.9
3267.49
3288.6
3293.15
3300.94
3311.39
3313.99
3319.86
3332.66
3339.25
3359.38
3375.99
3397.88
3431.89
3453.22
3494.54
3543.34
3578.95
3753.4
41167.3
101596
177437
245595
284692
304843
307393
307050
303494
300047
295740
290636
285748
281889
277531
272831
269785
266387
262311
260015
257429
253907
252218
250317
247259
246115
244641
242273
240554
240175
1665.05
1619.17
1927.37
2008.06
2067.84
2373.56
2423.65
2564.4
2670.96
2690.84
2777.02
2767.48
2760.87
2822.21
2823.06
2886.74
2937.68
2952.27
3012.97
3064.55
3080.08
3132.02
3170.36
3181.63
3211.09
3229.04
3233.11
3240.88
3249.44
3250.86
3256.45
3267.56
3273.58
3292.26
3307.75
3328.67
3360.97
3381.32
3419.55
3466.17
3497.07
3646.18
32433.7
94578.1
177811
251849
291691
310487
310960
309246
304856
300928
296154
290801
285778
281871
277385
272669
269633
266211
262141
259852
257269
253753
252064
250180
247124
245971
244531
242156
240441
240073
2367.7
2097.92
2113.9
1917.02
1952.37
2178.07
2212.01
2382.61
2514.29
2548.17
2665.34
2695.87
2700.5
2754.85
2748.06
2824.51
2854.75
2869.77
2928.77
2962.19
2983.69
3027.15
3049.55
3070.99
3088.25
3090.78
3109.97
3105.52
3104.21
3115.61
3109.37
3112.25
3125.56
3129.63
3138.22
3163.37
3178.89
3193.32
3234.27
3262.96
3285.91
3391.54
20054.5
84043.1
177826
259031
299694
316748
314540
311331
306147
301566
296277
290744
285544
281481
277020
272271
269187
265802
261742
259415
256870
253393
251662
249800
246809
245610
244173
241867
240135
239745
2806.21
2631.51
2238.52
2072.81
2074.65
2161.62
2189.93
2343.25
2477.69
2513.05
2646.6
2713.01
2736.44
2791.58
2792.87
2853.94
2877.72
2900.78
2955.51
2977.9
2999.97
3041.91
3067.32
3078.69
3097.46
3111.42
3113.47
3113.44
3124.01
3115.83
3114.86
3127.31
3121.77
3130.27
3145.83
3152.34
3171.5
3191.01
3213.47
3245.38
3271.44
3333.67
3574.17
68701.2
175943
267856
309588
324147
318809
313925
307832
302494
296739
290914
285556
281373
276848
272080
268984
265579
261525
259199
256658
253194
251457
249606
246622
245430
244001
241688
239974
239586
2723.68
2224.39
1972.57
1663.25
1663.13
1901.12
1915.66
2280.98
2415.35
2419.47
2580.01
2630.28
2598.89
2690.99
2687.59
2754.68
2799.35
2809.22
2850.9
2902.52
2912.99
2950.08
2991.3
2993.01
3014.24
3036.46
3028.5
3034.81
3048
3028.89
3036.42
3048.95
3031.93
3050.27
3064.64
3058.34
3089.11
3106.64
3113.58
3157.12
3180.57
3215.42
3397.1
46553.4
172291
278284
321336
332458
323465
316687
309659
303421
297238
291095
285563
281262
276658
271868
268782
265352
261292
258989
256449
252977
251266
249431
246447
245255
243861
241540
239828
239463
5600.75
4842.38
3438.33
2256.17
2102.06
1955.9
1888.49
2112.62
2197.26
2222.82
2362.93
2437.16
2446.1
2525.87
2504.63
2624.48
2627.2
2638.41
2700.94
2717.23
2740.31
2782.36
2798.04
2821.67
2837.05
2838.07
2857.82
2852.53
2850.63
2855.47
2848.01
2849.83
2851.12
2849.68
2856.12
2863.56
2871.53
2882.54
2900.06
2918.16
2934.76
2972.95
3073.7
8474.15
165731
290367
335050
341532
328107
319275
311322
304002
297356
290997
285250
280756
276186
271363
268211
264838
260794
258442
255954
252528
250770
248965
246055
244814
243424
241190
239458
239062
6383.27
5612.39
3717.07
2197
1982.86
1736.34
1674.64
1967.35
1989.71
2044.45
2320.57
2311.25
2339.93
2439.05
2428.06
2566.54
2563.79
2585.61
2657.49
2658.42
2688.53
2734.37
2744.91
2770.97
2788.5
2790.71
2808.53
2802.22
2804.33
2805.81
2794.59
2801.65
2800.41
2792.13
2803.76
2809.15
2808.3
2823.89
2839.42
2845.95
2865.39
2897.76
2964.66
3414.86
156054
305020
351784
352019
333403
322455
313304
304913
297814
291138
285218
280567
275934
271097
267904
264512
260512
258136
255647
252270
250493
248691
245819
244572
243188
240969
239268
238858
9864.74
9403.26
7427
5000.71
4213.92
2921.11
2740.12
2413.57
2047.17
2040.35
2136.08
2141.9
2170.31
2221.48
2219.59
2371.94
2339.33
2361.02
2432.81
2419.08
2462.6
2496.97
2504.8
2551.46
2551.3
2551.88
2595.35
2569.77
2571.31
2595.79
2566.62
2576.03
2587.46
2562.03
2577.24
2587.88
2568.81
2588.2
2604.33
2589.68
2611.51
2639.22
2657.93
2929.25
139794
320727
370729
362915
338436
325442
314915
305440
297861
290988
284740
279964
275368
270482
267232
263912
259919
257495
255071
251746
249910
248151
245371
244048
242684
240577
238835
238397
10433.5
10181.8
8249.52
6134.08
5410.57
3679.55
3434.4
2591.67
2253.2
2207.24
2130.63
2156.88
2174.48
2239.77
2254.87
2320.48
2370.67
2384.88
2441.66
2452.77
2482.62
2522.18
2534.58
2557.14
2569.27
2578.03
2589.99
2581.88
2591.94
2587.05
2577.17
2590.28
2575.65
2569.45
2584.6
2569.83
2570.04
2586.88
2577.51
2583.78
2602.12
2600.96
2624.01
2767.23
113994
337691
392617
375033
344173
329111
316762
306426
298337
291095
284703
279767
275061
270172
266908
263541
259578
257174
254732
251426
249621
247855
245085
243791
242431
240319
238615
238174
10907.1
10650.9
9023.64
6626.56
5662.4
3633.8
3158.64
2426
1892.57
1863.98
2013.98
1961.05
1957.88
2081.23
2070.78
2227.99
2222.56
2237.03
2326.23
2324.66
2353.54
2409.83
2418.57
2441.37
2464.2
2470.27
2480.38
2479.96
2487.63
2484.77
2478.73
2490.69
2479.58
2473.7
2488.41
2477.36
2476.62
2493.82
2488.59
2491.23
2508.09
2505.09
2511.85
2628
71037.4
354930
416383
387687
350076
332772
318554
307377
298771
291191
284571
279554
274740
269883
266577
263169
259274
256857
254402
251154
249351
247583
244848
243574
242222
240106
238460
238013
13557.5
13509.7
13363
12252.2
11255.4
8519.73
7925.04
5720.81
3817.44
3462.4
2844.26
2333.47
2220.29
2107.51
2065.59
2114.48
2051.25
2059.77
2139.86
2096.68
2129.68
2165.54
2157.02
2193.27
2194.33
2196.92
2230.67
2208.12
2218.17
2244.35
2219.16
2235.08
2242.1
2222.79
2241.58
2239.06
2226.27
2247.59
2244.83
2234.03
2252.23
2239.81
2227.57
2327.51
3057.75
370396
439540
399852
355453
335573
319802
307700
298614
290862
283927
278818
274023
269125
265768
262423
258558
256103
253708
250528
248674
246950
244315
242968
241643
239651
237964
237498
14400.9
14260.5
13791.1
13322.1
12451.1
10056.8
9397
6429.73
4647.19
4251.01
3052.27
2592.32
2472.07
2229.28
2199.36
2119.19
2107.27
2109.05
2128.05
2138.85
2148.63
2183.43
2194.71
2209.19
2235.45
2234.79
2250.52
2239.96
2253.21
2260.65
2242.88
2264.25
2256.96
2241.79
2265.43
2250.86
2238.69
2263.54
2250
2240.98
2262.03
2242.51
2229.2
2281.99
2849.88
389788
464180
412394
361080
338643
321377
308496
298897
290670
283694
278499
273573
268750
265346
261946
258167
255704
253287
250163
248326
246589
243981
242675
241339
239338
237730
237236
15165.4
14944.3
14776.8
14129.7
13528.4
11334.9
10425.1
7629.15
4895.38
4292.53
3148.43
2342.19
2232.75
2074.89
1962.66
2039.39
1991.54
1976.37
2060.17
2040.78
2046.24
2101.81
2086.28
2084.63
2124.78
2120.12
2110.81
2132.97
2139.03
2135.65
2147.46
2160.03
2147.79
2158.21
2171.4
2153.19
2163.76
2179.02
2164.2
2175.02
2186.01
2158.1
2154.36
2235.75
2697.7
411834
489102
423670
365848
341343
322676
309107
299044
290420
283422
278108
273061
268343
264888
261437
257765
255292
252855
249806
247987
246239
243672
242414
241073
239066
237552
237041
23075.6
22661.1
21250.5
20044.8
19567.6
18586.1
18088.8
15854.1
12325
11228.8
8480.73
5954.51
5321.88
4037.1
3728.99
3191.43
2733.93
2643.81
2491.67
2352.3
2319.8
2243.67
2175.55
2159.11
2125.21
2085.49
2084.5
2044.54
2049.93
2066.29
2028.17
2041.1
2046.53
2024.43
2039.35
2033.06
2022.68
2041.03
2033.6
2028.47
2040.95
2015.31
2004.26
2077.2
2270.31
435567
510217
431999
368515
342943
323250
308964
298295
289710
282628
277168
272164
267466
263950
260568
256968
254451
252070
249125
247247
245539
243102
241760
240451
238587
237037
236506
25097.2
24451.5
22306.4
21392.1
20890
19812.1
19412.9
17034.7
14250
13227.3
9492.18
7206.16
6415.24
4699.52
4458.89
3495.37
3074.22
2969.27
2617.82
2517.8
2460.47
2316
2276.13
2242.14
2187.11
2169.4
2150.35
2135.5
2133.18
2118.91
2098.58
2112.39
2104.42
2075.24
2100.07
2080.88
2059.9
2089.72
2068.53
2054.55
2078.89
2054.38
2042.92
2071.37
2233.73
457220
518129
436937
370431
344368
323883
308802
297990
289352
282248
276630
271532
266992
263386
259984
256518
253950
251575
248726
246824
245119
242736
241427
240099
238238
236791
236206
28558.4
27571.2
25598.5
23061.5
22950
21918.7
21021.6
19776.9
16478.1
15488.9
12258
8220.61
7557.88
5640.44
4885.39
4199.43
3527.9
3233.57
3160.19
2794
2653.44
2618.26
2412.17
2322.52
2350.62
2210.87
2144.54
2217
2131.9
2105.01
2155.45
2090.27
2071.81
2123.39
2070.28
2053.74
2105.61
2062.22
2049.09
2090.96
2063.69
2053.64
2082.27
2076.4
2163.43
467460
519452
435569
369681
344044
323413
308339
297428
288671
281663
275928
270686
266392
262740
259249
255969
253427
250974
248251
246414
244663
242328
241107
239766
237879
236569
235967
46293
44573.7
40770.2
36952.1
35539.3
32923
32361.4
30914.4
28338.8
27438.8
24451.3
20082.2
18623.2
14578
13391.5
10978.6
8846.32
8353.69
7149.69
6146.32
5835.66
5075.25
4568.35
4350.29
3917.54
3660.93
3517.45
3292.56
3223.32
3046.25
2912.95
2867.01
2749.56
2677.33
2645.19
2573.49
2536.95
2515.24
2471.91
2450.87
2431.32
2407.78
2394.52
2371.02
2061.57
461837
511999
430294
367567
342849
322479
307174
296327
287892
280582
274822
269834
265463
261710
258494
255209
252521
250302
247666
245622
244060
241902
240409
239196
237579
236083
235439
49128.5
47526.6
43591.4
39765.2
38511.7
35774
34925.4
33101
30742.4
29835.6
26908.7
22812.8
21466.2
17380
15832.5
12899
10503.7
9810.01
8440.36
7163.88
6774.08
6020.68
5255.59
5030.65
4632.18
4161.9
4031.1
3807.5
3642.63
3458.48
3294.29
3188.05
3061.67
2968.53
2895.57
2819.97
2774.07
2721.03
2678.12
2651.93
2609.08
2587.52
2570.57
2522.76
2119.7
438961
487186
419339
364307
340800
321042
305860
295149
286881
279654
273854
268877
264714
260883
257719
254594
251837
249687
247164
245077
243557
241492
239993
238787
237220
235801
235112
64975.5
64184.8
61697.3
58536
57336.7
54271.8
52961.6
50096.6
46843.2
45852.2
43541.7
40475.7
39194.2
35172.2
33530
29498.4
25687
24489.7
21490.5
18730.1
17708.1
15470.1
13658
12847.3
11381.6
10303.9
9674.13
8727.53
8446.81
7586.1
6945.63
6735.84
6164
5755.93
5598.64
5224.4
4983.05
4868.48
4628.65
4476.85
4389.7
4224.75
4103.25
3628.46
157756
410698
458048
403022
359606
338001
319318
304152
293855
286087
278674
272904
268143
264006
260097
257102
254062
251173
249171
246776
244522
243112
241230
239518
238415
237049
235510
234811
70150.1
66196.4
64487.7
61094.3
60668.6
57378
55874.4
53159.5
49733.2
48849.6
46832.2
43680.6
42928.4
38889.8
37049.2
33124.6
50049
40377.5
38454.4
39192
35841.3
21361.3
15745.9
14982.8
13185
11859.9
11308.7
10161
9750.55
8818.6
8063.61
7751.31
7099.87
6622.07
6420.5
5953.41
5702.77
5556.03
5226.79
5082.54
4966.45
4720.77
4630.34
7132.1
199082
375628
424357
385734
352107
333097
316365
301866
291975
284625
277475
271667
266991
263177
259145
256230
253429
250416
248508
246269
243944
242578
240821
239105
237982
236689
235255
234477
96530.9
93838.3
92414.4
96361.4
140764
68357.4
67825
65665.9
63732.9
62966
61036.6
59054
57791.4
54740.2
53409.9
72980.9
78201
69263.4
65020.5
64170.3
61372.2
51243.6
40831.5
38335.4
36775.1
36559.4
56578.2
20875.6
20524.9
18012.2
16530.8
16285.9
14454.1
13498.9
13258.6
11898
11289.8
11054.1
10064.8
9652.12
9330.77
107330
77674.8
108512
217142
343803
388569
371497
344299
328390
314021
300059
290918
284158
276896
271240
266740
262928
258902
256097
253339
250231
248441
246321
243782
242592
240984
238918
238035
236931
235244
234514
99546.8
99581.6
103941
110680
133928
104420
125085
152209
66958.5
66042.5
65181.3
61748.4
60860.1
159704
103996
96971.5
93279.4
82495.9
81554.5
75006.8
69693.2
64494.8
53167.1
50798.2
52655.8
51874.1
67596.3
47027.2
40950.5
45870.4
47770.9
64880.5
52433.4
85167.6
53299
50907.1
100186
109485
77909
76789.5
76360.6
124911
107040
133074
220320
315473
356760
355329
335484
322454
310677
298066
289295
283026
276373
270487
266010
262747
258459
255605
253220
249943
248102
246189
243602
242305
240859
238870
237816
236771
235280
234370
101872
103003
107227
113189
124104
116174
139303
130061
113605
156672
155353
136013
107955
148602
122272
108232
99273.3
89527.7
85835.4
77339.9
72206.3
67771.5
56646.7
54100.7
55775.1
53022.2
60985.7
49645.8
45616.6
50527.6
58897
78955.7
63479.8
76606.1
52682.8
61153.1
91348.7
96448.5
80560
83587.8
87344
111794
121152
150600
220657
292689
329492
337658
324699
314368
305175
294278
285932
280263
274590
268512
263981
261624
257141
254069
252379
249057
246912
245493
243037
241448
240263
238475
237194
236202
235064
233992
107356
109145
113548
118444
126655
127778
141925
141308
141171
172104
176201
161712
139340
151066
135832
124249
114183
105099
102410
94792.5
89572.4
87226.7
78201.1
75519.1
77446.7
74619.1
79185.2
72543.5
69265.4
74501.8
79343.4
90873
86734.5
87459.3
75518
82549
97068.6
102743
99720.8
100184
106359
126709
139198
167050
223043
278786
311948
325427
317697
310249
303520
293293
286000
281204
275298
269392
265292
262752
258134
255333
253609
249966
248019
246772
243817
242413
241513
239092
238016
237445
235831
234670
110527
112261
115823
119499
125730
128556
137191
139267
142751
161158
166148
157559
142824
144766
135208
127206
118212
110431
107891
100732
95942.8
93733.6
85570.4
83017.4
84414.2
80403.1
82761.5
78471.1
75782
79676.1
81976.2
87555.9
86561.5
82191.9
73207
82779.7
91996.4
97550.9
100611
102902
110736
129160
144815
170994
219146
264877
294783
310890
307678
302854
298365
289611
283079
278970
273791
267868
263926
261961
257199
254456
253096
249338
247412
246395
243397
241960
241242
238842