/*--------------------------------*- C++ -*----------------------------------*\
| =========                 |                                                 |
| \\      /  F ield         | OpenFOAM: The Open Source CFD Toolbox           |
|  \\    /   O peration     | Version:  v2012                                 |
|   \\  /    A nd           | Website:  www.openfoam.com                      |
|    \\/     M anipulation  |                                                 |
\*---------------------------------------------------------------------------*/
FoamFile
{
    version     2.0;
    format      ascii;
    class       volVectorField;
    location    "1e-06";
    object      U;
}
// * * * * * * * * * * * * * * * * * * * * * * * * * * * * * * * * * * * * * //

dimensions      [0 1 -1 0 0 0 0];


internalField   nonuniform List<vector> 
10248
(
(-0.0627691 0.00749224 -2.20611e-30)
(-0.0602453 0.00808022 -7.57594e-33)
(-0.0363698 0.00887685 -8.80847e-37)
(-0.159796 0.021769 -6.61328e-32)
(-0.191318 0.0262055 7.02507e-29)
(-0.237814 0.0182915 -1.23085e-28)
(-0.193612 0.0133576 0)
(-0.0946535 -0.00231461 4.03179e-33)
(-0.119422 0.0107125 3.50739e-33)
(-0.134639 0.0124697 0)
(-0.238563 0.023187 -1.63474e-31)
(-0.242976 0.0141005 5.24288e-28)
(-0.255389 0.0177173 0)
(-0.241388 0.0145479 -1.5238e-28)
(-0.209616 0.00480964 5.16293e-28)
(-0.211289 0.0108042 -6.14418e-32)
(-0.191517 0.0129319 -4.29802e-28)
(-0.182513 0.0111409 0)
(-0.0908784 0.00980833 5.76991e-30)
(-0.219385 0.0178797 -1.64733e-33)
(-0.225309 0.0215832 1.08033e-32)
(-0.249189 0.0271617 -3.4816e-28)
(-0.312721 0.0337631 4.37299e-28)
(-0.354273 0.0430809 0)
(-0.443655 0.0523276 -6.13799e-28)
(-0.433531 0.0444719 5.17628e-28)
(-0.48918 0.057521 -6.01682e-36)
(-0.489838 0.0502228 4.82471e-28)
(-0.411042 0.0402793 -5.45656e-28)
(-0.412441 0.0519129 0)
(-0.482746 0.0675315 0)
(-0.494488 0.0692239 2.43703e-28)
(-0.743113 0.105726 -1.11516e-33)
(-0.9361 0.124259 -1.06226e-28)
(-0.926573 0.122983 7.53068e-29)
(-1.02683 0.124422 2.22968e-32)
(-1.06909 0.13571 0)
(-1.06779 0.137128 6.3404e-29)
(-1.19228 0.160167 7.55536e-29)
(-1.32271 0.175878 4.85956e-29)
(-1.32629 0.176746 6.24536e-32)
(-1.69156 0.238547 1.87422e-28)
(-2.15011 0.287726 0)
(-2.38631 0.319769 0)
(-2.6705 0.353268 0)
(-2.8191 0.369639 -6.77587e-30)
(-2.89879 0.380011 -6.36415e-29)
(-3.02786 0.395517 0)
(-3.06785 0.398169 3.94199e-29)
(-3.03691 0.394385 1.79278e-29)
(-3.07117 0.398987 0)
(-3.06095 0.396113 0)
(-3.01507 0.391137 8.53542e-30)
(-3.04399 0.395269 -5.26377e-31)
(-3.02925 0.391607 0)
(-2.96176 0.383007 5.55875e-30)
(-2.95638 0.383251 -8.47223e-30)
(-2.93273 0.378995 -6.46776e-30)
(-2.86533 0.370196 7.87438e-30)
(-2.84766 0.368769 0)
(-2.82067 0.364652 0)
(-2.77037 0.357831 7.49816e-30)
(-2.74087 0.352486 -2.3026e-30)
(-2.60439 0.337029 -4.33468e-31)
(-2.67676 0.348108 -2.11253e-29)
(-2.63288 0.340657 0)
(-2.62274 0.339473 -1.47992e-29)
(-2.58462 0.333412 -1.14339e-29)
(-2.52912 0.326866 0)
(-2.51996 0.326829 2.50016e-29)
(-2.49567 0.322786 2.49355e-29)
(-2.43092 0.314416 -1.20188e-31)
(-0.109813 0.0106836 8.53061e-33)
(-0.0992656 0.0103339 -6.9102e-37)
(-0.0485185 0.01456 -2.94573e-32)
(-0.2003 0.0353301 3.62896e-32)
(-0.228227 0.0390806 2.96524e-28)
(-0.319351 0.0352405 0)
(-0.310867 0.0337265 -1.90465e-28)
(-0.229661 0.0152522 0)
(-0.261131 0.0297164 0)
(-0.259149 0.0291034 -6.26158e-28)
(-0.346266 0.0356132 8.00201e-28)
(-0.397338 0.0290268 -8.43623e-33)
(-0.396974 0.0345281 4.15288e-32)
(-0.4287 0.0418082 8.33574e-32)
(-0.424602 0.0239402 9.97362e-28)
(-0.407764 0.0334127 -1.45569e-32)
(-0.424811 0.039929 -4.69287e-32)
(-0.4199 0.0387709 -7.78184e-28)
(-0.417783 0.0576324 2.37405e-30)
(-0.477604 0.0495498 -1.40897e-27)
(-0.473993 0.0552638 0)
(-0.477307 0.0597511 5.15079e-28)
(-0.601519 0.0736683 -2.27091e-35)
(-0.607163 0.0810626 -1.52705e-34)
(-0.711057 0.0911536 -4.76667e-28)
(-0.787897 0.0889233 2.90943e-32)
(-0.778809 0.0979526 0)
(-0.811771 0.0918395 6.29472e-28)
(-0.799919 0.0911856 -4.177e-28)
(-0.701474 0.0977966 -3.60383e-29)
(-0.775047 0.114439 7.14578e-33)
(-0.80984 0.120263 4.03888e-28)
(-0.971263 0.144688 0)
(-1.19169 0.164504 0)
(-1.2061 0.16519 9.61181e-29)
(-1.24149 0.154348 0)
(-1.32538 0.172588 0)
(-1.33835 0.175837 -5.06672e-34)
(-1.404 0.192141 2.25634e-29)
(-1.56554 0.211947 5.48363e-29)
(-1.58079 0.21421 -1.0948e-31)
(-1.89438 0.286971 -7.94072e-30)
(-2.39096 0.331319 0)
(-2.64236 0.364415 0)
(-2.86715 0.3869 -4.20109e-29)
(-3.04722 0.405091 -1.30249e-28)
(-3.14825 0.416655 -3.39875e-28)
(-3.21844 0.423004 1.32397e-28)
(-3.28626 0.427212 -2.1068e-30)
(-3.28405 0.425804 7.12343e-29)
(-3.25826 0.423063 -3.47864e-31)
(-3.2644 0.42209 2.61719e-29)
(-3.25655 0.422041 3.89313e-29)
(-3.22833 0.418945 -5.20856e-31)
(-3.21697 0.415174 -5.7238e-31)
(-3.19232 0.411445 -6.13169e-31)
(-3.139 0.405734 0)
(-3.10357 0.400077 -1.4227e-29)
(-3.07506 0.395961 2.1846e-29)
(-3.02914 0.391041 -1.22497e-29)
(-2.98161 0.384663 0)
(-2.96112 0.381528 -1.09804e-29)
(-2.9236 0.374724 5.66974e-31)
(-2.91725 0.376696 1.41262e-29)
(-2.84921 0.369421 5.50676e-31)
(-2.81711 0.363574 0)
(-2.76291 0.357169 0)
(-2.74056 0.352829 0)
(-2.71454 0.349942 0)
(-2.66305 0.345037 3.01058e-29)
(-2.63359 0.340353 -1.59448e-31)
(-2.59891 0.335474 -5.88114e-29)
(-0.186177 0.012146 0)
(-0.174932 0.0121796 -9.32684e-30)
(-0.0953932 0.0291701 2.30656e-29)
(-0.28701 0.0650291 2.14343e-32)
(-0.309735 0.0686798 -1.53301e-33)
(-0.459234 0.0709501 -1.31048e-28)
(-0.463874 0.0702543 1.03255e-34)
(-0.429037 0.0535785 0)
(-0.477301 0.0757373 1.6833e-32)
(-0.475811 0.0746457 -4.21889e-28)
(-0.541233 0.0797775 3.68334e-28)
(-0.658188 0.0846373 1.47211e-32)
(-0.654527 0.0845647 0)
(-0.740514 0.100376 -9.41909e-29)
(-0.763181 0.0887685 9.94053e-28)
(-0.753298 0.0922681 -9.01373e-32)
(-0.814387 0.109248 2.31378e-28)
(-0.814785 0.107767 -3.51425e-28)
(-0.743645 0.107258 0)
(-0.890984 0.125493 3.759e-33)
(-0.883332 0.125204 -1.74239e-28)
(-0.862294 0.129831 1.82423e-28)
(-1.01223 0.15297 3.19115e-32)
(-1.00754 0.15378 6.99529e-32)
(-1.11145 0.163976 -2.07478e-28)
(-1.22059 0.168838 -2.79349e-28)
(-1.20076 0.168503 4.43326e-32)
(-1.24284 0.162501 2.4629e-29)
(-1.24541 0.164876 2.83323e-33)
(-1.14689 0.169351 2.08997e-32)
(-1.18373 0.189298 0)
(-1.21202 0.193303 1.17547e-28)
(-1.3196 0.211093 -1.56751e-32)
(-1.50798 0.223627 4.61129e-33)
(-1.5218 0.221597 -5.92075e-30)
(-1.55385 0.206848 3.09496e-33)
(-1.63899 0.226353 4.02412e-33)
(-1.65206 0.22842 -1.16351e-28)
(-1.70156 0.242894 0)
(-1.84441 0.260879 -3.4779e-29)
(-1.85771 0.261036 -2.33847e-32)
(-2.17045 0.318047 8.51537e-28)
(-2.65695 0.36963 1.53559e-28)
(-2.90536 0.403843 1.53374e-28)
(-3.12217 0.431126 -4.77194e-31)
(-3.28891 0.445856 -1.88724e-28)
(-3.39018 0.454277 -2.74181e-28)
(-3.46136 0.458327 4.66636e-28)
(-3.51638 0.459458 2.10056e-30)
(-3.51328 0.454836 -6.78671e-37)
(-3.4875 0.451904 9.39254e-37)
(-3.48239 0.450345 4.3502e-29)
(-3.47226 0.448919 3.55874e-29)
(-3.44472 0.445286 1.05511e-29)
(-3.42378 0.440746 0)
(-3.39164 0.434606 0)
(-3.34234 0.428849 0)
(-3.29852 0.423404 -6.44811e-31)
(-3.26454 0.418018 -5.33205e-31)
(-3.22114 0.412508 -5.13165e-30)
(-3.16631 0.406583 -5.41938e-31)
(-3.14144 0.402872 -1.20099e-29)
(-3.10447 0.395712 -3.23359e-32)
(-3.03526 0.38995 9.29311e-30)
(-3.02284 0.388687 2.60394e-30)
(-2.99048 0.382841 2.71407e-30)
(-2.93569 0.377035 0)
(-2.90542 0.372293 0)
(-2.87742 0.368208 0)
(-2.82562 0.363048 -3.24562e-31)
(-2.79032 0.358495 -1.58431e-31)
(-2.7507 0.352504 -1.14656e-29)
(-0.192382 0.0107151 -5.96319e-33)
(-0.180317 0.0117173 3.64796e-30)
(-0.120619 0.0359483 -1.44301e-29)
(-0.290011 0.0702956 4.16593e-29)
(-0.321337 0.0763116 2.07956e-29)
(-0.472223 0.078269 2.43033e-33)
(-0.46862 0.0753374 3.11714e-29)
(-0.491763 0.0671254 1.48401e-28)
(-0.486745 0.0810169 -1.71792e-32)
(-0.486091 0.0805941 -8.02294e-29)
(-0.601123 0.0938441 7.61724e-32)
(-0.666554 0.0911422 3.58457e-28)
(-0.679915 0.0928783 -5.73648e-32)
(-0.774083 0.105508 -6.39507e-29)
(-0.773817 0.0959167 4.16475e-28)
(-0.834304 0.107793 -1.64579e-28)
(-0.837513 0.11604 2.01509e-28)
(-0.830498 0.111023 3.81921e-28)
(-0.876065 0.129662 -1.84201e-32)
(-0.908458 0.134364 4.07062e-28)
(-0.90525 0.132016 -1.50853e-28)
(-0.967842 0.150261 2.04455e-32)
(-1.02646 0.161021 9.61339e-33)
(-1.03526 0.163043 -8.35542e-29)
(-1.16282 0.177961 -6.93581e-29)
(-1.23477 0.176544 0)
(-1.23965 0.177918 0)
(-1.27921 0.172158 -1.78665e-28)
(-1.26237 0.171056 0)
(-1.20503 0.180202 5.67373e-29)
(-1.2119 0.1979 -3.12564e-32)
(-1.22781 0.200458 -4.06134e-32)
(-1.37849 0.225611 -1.54301e-36)
(-1.52705 0.230817 -1.58649e-32)
(-1.53611 0.227442 8.81031e-29)
(-1.61761 0.221373 5.68119e-36)
(-1.66022 0.232568 6.75161e-33)
(-1.66947 0.234113 1.70695e-28)
(-1.77231 0.257808 1.10621e-28)
(-1.86459 0.266905 1.0093e-28)
(-1.87517 0.266606 0)
(-2.23594 0.311784 3.11987e-28)
(-2.67916 0.36294 6.9197e-29)
(-2.923 0.40734 5.65824e-31)
(-3.17209 0.445714 2.69641e-29)
(-3.30862 0.454644 6.7061e-30)
(-3.40841 0.461192 3.84174e-28)
(-3.50287 0.466238 2.31109e-31)
(-3.53887 0.463046 0)
(-3.53266 0.456273 -1.08066e-30)
(-3.52025 0.455132 -6.94732e-31)
(-3.50592 0.452631 1.17822e-31)
(-3.49123 0.45054 4.67854e-29)
(-3.47174 0.447625 1.01052e-29)
(-3.44938 0.442675 -6.25377e-31)
(-3.41026 0.434939 0)
(-3.36486 0.429614 0)
(-3.3279 0.42546 0)
(-3.28292 0.418407 -1.18642e-29)
(-3.24133 0.413144 0)
(-3.20928 0.410446 5.39629e-31)
(-3.15954 0.403468 4.33016e-31)
(-3.1233 0.396064 5.01462e-30)
(-3.09908 0.396549 -8.56791e-31)
(-3.04118 0.390087 -2.95421e-31)
(-3.0084 0.383487 -2.73317e-32)
(-2.96524 0.379403 3.33981e-31)
(-2.92423 0.37338 7.45429e-30)
(-2.89375 0.368746 7.62316e-30)
(-2.84556 0.364234 -2.89783e-29)
(-2.81303 0.360206 -2.58312e-29)
(-2.76698 0.35314 -1.3044e-31)
(-0.269354 0.0122643 3.6095e-30)
(-0.259471 0.0152703 -7.40671e-31)
(-0.206132 0.0553682 0)
(-0.409352 0.102073 -1.18256e-29)
(-0.438929 0.109177 0)
(-0.615302 0.11292 7.80301e-29)
(-0.617872 0.110739 6.93419e-29)
(-0.653602 0.0971095 1.58938e-28)
(-0.69898 0.117884 -2.70157e-30)
(-0.702592 0.120165 2.98805e-29)
(-0.818072 0.133636 1.00108e-31)
(-0.931252 0.137889 6.18385e-32)
(-0.940105 0.139156 3.14724e-32)
(-1.05778 0.152966 -5.64051e-32)
(-1.07176 0.147206 0)
(-1.12867 0.155314 -1.00225e-28)
(-1.16973 0.167709 1.28731e-28)
(-1.17444 0.168208 1.54164e-28)
(-1.27733 0.189287 -4.58412e-32)
(-1.26111 0.189341 1.16489e-28)
(-1.25637 0.189349 -6.71009e-29)
(-1.28708 0.203967 0)
(-1.35864 0.218057 1.39023e-28)
(-1.35366 0.21926 -9.23712e-29)
(-1.44526 0.229515 0)
(-1.51394 0.226988 -1.28959e-28)
(-1.51288 0.225552 0)
(-1.55262 0.218931 1.75135e-32)
(-1.54585 0.219301 -4.89126e-29)
(-1.49996 0.230635 -1.38835e-29)
(-1.50457 0.25115 3.77708e-29)
(-1.51962 0.255368 -2.31176e-32)
(-1.61458 0.27333 4.88298e-29)
(-1.73527 0.27293 7.18048e-29)
(-1.74499 0.270719 4.71963e-29)
(-1.80354 0.260994 5.56891e-33)
(-1.86188 0.275258 6.08494e-29)
(-1.87174 0.277731 -1.0596e-33)
(-1.94242 0.293342 4.0067e-29)
(-2.02832 0.300535 1.37175e-29)
(-2.0393 0.300903 8.9384e-30)
(-2.38258 0.340129 -8.11417e-30)
(-2.82895 0.374875 1.69956e-28)
(-3.07065 0.424343 7.60936e-29)
(-3.30018 0.473218 0)
(-3.44009 0.480051 0)
(-3.54118 0.485486 9.95366e-28)
(-3.6266 0.485986 -4.25602e-28)
(-3.66311 0.480328 -2.07989e-30)
(-3.65768 0.471975 -2.09639e-28)
(-3.64012 0.469825 0)
(-3.62381 0.466939 -8.10601e-29)
(-3.6091 0.464897 5.97233e-29)
(-3.58699 0.461194 -5.14323e-31)
(-3.56034 0.455093 -5.55036e-30)
(-3.51935 0.446284 0)
(-3.47499 0.441118 -7.65053e-30)
(-3.43136 0.436398 -2.68697e-29)
(-3.38721 0.429066 5.61356e-31)
(-3.34647 0.424192 -1.56096e-29)
(-3.30268 0.420169 -5.35869e-31)
(-3.25912 0.413551 1.81458e-29)
(-3.22323 0.406952 1.39383e-29)
(-3.18994 0.40598 0)
(-3.13591 0.399167 -4.29293e-29)
(-3.10301 0.393089 2.32889e-30)
(-3.05502 0.388607 6.66915e-31)
(-3.01307 0.382409 1.46864e-29)
(-2.9823 0.377538 1.64474e-29)
(-2.93263 0.372964 -4.50463e-29)
(-2.89524 0.368456 -2.0587e-32)
(-2.84793 0.360857 0)
(-0.343723 0.015284 7.07672e-30)
(-0.335971 0.0202941 0)
(-0.295002 0.0787485 1.16772e-32)
(-0.530078 0.138782 1.62652e-32)
(-0.559128 0.145037 -7.03029e-29)
(-0.751892 0.147295 -1.41549e-28)
(-0.763839 0.14528 -2.59603e-34)
(-0.801915 0.12748 -4.44523e-36)
(-0.908749 0.157737 5.73688e-30)
(-0.915911 0.159917 -2.79295e-33)
(-1.02101 0.173669 0)
(-1.15725 0.182247 2.18102e-28)
(-1.15946 0.180839 0)
(-1.26549 0.192528 0)
(-1.28334 0.189105 0)
(-1.32569 0.193242 0)
(-1.39036 0.209986 6.55324e-29)
(-1.39557 0.210854 1.02752e-28)
(-1.41599 0.219321 0)
(-1.4813 0.230926 0)
(-1.48177 0.230974 -9.49057e-29)
(-1.49838 0.243712 -4.17933e-30)
(-1.56323 0.25908 1.75419e-28)
(-1.56029 0.259048 -9.5857e-29)
(-1.61636 0.265135 -2.01563e-29)
(-1.67021 0.262847 -1.266e-28)
(-1.66636 0.259458 0)
(-1.70358 0.25502 4.15708e-29)
(-1.70885 0.257007 -7.49733e-29)
(-1.68777 0.268085 -6.85836e-29)
(-1.71065 0.292335 9.08804e-29)
(-1.72605 0.296038 5.7326e-29)
(-1.78155 0.307884 -2.30525e-29)
(-1.87597 0.305237 -2.69545e-30)
(-1.88599 0.303352 -2.86579e-32)
(-1.92534 0.293657 -1.01104e-31)
(-1.98422 0.308306 -6.86102e-29)
(-1.99302 0.309844 7.28168e-29)
(-2.04529 0.319955 8.61233e-32)
(-2.12335 0.326435 -6.84502e-29)
(-2.13414 0.326149 8.77845e-29)
(-2.46794 0.361987 1.61166e-29)
(-2.91414 0.380082 3.38657e-28)
(-3.15331 0.430284 0)
(-3.37396 0.493386 0)
(-3.51419 0.498262 -6.64073e-30)
(-3.61742 0.502122 6.1378e-28)
(-3.69889 0.498778 -3.6264e-30)
(-3.73382 0.490706 -3.74801e-28)
(-3.72955 0.480429 -2.60461e-28)
(-3.71019 0.477643 0)
(-3.6914 0.47463 -9.95129e-29)
(-3.67662 0.472473 0)
(-3.65338 0.468056 5.12785e-31)
(-3.62383 0.461028 -2.59072e-30)
(-3.58139 0.451396 -3.28749e-36)
(-3.53781 0.446233 -4.82789e-30)
(-3.49073 0.441391 -6.36889e-29)
(-3.4465 0.43384 -1.11396e-30)
(-3.40634 0.428936 -1.71863e-29)
(-3.35742 0.424659 -1.06486e-30)
(-3.31553 0.418148 2.45938e-29)
(-3.27986 0.411505 1.30256e-29)
(-3.23096 0.408767 -2.96614e-29)
(-3.18917 0.403303 -2.91495e-29)
(-3.15628 0.397073 8.51122e-31)
(-3.10644 0.392627 0)
(-3.06289 0.386255 0)
(-3.03192 0.381119 0)
(-2.98135 0.376476 -5.28879e-29)
(-2.94118 0.371775 5.14339e-29)
(-2.89288 0.363809 2.77312e-29)
(-0.353463 0.0154193 0)
(-0.344459 0.0204348 0)
(-0.32325 0.0877227 0)
(-0.535075 0.142862 1.00799e-29)
(-0.574261 0.152799 -3.36176e-29)
(-0.768096 0.154096 -1.02168e-28)
(-0.770767 0.149238 -1.23363e-28)
(-0.851406 0.139668 0)
(-0.922683 0.162364 0)
(-0.931334 0.165051 -1.91708e-28)
(-1.07477 0.187353 -9.9336e-32)
(-1.16642 0.18768 1.86921e-28)
(-1.18351 0.188539 0)
(-1.28892 0.199326 0)
(-1.29139 0.19417 1.44106e-28)
(-1.36293 0.203894 4.23521e-32)
(-1.40319 0.215227 0)
(-1.40496 0.21469 1.80077e-33)
(-1.45733 0.228799 0)
(-1.49108 0.236395 5.36686e-32)
(-1.49329 0.235938 -9.79447e-32)
(-1.53773 0.254495 -1.25503e-28)
(-1.57168 0.26391 -7.60692e-33)
(-1.57559 0.265228 6.19685e-29)
(-1.63912 0.272867 -1.8021e-28)
(-1.67807 0.267555 4.56026e-29)
(-1.68403 0.266263 5.61978e-29)
(-1.72043 0.26183 0)
(-1.71783 0.261898 0)
(-1.71797 0.277482 1.72589e-29)
(-1.73197 0.299351 0)
(-1.74013 0.301363 3.73072e-33)
(-1.81713 0.317681 9.77733e-32)
(-1.89048 0.310704 -2.32537e-29)
(-1.89703 0.308275 0)
(-1.95295 0.305278 0)
(-1.99655 0.314366 2.12561e-32)
(-2.00379 0.315372 5.18011e-32)
(-2.07006 0.329819 2.05438e-32)
(-2.13412 0.331979 -2.55065e-29)
(-2.14407 0.331453 4.23759e-29)
(-2.49039 0.368201 0)
(-2.9255 0.372351 2.45854e-29)
(-3.16172 0.429373 1.74505e-29)
(-3.39081 0.504699 1.92905e-29)
(-3.52306 0.506563 -1.32564e-29)
(-3.6276 0.508901 -1.07036e-29)
(-3.71655 0.503842 -7.22089e-30)
(-3.7457 0.492784 -9.03622e-28)
(-3.74123 0.480914 3.10051e-28)
(-3.72676 0.478417 0)
(-3.70442 0.475188 -2.31877e-31)
(-3.68788 0.472945 -7.89445e-36)
(-3.66703 0.468407 -3.56808e-29)
(-3.63645 0.460624 1.12721e-30)
(-3.59142 0.450224 2.39384e-30)
(-3.54923 0.445159 1.39867e-30)
(-3.50405 0.440779 -3.15735e-29)
(-3.45629 0.432779 -1.68509e-29)
(-3.41676 0.42795 -1.45214e-29)
(-3.37337 0.424474 0)
(-3.32508 0.417316 -2.41614e-29)
(-3.28951 0.410679 7.5921e-30)
(-3.24984 0.40914 -3.21109e-29)
(-3.19841 0.402599 -6.13565e-31)
(-3.16519 0.39623 -2.65746e-36)
(-3.11893 0.392248 6.61153e-31)
(-3.07206 0.385671 1.71856e-29)
(-3.04018 0.380324 6.4689e-31)
(-2.99059 0.375774 -4.58061e-32)
(-2.95092 0.371232 0)
(-2.90056 0.362984 3.77576e-29)
(-0.429627 0.0202615 -7.13958e-33)
(-0.423232 0.0275668 1.54977e-33)
(-0.413886 0.114841 0)
(-0.649366 0.186267 -4.04384e-32)
(-0.682494 0.194734 -6.58749e-33)
(-0.900557 0.193962 0)
(-0.915781 0.1909 2.26563e-32)
(-1.01146 0.176397 -1.37037e-28)
(-1.12593 0.206404 0)
(-1.1348 0.209547 -9.78305e-29)
(-1.24739 0.226161 0)
(-1.34935 0.230218 5.43654e-29)
(-1.35583 0.228468 4.81117e-33)
(-1.44163 0.235962 7.67346e-32)
(-1.45117 0.233877 -1.15013e-33)
(-1.49319 0.237171 -2.39618e-32)
(-1.54093 0.250814 -4.42173e-29)
(-1.54443 0.251198 2.74685e-29)
(-1.59247 0.26298 -1.58531e-32)
(-1.6191 0.272091 -6.78138e-29)
(-1.62026 0.271605 -4.89511e-29)
(-1.65108 0.285738 -6.83903e-29)
(-1.69224 0.298885 4.49269e-29)
(-1.69238 0.298841 5.32227e-29)
(-1.73811 0.303628 -1.05298e-28)
(-1.77722 0.301675 3.84701e-32)
(-1.77801 0.298428 6.68382e-29)
(-1.81401 0.297296 -7.28294e-29)
(-1.81796 0.299373 2.48268e-32)
(-1.82705 0.311512 6.98191e-32)
(-1.85377 0.333835 -1.22926e-29)
(-1.86225 0.335969 3.71628e-32)
(-1.91017 0.345024 -5.17497e-29)
(-1.96798 0.339379 -4.44372e-29)
(-1.9742 0.338068 0)
(-2.01311 0.333899 0)
(-2.05771 0.34208 5.83934e-30)
(-2.06518 0.342992 0)
(-2.11769 0.351661 1.19018e-29)
(-2.17938 0.353452 -1.50436e-31)
(-2.19012 0.352852 2.56308e-29)
(-2.52985 0.338288 1.67537e-26)
(-2.9609 0.375316 0)
(-3.19585 0.440165 5.27424e-28)
(-3.423 0.521324 4.71072e-29)
(-3.55693 0.521219 1.32347e-29)
(-3.66402 0.522101 0)
(-3.7497 0.512186 0)
(-3.77873 0.498379 -5.2263e-28)
(-3.77551 0.484965 2.20536e-30)
(-3.75934 0.481252 2.14723e-28)
(-3.73614 0.477831 2.33259e-31)
(-3.71994 0.475741 1.42601e-30)
(-3.69728 0.470246 -4.46864e-29)
(-3.66476 0.461353 -5.61408e-31)
(-3.61952 0.450336 -3.61984e-36)
(-3.57745 0.445301 -6.08091e-31)
(-3.53003 0.440784 3.49227e-29)
(-3.48273 0.432591 -1.86881e-29)
(-3.44345 0.427926 -4.76333e-32)
(-3.3969 0.424319 -1.05519e-30)
(-3.34994 0.416981 -8.77006e-31)
(-3.31452 0.410637 1.0412e-30)
(-3.2733 0.408912 3.74169e-29)
(-3.22145 0.401911 0)
(-3.18833 0.395689 0)
(-3.14058 0.391732 -3.76304e-29)
(-3.09313 0.38491 3.80886e-29)
(-3.06135 0.379453 -1.64429e-29)
(-3.01106 0.374856 5.0872e-29)
(-2.9697 0.370186 0)
(-2.91909 0.361613 2.03821e-29)
(-0.441198 0.0210357 -9.68592e-32)
(-0.433697 0.0280978 -1.4854e-30)
(-0.448158 0.124886 0)
(-0.655732 0.189898 -1.03642e-29)
(-0.700952 0.202983 -5.83244e-33)
(-0.919756 0.200756 -1.28762e-28)
(-0.924172 0.195011 1.65905e-28)
(-1.06281 0.190131 -1.1252e-28)
(-1.14043 0.210858 7.58469e-30)
(-1.15179 0.215264 1.15695e-28)
(-1.29329 0.238393 0)
(-1.3578 0.234666 0)
(-1.37846 0.235952 -5.39764e-29)
(-1.46213 0.242526 7.00478e-32)
(-1.4587 0.238651 -2.03629e-29)
(-1.52352 0.246864 8.76407e-29)
(-1.55236 0.255845 -1.67446e-28)
(-1.55314 0.256236 8.4912e-29)
(-1.61111 0.270868 1.17695e-28)
(-1.62745 0.276565 -9.66889e-29)
(-1.63081 0.277216 -4.12462e-32)
(-1.67869 0.29588 -1.58632e-32)
(-1.69956 0.303645 -8.84077e-29)
(-1.7052 0.305202 0)
(-1.75517 0.311342 0)
(-1.78383 0.306887 -1.25104e-28)
(-1.79217 0.306137 -9.44629e-29)
(-1.8268 0.305205 4.74351e-32)
(-1.8253 0.305389 -2.78904e-32)
(-1.84682 0.321095 1.01366e-28)
(-1.86816 0.340664 -6.29522e-29)
(-1.8723 0.341433 -1.06426e-28)
(-1.93055 0.353342 -8.5142e-29)
(-1.97764 0.345797 0)
(-1.9823 0.343996 0)
(-2.02836 0.344446 5.18967e-30)
(-2.06613 0.348551 -5.23275e-33)
(-2.07269 0.348846 -3.16947e-36)
(-2.13096 0.360203 -8.86529e-30)
(-2.18651 0.35871 2.76724e-29)
(-2.20102 0.35805 -2.54905e-30)
(-2.54559 0.277071 2.11225e-26)
(-2.96334 0.375131 -1.70152e-28)
(-3.19729 0.444875 5.77183e-28)
(-3.42882 0.532176 0)
(-3.56103 0.529634 -1.32278e-29)
(-3.66982 0.528902 -1.06547e-29)
(-3.75887 0.516369 8.47257e-28)
(-3.78557 0.499788 4.0976e-30)
(-3.78227 0.484817 -4.28018e-28)
(-3.76871 0.480938 2.4889e-28)
(-3.74419 0.477559 0)
(-3.72686 0.475511 0)
(-3.70468 0.469524 -5.50277e-29)
(-3.67112 0.45982 -4.94655e-31)
(-3.62475 0.448345 -9.34079e-32)
(-3.58343 0.443339 1.33669e-30)
(-3.5365 0.439001 3.75634e-29)
(-3.48774 0.430711 -1.09838e-30)
(-3.44876 0.42615 2.09179e-29)
(-3.4038 0.422681 2.69961e-37)
(-3.35472 0.415313 2.79417e-29)
(-3.3193 0.409151 1.48266e-29)
(-3.27652 0.406988 4.21309e-29)
(-3.22594 0.40028 6.06728e-31)
(-3.19266 0.394142 -3.06661e-30)
(-3.14622 0.390233 6.30951e-31)
(-3.09737 0.38346 2.04257e-29)
(-3.06522 0.377951 -1.84224e-29)
(-3.01528 0.373314 5.40371e-29)
(-2.97388 0.368678 0)
(-2.92245 0.360071 0)
(-0.525388 0.0284525 -1.78495e-34)
(-0.5215 0.0384461 -1.71837e-30)
(-0.546179 0.152921 0)
(-0.788035 0.231164 -1.37396e-28)
(-0.82388 0.242917 1.33168e-32)
(-1.06701 0.238549 -2.08554e-28)
(-1.08536 0.23529 2.65748e-28)
(-1.22105 0.226159 0)
(-1.32932 0.249566 4.81332e-33)
(-1.33796 0.254907 1.02637e-28)
(-1.43561 0.269992 1.35909e-31)
(-1.5111 0.268728 1.66599e-31)
(-1.51843 0.268344 -3.82652e-29)
(-1.58431 0.271832 -1.30527e-31)
(-1.58924 0.270623 -1.51497e-32)
(-1.62549 0.274044 5.03665e-29)
(-1.66033 0.284229 -4.86248e-30)
(-1.66266 0.28587 -1.57472e-33)
(-1.70022 0.296601 5.78888e-29)
(-1.72285 0.304885 -3.93108e-32)
(-1.72456 0.306097 3.93288e-32)
(-1.75449 0.320545 -2.16845e-32)
(-1.78362 0.330822 1.33799e-32)
(-1.78514 0.331721 -2.77132e-32)
(-1.82168 0.336096 0)
(-1.85289 0.334848 3.08654e-30)
(-1.85569 0.332928 1.17342e-29)
(-1.88813 0.334679 -4.31361e-29)
(-1.89194 0.336541 0)
(-1.91079 0.34893 -4.52477e-29)
(-1.93806 0.367173 2.21116e-32)
(-1.94374 0.368386 2.36633e-32)
(-1.98167 0.37462 -2.5049e-29)
(-2.02154 0.369987 -3.87108e-32)
(-2.02662 0.369073 -1.90458e-36)
(-2.05996 0.367529 -5.29569e-29)
(-2.09901 0.371916 7.53622e-29)
(-2.10607 0.372345 3.20725e-29)
(-2.15504 0.377817 0)
(-2.21037 0.376509 0)
(-2.23188 0.376499 -3.25611e-29)
(-2.56795 0.253853 6.9007e-27)
(-2.97739 0.383613 -1.86593e-28)
(-3.21021 0.457002 -3.41882e-29)
(-3.43796 0.54635 1.28375e-29)
(-3.57364 0.542078 1.31937e-29)
(-3.68543 0.539596 1.06206e-29)
(-3.77213 0.522153 9.56676e-28)
(-3.79879 0.502633 0)
(-3.79623 0.486046 2.09758e-30)
(-3.78176 0.481072 2.84285e-28)
(-3.75705 0.477572 0)
(-3.73964 0.475656 0)
(-3.71574 0.46866 -6.36481e-29)
(-3.68066 0.457885 4.24249e-30)
(-3.63427 0.445948 -5.60059e-30)
(-3.59307 0.440945 6.64528e-30)
(-3.54467 0.436521 0)
(-3.49627 0.428153 -1.08955e-30)
(-3.45746 0.423744 -2.08357e-36)
(-3.41059 0.420213 1.04526e-30)
(-3.36223 0.412738 3.83062e-29)
(-3.32697 0.406794 1.07309e-30)
(-3.28354 0.404628 0)
(-3.23226 0.397558 3.98438e-29)
(-3.19913 0.391528 -1.21787e-29)
(-3.15185 0.387602 4.66236e-29)
(-3.10245 0.380677 2.94798e-29)
(-3.0704 0.375131 0)
(-3.02008 0.370415 6.84353e-29)
(-2.97759 0.365694 -3.03313e-31)
(-2.92589 0.356898 -2.49257e-31)
(-0.611139 0.0390111 3.83126e-30)
(-0.613068 0.0512392 -3.3834e-30)
(-0.658357 0.178796 5.34718e-32)
(-0.942299 0.268675 1.12149e-31)
(-0.965095 0.278243 1.21448e-35)
(-1.2227 0.275393 2.36103e-28)
(-1.25547 0.271456 6.94886e-33)
(-1.36128 0.259727 -3.80414e-32)
(-1.48843 0.284918 1.69891e-28)
(-1.4954 0.287768 -1.21765e-28)
(-1.55619 0.29742 6.55789e-32)
(-1.63501 0.29933 1.49736e-31)
(-1.63199 0.296184 1.04693e-28)
(-1.6802 0.298114 0)
(-1.69172 0.298788 1.24024e-28)
(-1.70495 0.298222 0)
(-1.74143 0.310777 -7.61132e-29)
(-1.7451 0.312266 7.08466e-29)
(-1.75524 0.317904 -5.26198e-33)
(-1.79069 0.331644 0)
(-1.79141 0.331958 -1.05079e-28)
(-1.80854 0.343419 -5.82949e-29)
(-1.84027 0.356363 -1.07264e-28)
(-1.83973 0.355678 -8.73769e-29)
(-1.86737 0.359257 0)
(-1.89853 0.361712 1.29393e-28)
(-1.89858 0.358176 0)
(-1.92806 0.362099 -1.668e-28)
(-1.93467 0.365491 1.95375e-28)
(-1.95121 0.374198 0)
(-1.97911 0.390759 -1.15335e-28)
(-1.98549 0.392142 -2.69829e-32)
(-2.01217 0.393444 5.19127e-29)
(-2.04628 0.391492 9.20639e-34)
(-2.05137 0.391091 0)
(-2.07776 0.386819 0)
(-2.1157 0.391703 1.08469e-28)
(-2.12287 0.391903 1.0703e-28)
(-2.16656 0.392094 -5.91775e-29)
(-2.22029 0.390967 6.94153e-29)
(-2.2491 0.391772 -3.92155e-29)
(-2.57712 0.264328 3.8849e-27)
(-2.97505 0.398557 -2.03954e-29)
(-3.20737 0.474151 5.94045e-28)
(-3.43536 0.559535 6.77985e-31)
(-3.57406 0.553218 0)
(-3.68791 0.548546 0)
(-3.77484 0.526472 0)
(-3.80041 0.503888 -4.04156e-30)
(-3.79807 0.485621 5.48604e-28)
(-3.78432 0.4798 3.23484e-28)
(-3.75871 0.476051 0)
(-3.74092 0.474214 1.53685e-28)
(-3.71657 0.466316 -7.19891e-29)
(-3.67999 0.454539 1.0091e-29)
(-3.63275 0.442092 0)
(-3.5922 0.437137 6.86555e-30)
(-3.5435 0.432752 1.23795e-30)
(-3.49421 0.424203 -3.29363e-29)
(-3.45586 0.419944 -1.24298e-30)
(-3.40907 0.41654 1.03977e-30)
(-3.35966 0.408839 8.54815e-29)
(-3.32462 0.40308 -1.06807e-30)
(-3.28014 0.400818 5.14155e-29)
(-3.22912 0.393585 4.5322e-29)
(-3.196 0.387633 0)
(-3.14944 0.383847 0)
(-3.09879 0.376716 3.49613e-29)
(-3.06647 0.371088 0)
(-3.01649 0.366369 0)
(-2.97359 0.361644 -3.01731e-31)
(-2.92093 0.352588 -2.46713e-31)
(-0.625746 0.0406933 -1.43137e-30)
(-0.62631 0.0525145 -2.24401e-30)
(-0.694609 0.187711 0)
(-0.954425 0.274965 0)
(-0.993388 0.28853 -2.28728e-32)
(-1.24962 0.285562 7.14486e-29)
(-1.26735 0.277613 0)
(-1.40828 0.273731 -1.63324e-28)
(-1.50162 0.290631 0)
(-1.50954 0.292475 -1.173e-33)
(-1.58845 0.306619 0)
(-1.64262 0.303543 1.40695e-31)
(-1.64869 0.302295 3.98132e-32)
(-1.69515 0.304456 3.84225e-32)
(-1.69791 0.30265 1.01039e-28)
(-1.7254 0.306678 -1.5403e-29)
(-1.7502 0.31615 -6.85889e-29)
(-1.75166 0.316459 6.83527e-29)
(-1.77928 0.327889 -2.20101e-29)
(-1.79677 0.336877 -1.21063e-32)
(-1.79821 0.337328 9.9204e-29)
(-1.82269 0.352262 -6.06571e-29)
(-1.84509 0.361273 -1.31767e-32)
(-1.8469 0.361757 -8.13364e-29)
(-1.87622 0.367064 -1.20059e-32)
(-1.90254 0.367365 -1.10768e-28)
(-1.90589 0.366207 1.0818e-32)
(-1.93453 0.370897 -1.35642e-28)
(-1.93855 0.372057 1.50707e-28)
(-1.95952 0.383522 -5.56951e-32)
(-1.98514 0.397587 -7.80402e-29)
(-1.98979 0.397638 0)
(-2.01958 0.401291 1.4501e-32)
(-2.04966 0.398097 6.73724e-29)
(-2.05411 0.397089 7.63478e-29)
(-2.0824 0.395983 -6.32631e-29)
(-2.11766 0.398094 0)
(-2.12446 0.397705 -5.62575e-29)
(-2.16899 0.399249 -2.69648e-32)
(-2.22074 0.395952 3.21439e-29)
(-2.25529 0.397328 -3.49348e-30)
(-2.5774 0.286329 3.79982e-27)
(-2.96499 0.41307 -1.48615e-28)
(-3.19709 0.490919 5.59273e-28)
(-3.42763 0.571126 -7.1339e-31)
(-3.57091 0.562868 0)
(-3.68619 0.555648 1.38519e-27)
(-3.77334 0.529793 0)
(-3.7991 0.504433 0)
(-3.7972 0.484506 6.1369e-28)
(-3.7835 0.478015 3.66411e-28)
(-3.75802 0.474354 -2.54003e-31)
(-3.74037 0.472706 6.76101e-31)
(-3.71471 0.4638 1.08211e-30)
(-3.67714 0.451218 4.3336e-31)
(-3.63001 0.438618 1.17665e-30)
(-3.58922 0.43353 3.97167e-30)
(-3.54006 0.429107 0)
(-3.49115 0.420841 -3.09545e-29)
(-3.45276 0.41663 0)
(-3.40538 0.41302 -1.03674e-30)
(-3.35644 0.405707 3.95357e-29)
(-3.32141 0.400107 2.12693e-29)
(-3.27722 0.397517 1.00766e-28)
(-3.22566 0.39053 -5.93558e-31)
(-3.19266 0.384732 0)
(-3.14558 0.380595 4.70961e-29)
(-3.09506 0.373742 0)
(-3.06297 0.368259 0)
(-3.01269 0.363294 0)
(-2.96941 0.358484 -2.99809e-31)
(-2.91715 0.349713 3.84216e-29)
(-0.708639 0.0533625 -1.41896e-34)
(-0.716707 0.067161 -2.14846e-30)
(-0.813811 0.20898 -7.80808e-32)
(-1.1171 0.303222 -3.6215e-32)
(-1.14394 0.315478 1.02437e-29)
(-1.40116 0.316209 -8.41966e-30)
(-1.42935 0.313465 2.67774e-28)
(-1.52922 0.306042 -1.43353e-28)
(-1.62673 0.324224 -1.44127e-31)
(-1.63191 0.324898 9.0778e-29)
(-1.68025 0.332772 -5.29358e-29)
(-1.73307 0.333779 -7.20658e-29)
(-1.7303 0.329826 1.42875e-33)
(-1.76264 0.331034 0)
(-1.77042 0.332216 0)
(-1.78043 0.331636 -3.99653e-29)
(-1.80442 0.344213 9.03291e-29)
(-1.80681 0.345274 9.51455e-29)
(-1.81652 0.351405 -9.31886e-29)
(-1.839 0.365838 -4.48693e-33)
(-1.83969 0.365716 1.13918e-28)
(-1.85505 0.376387 7.34051e-29)
(-1.87777 0.389154 1.33264e-32)
(-1.87821 0.387815 -8.75843e-29)
(-1.90145 0.391998 -1.63086e-32)
(-1.92677 0.396974 9.68736e-34)
(-1.9286 0.393315 0)
(-1.95434 0.399295 0)
(-1.95964 0.40263 0)
(-1.97836 0.408386 0)
(-2.00265 0.420152 -5.6754e-29)
(-2.00747 0.420957 1.53947e-32)
(-2.03124 0.419339 1.2357e-32)
(-2.05693 0.417875 -3.15606e-34)
(-2.06128 0.417535 4.68597e-29)
(-2.08642 0.412842 -3.90731e-29)
(-2.11898 0.415008 -5.47335e-33)
(-2.12563 0.414697 -3.11805e-29)
(-2.16781 0.411358 1.63902e-29)
(-2.21663 0.407998 1.58649e-29)
(-2.25584 0.410037 0)
(-2.56966 0.307286 1.59755e-29)
(-2.94521 0.432607 -2.17785e-28)
(-3.17855 0.512398 1.69907e-29)
(-3.41321 0.585599 8.5556e-29)
(-3.55958 0.574834 -1.32708e-29)
(-3.67571 0.564718 3.07635e-27)
(-3.76453 0.533383 1.41781e-29)
(-3.78892 0.504414 -5.00986e-35)
(-3.78687 0.482667 6.83715e-28)
(-3.77486 0.475144 8.20454e-28)
(-3.74838 0.471061 0)
(-3.72993 0.469373 3.51857e-32)
(-3.70434 0.459389 9.2328e-29)
(-3.66544 0.445777 1.13129e-30)
(-3.61703 0.43256 2.35332e-30)
(-3.57724 0.427642 3.45161e-30)
(-3.52848 0.423315 0)
(-3.47802 0.414691 -3.45171e-29)
(-3.44025 0.410733 -1.23758e-30)
(-3.39415 0.407456 0)
(-3.34334 0.399637 -4.33216e-29)
(-3.30855 0.394291 1.01811e-30)
(-3.26506 0.391911 1.07064e-28)
(-3.21256 0.384428 5.90666e-31)
(-3.17947 0.37874 1.47418e-36)
(-3.13406 0.374945 4.74071e-29)
(-3.08213 0.367715 -4.11125e-31)
(-3.04951 0.362105 -6.65124e-37)
(-3.00011 0.357244 -4.2897e-37)
(-2.95696 0.352493 -2.98527e-31)
(-2.90342 0.343309 4.04437e-29)
(-0.723402 0.0558845 1.98353e-30)
(-0.73026 0.0690986 1.59155e-30)
(-0.849736 0.215575 0)
(-1.13142 0.304931 0)
(-1.17642 0.320238 9.90649e-30)
(-1.42834 0.321068 -4.12254e-30)
(-1.44264 0.318009 -1.65427e-33)
(-1.56774 0.316239 -7.20284e-29)
(-1.63932 0.328467 -1.46703e-31)
(-1.64522 0.32887 0)
(-1.70411 0.339841 -8.74454e-29)
(-1.73988 0.33663 -7.78465e-29)
(-1.74383 0.334919 1.6508e-28)
(-1.77422 0.336329 4.18092e-32)
(-1.7759 0.335003 -1.2574e-28)
(-1.79491 0.338892 5.88783e-29)
(-1.81115 0.348545 -6.65818e-33)
(-1.81207 0.348652 -2.61841e-32)
(-1.83174 0.359464 -6.2441e-29)