/*--------------------------------*- C++ -*----------------------------------*\
| =========                 |                                                 |
| \\      /  F ield         | OpenFOAM: The Open Source CFD Toolbox           |
|  \\    /   O peration     | Version:  v2012                                 |
|   \\  /    A nd           | Website:  www.openfoam.com                      |
|    \\/     M anipulation  |                                                 |
\*---------------------------------------------------------------------------*/
FoamFile
{
    version     2.0;
    format      ascii;
    class       volVectorField;
    location    "1e-06";
    object      UMean;
}
// * * * * * * * * * * * * * * * * * * * * * * * * * * * * * * * * * * * * * //

dimensions      [0 1 -1 0 0 0 0];


internalField   nonuniform List<vector> 
10248
(
(-0.0629278 0.00747652 -2.43951e-29)
(-0.0603924 0.00795151 -2.47382e-32)
(-0.0360916 0.00916567 -1.27202e-36)
(-0.15984 0.0224327 -5.74034e-32)
(-0.191274 0.0268004 9.20509e-29)
(-0.237859 0.0191403 -1.23931e-28)
(-0.194133 0.0140976 0)
(-0.0946632 -0.000441389 4.05531e-33)
(-0.119478 0.0135866 3.53095e-33)
(-0.134039 0.0157583 0)
(-0.237943 0.0271586 -1.43163e-31)
(-0.242522 0.0180625 5.85565e-28)
(-0.255148 0.0203472 0)
(-0.241565 0.015814 -2.21974e-28)
(-0.209377 0.00869949 5.79793e-28)
(-0.211057 0.0135609 -5.37341e-32)
(-0.191568 0.0163757 -5.07345e-28)
(-0.181933 0.0149208 0)
(-0.090181 0.00972168 -1.47562e-29)
(-0.219306 0.0214776 -2.06847e-33)
(-0.22532 0.0241644 9.10038e-33)
(-0.249405 0.0299793 -3.98443e-28)
(-0.312696 0.0371782 4.81753e-28)
(-0.354243 0.0452971 0)
(-0.444229 0.0548398 -6.91587e-28)
(-0.433472 0.0482605 5.31485e-28)
(-0.489496 0.0591972 -7.04072e-36)
(-0.490392 0.0522255 5.86893e-28)
(-0.411048 0.042326 -5.98906e-28)
(-0.413061 0.0518603 0)
(-0.483531 0.0689104 0)
(-0.494758 0.0702225 3.06234e-28)
(-0.744556 0.106811 -4.92748e-34)
(-0.938278 0.125411 -1.37226e-28)
(-0.928447 0.123528 9.84237e-29)
(-1.02908 0.12525 2.04554e-32)
(-1.07111 0.135529 0)
(-1.06982 0.136885 5.58825e-29)
(-1.19504 0.160838 1.08958e-28)
(-1.32553 0.176674 6.63105e-29)
(-1.32758 0.177107 1.09055e-31)
(-1.58276 0.218801 7.27906e-28)
(-1.97472 0.266893 0)
(-2.28425 0.308238 0)
(-2.59726 0.343322 0)
(-2.74302 0.35993 -5.18213e-29)
(-2.82779 0.371086 -1.31119e-29)
(-2.9717 0.388592 0)
(-3.02646 0.393223 -1.19025e-29)
(-3.00588 0.390581 -3.56766e-29)
(-3.04974 0.396296 0)
(-3.04523 0.394265 0)
(-3.00213 0.389491 3.44689e-29)
(-3.03476 0.394008 5.30857e-29)
(-3.02163 0.390701 0)
(-2.95424 0.382043 -1.1285e-29)
(-2.95127 0.382503 -3.40213e-29)
(-2.92798 0.378394 -4.02898e-29)
(-2.85963 0.36946 -5.3697e-29)
(-2.84364 0.368152 0)
(-2.81666 0.364092 0)
(-2.76521 0.357165 9.44782e-31)
(-2.73724 0.352151 -6.32142e-29)
(-2.59698 0.336008 4.05122e-29)
(-2.6717 0.347138 -8.10751e-29)
(-2.62851 0.34002 0)
(-2.61859 0.3388 -5.05442e-29)
(-2.57941 0.332749 -8.0454e-30)
(-2.52423 0.326173 0)
(-2.51593 0.326141 1.2643e-28)
(-2.49061 0.322058 4.56352e-29)
(-2.42503 0.31358 3.0342e-29)
(-0.109603 0.0105395 8.58387e-32)
(-0.0990483 0.0100441 -2.54987e-36)
(-0.0485421 0.0150448 -2.51758e-32)
(-0.200322 0.0367168 2.77571e-32)
(-0.228195 0.0403643 4.0219e-28)
(-0.319391 0.0368903 0)
(-0.310863 0.0351245 -1.99605e-28)
(-0.229293 0.0180902 0)
(-0.260763 0.0337522 0)
(-0.258736 0.0338259 -6.57974e-28)
(-0.346193 0.0418118 8.69054e-28)
(-0.397172 0.0361454 -8.09984e-33)
(-0.396798 0.0387103 3.70532e-32)
(-0.428886 0.0430497 6.52243e-32)
(-0.424002 0.0315596 1.12036e-27)
(-0.407209 0.0376718 -1.29041e-33)
(-0.424444 0.0453081 -3.71718e-32)
(-0.419432 0.044716 -8.66948e-28)
(-0.419202 0.0577303 -6.29959e-29)
(-0.477527 0.0553839 -1.75399e-27)
(-0.473308 0.059063 0)
(-0.476781 0.0637634 5.86689e-28)
(-0.601009 0.0795222 -2.50359e-35)
(-0.606413 0.084371 -1.69403e-33)
(-0.710449 0.0948399 -5.44379e-28)
(-0.78728 0.0951421 2.04552e-32)
(-0.777967 0.100045 0)
(-0.810999 0.0942887 7.7888e-28)
(-0.799397 0.0942497 -4.54335e-28)
(-0.700396 0.0973204 -3.81562e-29)
(-0.773904 0.116254 4.11481e-33)
(-0.808634 0.121747 5.13906e-28)
(-0.969827 0.145722 0)
(-1.1907 0.165569 0)
(-1.20523 0.165503 1.49767e-28)
(-1.23994 0.154393 0)
(-1.32391 0.171564 0)
(-1.33691 0.174792 -4.64487e-34)
(-1.40217 0.19205 4.38706e-29)
(-1.56396 0.212166 8.44645e-29)
(-1.57839 0.214066 -1.41494e-31)
(-1.77902 0.256757 -1.35047e-29)
(-2.20746 0.311507 0)
(-2.53273 0.354636 0)
(-2.78446 0.374849 3.29813e-28)
(-2.96174 0.394361 1.7632e-28)
(-3.06832 0.407325 1.95849e-28)
(-3.15126 0.41549 -2.12672e-28)
(-3.23454 0.421533 -5.71992e-29)
(-3.24394 0.421347 9.86103e-29)
(-3.22602 0.419302 -5.54006e-29)
(-3.23841 0.419097 6.08686e-29)
(-3.2349 0.419486 1.30622e-28)
(-3.20869 0.416484 5.28109e-29)
(-3.19911 0.41295 5.18312e-29)
(-3.17652 0.409419 5.04658e-29)
(-3.12421 0.403812 0)
(-3.08894 0.398173 3.51246e-29)
(-3.06116 0.394153 -9.44109e-29)
(-3.01619 0.389312 -5.67214e-30)
(-2.96826 0.382879 0)
(-2.94779 0.37979 -3.12603e-29)
(-2.91125 0.373094 -4.34449e-29)
(-2.9082 0.375472 -1.10614e-29)
(-2.83596 0.367673 -1.48316e-28)
(-2.8052 0.362023 0)
(-2.74992 0.355368 0)
(-2.72719 0.351094 0)
(-2.70281 0.348387 0)
(-2.65093 0.343375 2.23783e-28)
(-2.6204 0.338576 3.45278e-29)
(-2.58626 0.333796 -2.37771e-28)
(-0.186679 0.0119653 0)
(-0.175407 0.0120627 -9.70696e-30)
(-0.0955583 0.0293603 2.13133e-29)
(-0.287405 0.0658829 1.81616e-32)
(-0.309963 0.0696184 -1.50006e-33)
(-0.459869 0.0719412 -1.1246e-28)
(-0.464295 0.0712681 2.83541e-34)
(-0.429134 0.0547903 0)
(-0.477881 0.0767169 2.06556e-32)
(-0.476354 0.0760973 -3.20682e-28)
(-0.54184 0.0825344 3.18335e-28)
(-0.659322 0.0878307 2.83208e-32)
(-0.654899 0.0862129 0)
(-0.742215 0.0992422 -3.93448e-28)
(-0.764519 0.0925551 7.97593e-28)
(-0.753811 0.0937759 -6.88551e-32)
(-0.816122 0.11092 1.31452e-28)
(-0.815962 0.110097 -2.3942e-28)
(-0.743969 0.106622 0)
(-0.893247 0.127385 2.8692e-33)
(-0.885007 0.126711 -1.34634e-28)
(-0.863285 0.131103 1.19986e-28)
(-1.0142 0.155594 1.29318e-32)
(-1.00905 0.15533 4.8988e-32)
(-1.11302 0.165606 -1.7665e-28)
(-1.22299 0.171445 -2.71522e-28)
(-1.20273 0.169132 2.92778e-32)
(-1.24547 0.162734 -1.21527e-28)
(-1.24839 0.166141 -1.66945e-32)
(-1.14938 0.169317 1.60767e-32)
(-1.18636 0.190599 0)
(-1.21453 0.194734 1.35744e-28)
(-1.32114 0.211753 -1.35934e-32)
(-1.51053 0.224149 5.26356e-33)
(-1.52438 0.222122 7.57692e-30)
(-1.55572 0.206033 2.32419e-33)
(-1.64211 0.225733 5.60399e-33)
(-1.65515 0.228141 -9.68799e-29)
(-1.70347 0.242703 0)
(-1.84775 0.261156 -3.63008e-29)
(-1.86058 0.261559 -9.5261e-33)
(-2.05723 0.292511 1.19834e-27)
(-2.47689 0.347737 -1.74737e-28)
(-2.80047 0.3957 -7.48669e-28)
(-3.04456 0.41876 -2.94759e-30)
(-3.20894 0.436018 4.33189e-28)
(-3.31553 0.446423 2.38249e-28)
(-3.39954 0.452336 -3.2296e-28)
(-3.47044 0.455112 5.7e-29)
(-3.47866 0.451722 1.65282e-34)
(-3.461 0.44931 -1.66008e-34)
(-3.46219 0.448302 1.21752e-28)
(-3.45602 0.447323 6.4114e-29)
(-3.43091 0.44376 2.59364e-29)
(-3.41166 0.439332 0)
(-3.38111 0.433351 0)
(-3.33336 0.427779 0)
(-3.28938 0.42219 4.73003e-29)
(-3.2559 0.416912 4.31898e-29)
(-3.21376 0.411592 1.52164e-28)
(-3.15765 0.405386 4.33745e-29)
(-3.13333 0.401778 5.05265e-29)
(-3.09764 0.394787 2.48648e-30)
(-3.02489 0.388548 1.769e-29)
(-3.01472 0.387668 2.09409e-29)
(-2.98362 0.382041 4.79109e-30)
(-2.92778 0.375908 0)
(-2.89715 0.371177 0)
(-2.8704 0.367302 0)
(-2.81859 0.36208 3.46589e-29)
(-2.782 0.357343 3.44665e-29)
(-2.74258 0.351426 -3.07764e-29)
(-0.191733 0.0106595 -6.77372e-32)
(-0.179638 0.0117301 4.69641e-30)
(-0.120254 0.0356625 -3.34058e-29)
(-0.289647 0.06961 1.11356e-28)
(-0.321031 0.0758358 8.55337e-29)
(-0.471977 0.0780236 1.88588e-33)
(-0.468052 0.075117 -6.91434e-29)
(-0.491138 0.0677797 5.51099e-29)
(-0.485903 0.0806389 -1.15245e-32)
(-0.48511 0.0805279 5.21724e-29)
(-0.600687 0.0955097 9.10714e-32)
(-0.665698 0.0928834 8.06508e-29)
(-0.678409 0.0934079 -3.06073e-32)
(-0.773293 0.104086 -3.58611e-28)
(-0.772229 0.0980113 1.34052e-28)
(-0.832512 0.108177 3.76026e-29)
(-0.835915 0.116706 -2.92609e-29)
(-0.828341 0.113008 2.07715e-28)
(-0.874459 0.128027 -1.19108e-33)
(-0.906924 0.13454 -2.72247e-28)
(-0.903165 0.132241 3.18649e-29)
(-0.966408 0.15027 4.82e-33)
(-1.02449 0.161537 -5.93905e-33)
(-1.03306 0.162931 4.7045e-29)
(-1.16079 0.177676 8.38222e-29)
(-1.23249 0.177196 0)
(-1.23709 0.177056 0)
(-1.27665 0.17051 -5.1961e-28)
(-1.25963 0.170433 0)
(-1.20223 0.179138 1.03833e-28)
(-1.20923 0.197211 -2.45085e-32)
(-1.22494 0.199649 -2.62008e-32)
(-1.37639 0.224697 -3.08006e-36)
(-1.52496 0.229389 -1.8203e-32)
(-1.53376 0.22615 1.38659e-28)
(-1.61578 0.219348 7.58094e-36)
(-1.65747 0.230305 6.10891e-33)
(-1.66642 0.232034 2.07169e-28)
(-1.77015 0.256419 1.40409e-28)
(-1.86174 0.265329 1.41228e-28)
(-1.87171 0.265273 0)
(-2.11705 0.294766 1.22234e-28)
(-2.4921 0.334723 5.38945e-28)
(-2.81102 0.394731 2.59137e-30)
(-3.0897 0.431461 -8.80703e-28)
(-3.22163 0.443921 5.09103e-29)
(-3.32639 0.452927 -3.56422e-28)
(-3.4352 0.460288 3.61071e-30)
(-3.48582 0.458481 0)
(-3.49068 0.452623 -5.6248e-29)
(-3.48732 0.452046 -1.10138e-28)
(-3.47867 0.449958 -5.39133e-29)
(-3.46765 0.448204 9.69031e-29)
(-3.45112 0.445357 1.92411e-29)
(-3.43047 0.44052 7.40266e-29)
(-3.39256 0.432843 0)
(-3.34891 0.4277 0)
(-3.31248 0.423509 0)
(-3.26727 0.416493 1.91355e-28)
(-3.22696 0.411369 0)
(-3.19563 0.408658 -4.32296e-29)
(-3.14465 0.401614 -4.21878e-29)
(-3.10953 0.394386 -4.46817e-28)
(-3.0863 0.394901 7.98594e-29)
(-3.02656 0.388159 3.66188e-29)
(-2.99493 0.381903 2.4014e-30)
(-2.9518 0.377617 -3.71348e-29)
(-2.90975 0.371605 -5.20371e-29)
(-2.88039 0.367128 -1.01778e-28)
(-2.83255 0.362559 5.03783e-29)
(-2.79912 0.358438 -2.19227e-29)
(-2.7529 0.351431 3.37705e-29)
(-0.269094 0.0122239 2.32404e-30)
(-0.259204 0.0151964 -5.3154e-31)
(-0.206038 0.0553854 0)
(-0.40943 0.102013 1.82431e-29)
(-0.438907 0.109097 0)
(-0.615462 0.113372 4.79747e-29)
(-0.617804 0.111076 2.16376e-29)
(-0.653316 0.0980981 1.40465e-28)
(-0.699045 0.117568 -5.89502e-29)
(-0.702466 0.119562 1.13162e-28)
(-0.818293 0.134812 8.95781e-32)
(-0.931669 0.139486 6.5228e-32)
(-0.939844 0.139638 1.1016e-32)
(-1.05836 0.151791 -5.56515e-32)
(-1.07185 0.148932 0)
(-1.1285 0.155549 1.48109e-29)
(-1.17015 0.168215 1.0011e-29)
(-1.17419 0.168951 4.12816e-29)
(-1.27842 0.188056 -2.89059e-32)
(-1.26182 0.189599 -3.34029e-29)
(-1.25664 0.189424 4.05369e-29)
(-1.28736 0.203808 0)
(-1.35931 0.218735 4.40706e-29)
(-1.35388 0.219413 3.92917e-29)
(-1.44556 0.229282 0)
(-1.51458 0.227471 -1.11685e-29)
(-1.51341 0.225315 0)
(-1.55333 0.218166 1.82654e-32)
(-1.54639 0.219403 -8.82835e-30)
(-1.50029 0.230733 -2.44931e-29)
(-1.50494 0.251377 1.75094e-29)
(-1.51988 0.255143 -1.79582e-32)
(-1.61466 0.272938 7.08885e-29)
(-1.73561 0.272338 8.38005e-29)
(-1.74525 0.270355 6.16833e-29)
(-1.80369 0.260376 5.66235e-33)
(-1.86235 0.27478 4.98222e-29)
(-1.87208 0.277113 -1.04885e-33)
(-1.9426 0.292941 4.19512e-29)
(-2.02876 0.300342 1.24354e-29)
(-2.03915 0.300647 -2.71888e-30)
(-2.26512 0.324676 -1.38567e-29)
(-2.64484 0.346579 1.22982e-27)
(-2.96258 0.400416 -2.90371e-28)
(-3.22078 0.458238 0)
(-3.35665 0.470068 0)
(-3.46279 0.478532 -1.06555e-27)
(-3.56196 0.481347 2.31027e-28)
(-3.61374 0.477046 -5.65692e-29)
(-3.61947 0.469387 -3.30733e-28)
(-3.61055 0.467559 0)
(-3.60027 0.465012 -1.91072e-28)
(-3.58933 0.463268 1.31484e-28)
(-3.56996 0.459514 5.23023e-29)
(-3.54505 0.453455 3.51131e-28)
(-3.50543 0.444722 0)
(-3.46273 0.439716 2.65198e-28)
(-3.41932 0.434872 1.45717e-28)
(-3.37527 0.427632 -4.55931e-29)
(-3.3358 0.422882 2.29121e-28)
(-3.29173 0.418707 4.29881e-29)
(-3.24784 0.41214 -1.20288e-28)
(-3.21311 0.405699 -2.5498e-28)
(-3.18011 0.404652 0)
(-3.12479 0.397738 1.22997e-28)
(-3.09306 0.391939 -1.81906e-28)
(-3.04457 0.387175 -7.38314e-29)
(-3.00192 0.38102 -1.05222e-28)
(-2.97235 0.376331 -1.87578e-28)
(-2.92287 0.371674 7.83908e-29)
(-2.88437 0.36703 4.55029e-30)
(-2.83703 0.359528 0)
(-0.34466 0.015193 7.13336e-30)
(-0.336884 0.0202588 0)
(-0.295449 0.0791521 9.75668e-33)
(-0.530896 0.139637 1.39138e-32)
(-0.559638 0.145804 -9.605e-29)
(-0.752763 0.14863 -1.84223e-28)
(-0.764508 0.146762 -3.09834e-34)
(-0.802102 0.128699 -4.95839e-36)
(-0.909972 0.157936 3.2317e-29)
(-0.916763 0.159783 -2.85482e-33)
(-1.02189 0.174618 0)
(-1.15903 0.183809 1.94301e-28)
(-1.16024 0.181553 0)
(-1.26683 0.191845 0)
(-1.2844 0.191019 0)
(-1.32606 0.193354 0)
(-1.3916 0.21034 2.98647e-29)
(-1.39652 0.21149 4.44442e-29)
(-1.41627 0.218241 0)
(-1.48281 0.231327 0)
(-1.48272 0.231409 -1.2695e-28)
(-1.49881 0.243615 -6.54554e-30)
(-1.56454 0.25993 2.33659e-28)
(-1.56136 0.259726 -2.0495e-28)
(-1.61733 0.265175 5.95653e-30)
(-1.67182 0.263581 -1.50888e-28)
(-1.66763 0.259876 0)
(-1.70513 0.255175 -1.52e-29)
(-1.71044 0.258056 -1.28512e-28)
(-1.68917 0.269002 -1.23917e-28)
(-1.71292 0.293638 1.38659e-28)
(-1.72847 0.297155 1.10111e-28)
(-1.7831 0.308538 -6.74075e-29)
(-1.87822 0.305937 -4.66441e-29)
(-1.88803 0.304431 -2.75344e-32)
(-1.92611 0.294595 -9.06468e-32)
(-1.98614 0.309578 -1.16661e-28)
(-1.99501 0.311195 1.19021e-28)
(-2.04613 0.320668 7.80276e-32)
(-2.12527 0.327613 -9.49901e-29)
(-2.13565 0.327474 1.10214e-28)
(-2.35212 0.347484 2.76357e-29)
(-2.7329 0.353225 1.5156e-27)
(-3.04821 0.388194 0)
(-3.29547 0.477514 0)
(-3.43238 0.488943 -5.02487e-29)
(-3.54088 0.496443 -7.03611e-28)
(-3.63566 0.495328 -5.62849e-29)
(-3.6863 0.488485 -2.91036e-29)
(-3.69334 0.478782 -3.70166e-28)
(-3.68227 0.476032 0)
(-3.66967 0.473182 -1.78288e-28)
(-3.65879 0.471305 0)
(-3.6381 0.466733 -5.20528e-29)
(-3.61028 0.459629 2.86569e-28)
(-3.56936 0.450056 2.78014e-34)
(-3.52734 0.445031 2.52853e-28)
(-3.48024 0.440001 5.98986e-28)
(-3.43637 0.432562 9.06787e-29)
(-3.39746 0.427781 3.85703e-28)
(-3.34767 0.423277 8.5506e-29)
(-3.30597 0.416847 -2.03123e-28)
(-3.27152 0.410405 -2.95852e-28)
(-3.2208 0.407315 1.27952e-28)
(-3.17964 0.401951 1.5242e-29)
(-3.14798 0.396022 -7.47941e-29)
(-3.0973 0.391258 0)
(-3.05321 0.384929 0)
(-3.02351 0.379983 0)
(-2.973 0.375236 8.29127e-29)
(-2.93157 0.37038 -7.75146e-29)
(-2.88336 0.362506 -1.24393e-28)
(-0.352386 0.0153333 0)
(-0.343357 0.0202834 0)
(-0.322629 0.0876824 0)
(-0.534474 0.142659 -9.94979e-32)
(-0.573629 0.152802 -1.63446e-29)
(-0.767551 0.154628 -8.5462e-29)
(-0.769808 0.149898 -1.1116e-28)
(-0.850539 0.140321 0)
(-0.92177 0.161767 0)
(-0.929896 0.163956 -2.01521e-28)
(-1.07424 0.187314 -8.07453e-32)
(-1.16591 0.187799 4.09432e-29)
(-1.1824 0.188161 0)
(-1.28839 0.197946 0)
(-1.29031 0.19459 8.05459e-29)
(-1.36209 0.203183 1.93907e-32)
(-1.40245 0.214461 0)
(-1.40379 0.214158 1.34853e-33)
(-1.45658 0.227348 0)
(-1.49029 0.23543 4.24818e-32)
(-1.4921 0.235221 -7.76394e-32)
(-1.53689 0.253704 -1.47033e-28)
(-1.57058 0.263384 -4.98264e-33)
(-1.57431 0.264681 3.62818e-29)
(-1.63817 0.271923 -1.71866e-28)
(-1.67701 0.266765 4.94554e-29)
(-1.68299 0.265589 3.40402e-29)
(-1.71936 0.260871 0)
(-1.71631 0.261401 0)
(-1.7162 0.277146 2.68994e-29)
(-1.72978 0.299039 0)
(-1.73766 0.300771 3.22258e-33)
(-1.81532 0.317229 8.50457e-32)
(-1.8888 0.309985 -8.59421e-30)
(-1.8952 0.307774 0)
(-1.95164 0.305113 0)
(-1.99486 0.313905 2.05917e-32)
(-2.00192 0.314906 4.71076e-32)
(-2.06882 0.329553 1.81371e-32)
(-2.1326 0.331469 -2.24995e-29)
(-2.14192 0.330973 3.64746e-29)
(-2.37282 0.354444 0)
(-2.74243 0.338705 6.01563e-29)
(-3.05344 0.370189 8.01792e-29)
(-3.3084 0.486775 -1.60302e-27)
(-3.43706 0.49667 -9.99715e-29)
(-3.54682 0.503225 -1.08126e-28)
(-3.65029 0.500861 -1.12189e-28)
(-3.69439 0.490843 -2.80744e-28)
(-3.70107 0.479255 3.72227e-28)
(-3.69559 0.476778 0)
(-3.67906 0.473594 1.06586e-28)
(-3.6662 0.471554 3.05184e-34)
(-3.64833 0.466873 -3.07002e-28)
(-3.61952 0.458945 -1.01844e-28)
(-3.57568 0.448588 -1.97817e-28)
(-3.53524 0.443665 -9.56022e-29)
(-3.49051 0.439121 3.35084e-28)
(-3.44257 0.431209 3.92388e-28)
(-3.40437 0.4265 3.78806e-28)
(-3.36123 0.422887 0)
(-3.31209 0.415751 3.53955e-28)
(-3.27773 0.409322 -2.09651e-28)
(-3.23822 0.40764 2.65879e-28)
(-3.18565 0.401031 7.70641e-29)
(-3.15362 0.394962 2.22374e-34)
(-3.10722 0.390708 -7.31455e-29)
(-3.0594 0.384174 -2.04407e-28)
(-3.02868 0.379024 -6.95067e-29)
(-2.97941 0.374386 4.93463e-30)
(-2.93874 0.369718 0)
(-2.88823 0.361581 -4.66272e-28)
(-0.430702 0.0202607 -4.45417e-32)
(-0.424281 0.0275811 -1.56832e-32)
(-0.414435 0.115201 0)
(-0.65041 0.186685 -3.79005e-32)
(-0.683063 0.195462 -8.47162e-33)
(-0.90155 0.195121 0)
(-0.916645 0.192249 1.6122e-32)
(-1.01188 0.177297 -8.99103e-29)
(-1.12748 0.206397 0)
(-1.13575 0.20879 -1.56722e-28)
(-1.24828 0.226 0)
(-1.35119 0.23049 -6.17978e-29)
(-1.35675 0.22827 2.05345e-32)
(-1.44285 0.235087 7.27643e-32)
(-1.45223 0.234325 -6.50258e-34)
(-1.49372 0.236586 9.76104e-34)
(-1.54207 0.250316 -1.37963e-28)
(-1.54526 0.250786 1.15767e-28)
(-1.59347 0.262183 -2.77651e-32)
(-1.62037 0.271546 -1.43564e-28)
(-1.62116 0.271236 -1.00145e-28)
(-1.65173 0.285197 -9.81855e-29)
(-1.69354 0.298623 9.94497e-29)
(-1.69339 0.298558 9.11684e-29)
(-1.73906 0.302963 -1.31856e-28)
(-1.77863 0.301292 3.85202e-32)
(-1.77907 0.298158 8.4883e-29)
(-1.8153 0.297082 -7.85033e-29)
(-1.81928 0.299534 2.07455e-32)
(-1.82817 0.311651 5.86083e-32)
(-1.8556 0.334182 -2.00576e-29)
(-1.86416 0.336048 2.96521e-32)
(-1.91139 0.344973 -5.21732e-29)
(-1.96969 0.339582 -3.98431e-29)
(-1.97584 0.338502 0)
(-2.01405 0.334429 0)
(-2.05924 0.342658 6.76288e-30)
(-2.06666 0.343585 0)
(-2.1185 0.352097 1.08611e-29)
(-2.18073 0.354015 1.31533e-31)
(-2.19081 0.353508 1.16073e-29)
(-2.415 0.363865 2.95519e-27)
(-2.78548 0.32832 0)
(-3.09186 0.374444 -2.88572e-27)
(-3.34108 0.502617 -1.7123e-27)
(-3.47344 0.512303 9.94629e-29)
(-3.58607 0.517985 0)
(-3.68555 0.510613 0)
(-3.73016 0.497709 7.7608e-29)
(-3.73825 0.48442 1.15181e-28)
(-3.73054 0.48037 3.92465e-28)
(-3.71342 0.476842 -1.06388e-28)
(-3.70109 0.474911 -2.09835e-28)
(-3.68108 0.469154 -4.70035e-28)
(-3.6503 0.459968 3.90611e-28)
(-3.60648 0.448985 2.68059e-34)
(-3.56602 0.444068 4.40129e-28)
(-3.51868 0.439306 -4.12545e-28)
(-3.47159 0.431216 4.80052e-28)
(-3.43359 0.426663 3.28902e-30)
(-3.38648 0.422844 8.48833e-29)
(-3.33939 0.41555 8.60124e-29)
(-3.30518 0.40943 -8.01547e-29)
(-3.2636 0.407485 -3.09241e-28)
(-3.21095 0.400434 0)
(-3.17908 0.394516 0)
(-3.13066 0.390257 1.8063e-28)
(-3.08253 0.383454 -4.37376e-28)
(-3.05201 0.378202 4.20419e-28)
(-3.00184 0.373499 -2.96675e-28)
(-2.95926 0.368674 0)
(-2.90866 0.360191 -3.32006e-28)
(-0.439935 0.0208867 -1.58811e-31)
(-0.432378 0.0279048 -1.33006e-30)
(-0.447445 0.124679 0)
(-0.655074 0.189508 4.54702e-29)
(-0.700182 0.203214 3.22581e-33)
(-0.919212 0.201363 -5.87845e-29)
(-0.923181 0.195692 4.74792e-29)
(-1.06213 0.190616 -2.48541e-29)
(-1.1399 0.210326 1.34057e-28)
(-1.15052 0.213792 2.50789e-28)
(-1.29298 0.237525 0)
(-1.35763 0.233982 0)
(-1.3777 0.234984 -1.93604e-28)
(-1.46175 0.24118 7.71635e-32)
(-1.45787 0.238045 1.64659e-28)
(-1.52292 0.245728 1.95471e-28)
(-1.55177 0.254579 -4.59375e-28)
(-1.55213 0.254846 2.47908e-28)
(-1.61052 0.269708 1.60798e-28)
(-1.62679 0.275168 -2.34009e-28)
(-1.62976 0.275884 -2.79136e-32)
(-1.67806 0.294807 -8.53447e-34)
(-1.69871 0.302239 -2.18469e-28)
(-1.70424 0.303859 0)
(-1.75451 0.309876 0)
(-1.78299 0.305128 -2.41879e-28)
(-1.79135 0.304759 -1.86813e-28)
(-1.82601 0.303751 4.49864e-32)
(-1.82409 0.303867 -2.04263e-32)
(-1.84568 0.319974 2.33083e-28)
(-1.86685 0.339419 -1.20825e-28)
(-1.87077 0.339819 -1.62924e-28)
(-1.92962 0.352225 -1.1412e-28)
(-1.97669 0.34434 0)
(-1.9811 0.342564 0)
(-2.02755 0.343746 3.33601e-29)
(-2.06512 0.347252 -5.12826e-33)
(-2.0715 0.347495 -5.07866e-36)
(-2.13017 0.359586 -2.25925e-29)
(-2.18559 0.357662 4.60997e-29)
(-2.19577 0.356811 3.38145e-29)
(-2.4284 0.348949 7.17052e-27)
(-2.79129 0.319123 -3.42694e-27)
(-3.09064 0.376701 -2.59052e-27)
(-3.34346 0.511615 0)
(-3.47491 0.52047 -9.89886e-29)
(-3.58934 0.525084 -1.07491e-28)
(-3.69307 0.515531 -4.46096e-28)
(-3.73498 0.499688 1.11662e-28)
(-3.74292 0.484595 -6.20659e-28)
(-3.7383 0.480272 4.71048e-28)
(-3.71966 0.476688 0)
(-3.70606 0.474736 0)
(-3.68682 0.468479 -4.23444e-28)
(-3.65504 0.458401 3.78371e-28)
(-3.60991 0.446965 5.62541e-28)
(-3.57031 0.442066 -9.12647e-29)
(-3.52374 0.437484 -4.08479e-28)
(-3.47488 0.429309 8.98561e-29)
(-3.43723 0.424853 -6.28684e-28)
(-3.39228 0.42118 -2.40438e-34)
(-3.34256 0.413882 -3.35055e-28)
(-3.30836 0.407954 -5.68058e-28)
(-3.2651 0.405485 -4.45323e-28)
(-3.21399 0.398851 -7.65971e-29)
(-3.18193 0.393021 2.9414e-28)
(-3.13521 0.388802 -6.97807e-29)
(-3.0855 0.382091 -1.64214e-28)
(-3.05455 0.376804 6.05332e-28)
(-3.00489 0.372057 -4.63885e-28)
(-2.96243 0.367282 0)
(-2.91091 0.358814 0)
(-0.525115 0.0284053 -1.65793e-34)
(-0.521201 0.0382248 -1.5015e-30)
(-0.546062 0.152757 0)
(-0.788228 0.232237 -1.22623e-28)
(-0.823753 0.244285 1.13803e-32)
(-1.06716 0.240245 -2.25394e-28)
(-1.08531 0.237302 2.43555e-28)
(-1.22099 0.227311 0)
(-1.32992 0.250372 4.98698e-33)
(-1.33789 0.254392 1.97984e-28)
(-1.43586 0.269384 1.17234e-31)
(-1.51185 0.268901 1.64069e-31)
(-1.51859 0.268068 -1.38819e-28)
(-1.58466 0.27145 -1.25055e-31)
(-1.58937 0.270839 -1.00962e-32)
(-1.62553 0.273537 7.97662e-29)
(-1.66061 0.284122 -1.30134e-29)
(-1.66263 0.28548 -2.0205e-33)
(-1.7005 0.296197 5.45024e-29)
(-1.72318 0.3049 -4.33499e-32)
(-1.72454 0.305919 2.68728e-29)
(-1.7545 0.320309 -1.74654e-32)
(-1.78386 0.330779 2.21288e-32)
(-1.78521 0.33151 -2.46176e-32)
(-1.82183 0.335774 0)
(-1.85318 0.334737 -1.28697e-29)
(-1.85582 0.332881 5.33483e-31)
(-1.88838 0.334877 -3.8042e-29)
(-1.89204 0.33677 0)
(-1.9108 0.34906 -3.50259e-29)
(-1.9384 0.367255 1.83281e-32)
(-1.94405 0.36817 2.27029e-32)
(-1.98189 0.374337 -3.07725e-29)
(-2.02195 0.369998 -3.97663e-32)
(-2.02688 0.369128 -1.31674e-36)
(-2.06007 0.367809 -4.43448e-29)
(-2.09939 0.372064 6.20093e-29)
(-2.10633 0.372395 2.36293e-29)
(-2.15517 0.377931 0)
(-2.2108 0.376559 0)
(-2.22378 0.375914 -2.54036e-29)
(-2.45281 0.335598 9.73644e-27)
(-2.81284 0.331286 -3.17245e-27)
(-3.10461 0.389721 -1.55175e-28)
(-3.35171 0.524897 -2.59334e-27)
(-3.48836 0.533606 9.82318e-29)
(-3.60613 0.537024 1.06926e-28)
(-3.70722 0.522594 -6.03295e-28)
(-3.7495 0.503674 0)
(-3.75827 0.486777 1.10206e-28)
(-3.75245 0.481047 6.4788e-28)
(-3.73376 0.477187 0)
(-3.72018 0.475314 0)
(-3.69902 0.467933 -2.69671e-28)
(-3.66573 0.456664 -4.41314e-28)
(-3.62074 0.444768 7.32234e-28)
(-3.58117 0.439839 -7.06432e-28)
(-3.53291 0.43511 0)
(-3.48465 0.426872 8.93084e-29)
(-3.44714 0.422557 2.29999e-34)
(-3.39987 0.418778 -8.41606e-29)
(-3.35124 0.411386 -5.26847e-28)
(-3.31721 0.405684 -8.27009e-29)
(-3.27344 0.403245 0)
(-3.22138 0.396183 -2.98984e-28)
(-3.18951 0.390466 3.82864e-28)
(-3.14166 0.386207 -2.5328e-28)
(-3.09153 0.379331 -2.34304e-28)
(-3.06078 0.374022 0)
(-3.0106 0.369181 -3.39628e-28)
(-2.96691 0.3643 6.69383e-29)
(-2.91525 0.355643 6.56942e-29)
(-0.612508 0.0390816 4.26056e-30)
(-0.614507 0.0512716 -2.95946e-30)
(-0.659224 0.178824 4.64653e-32)
(-0.943779 0.270227 9.53145e-32)
(-0.965838 0.280147 1.34752e-35)
(-1.2238 0.277415 2.69069e-28)
(-1.2563 0.274842 1.60496e-32)
(-1.36157 0.261467 -1.20882e-32)
(-1.48975 0.286736 2.95496e-28)
(-1.49601 0.28863 -3.39438e-28)
(-1.55679 0.297293 3.76722e-32)
(-1.63643 0.300424 1.29376e-31)
(-1.63266 0.296889 2.59211e-28)
(-1.68099 0.298705 0)
(-1.69247 0.300088 2.10494e-28)
(-1.70534 0.298574 0)
(-1.74226 0.311819 -1.7807e-28)
(-1.74573 0.313247 1.66335e-28)
(-1.75543 0.318254 -2.21359e-32)
(-1.79155 0.333053 0)
(-1.79195 0.333258 -2.00234e-28)
(-1.80882 0.344144 -1.1893e-28)
(-1.84105 0.357771 -1.94371e-28)
(-1.84026 0.356854 -1.63155e-28)
(-1.86782 0.360206 0)
(-1.89935 0.363457 2.12942e-28)
(-1.89912 0.359663 0)
(-1.9287 0.364011 -2.31545e-28)
(-1.93529 0.367744 2.65043e-28)
(-1.95158 0.375697 0)
(-1.97991 0.392224 -1.50125e-28)
(-1.98634 0.393636 -2.51269e-32)
(-2.01261 0.394236 7.5023e-29)
(-2.04697 0.393022 -2.23689e-33)
(-2.05199 0.392811 0)
(-2.078 0.388032 0)
(-2.11625 0.393261 1.26054e-28)
(-2.12331 0.393485 1.2507e-28)
(-2.16667 0.392897 -6.5825e-29)
(-2.22063 0.392068 7.76203e-29)
(-2.2372 0.391747 -7.4991e-29)
(-2.46425 0.33646 9.653e-27)
(-2.81649 0.349758 -5.70481e-29)
(-3.10083 0.409588 -9.50208e-28)
(-3.34676 0.537315 3.92917e-30)
(-3.48761 0.545485 0)
(-3.60777 0.547223 0)
(-3.70946 0.528153 0)
(-3.75056 0.505918 -1.10638e-28)
(-3.75954 0.487083 6.70264e-28)
(-3.75463 0.480217 6.21886e-28)
(-3.73483 0.475872 0)
(-3.72077 0.474002 3.59507e-28)
(-3.69936 0.465643 -4.25128e-28)
(-3.66449 0.453225 -1.23695e-27)
(-3.61844 0.44073 0)
(-3.57969 0.435869 -7.78575e-28)
(-3.53121 0.431174 -9.13833e-29)
(-3.48179 0.422658 6.65182e-28)
(-3.44484 0.418511 8.58093e-29)
(-3.39787 0.414931 -8.37617e-29)
(-3.34785 0.407182 -9.57865e-28)
(-3.31409 0.401684 8.23818e-29)
(-3.26907 0.399196 -4.41965e-28)
(-3.21742 0.391889 -3.96776e-28)
(-3.18556 0.386241 0)
(-3.1387 0.382226 0)
(-3.08708 0.375038 -2.41272e-28)
(-3.05597 0.369617 0)
(-3.00629 0.364821 0)
(-2.96223 0.359953 6.65755e-29)
(-2.90934 0.350931 6.5312e-29)
(-0.624328 0.0403965 -1.30014e-30)
(-0.624796 0.0520882 -1.94401e-30)
(-0.693466 0.187327 0)
(-0.953129 0.274599 0)
(-0.992164 0.288738 -2.13269e-32)
(-1.24885 0.285861 3.60353e-29)
(-1.26596 0.279777 0)
(-1.40777 0.274881 -1.71982e-28)
(-1.5012 0.291693 0)
(-1.50838 0.292887 -9.94323e-34)
(-1.58803 0.306109 0)
(-1.64229 0.303904 1.24073e-31)
(-1.64802 0.302553 2.73765e-32)
(-1.69469 0.304596 2.71173e-32)
(-1.6971 0.303223 1.3061e-28)
(-1.72487 0.306676 -4.14762e-29)
(-1.74964 0.316501 -9.97485e-29)
(-1.7508 0.316744 1.04433e-28)
(-1.77895 0.327907 -3.95082e-29)
(-1.79618 0.337342 -7.50244e-33)
(-1.79739 0.337749 1.2417e-28)
(-1.8221 0.352453 -7.317e-29)
(-1.84443 0.361565 -1.30885e-32)
(-1.84619 0.362001 -9.37784e-29)
(-1.87567 0.367192 -1.41025e-32)
(-1.90197 0.367626 -1.13971e-28)
(-1.90533 0.366525 9.14655e-33)
(-1.93405 0.371329 -1.27865e-28)
(-1.9378 0.372432 1.40587e-28)
(-1.95885 0.383728 -4.82139e-32)
(-1.98459 0.397556 -6.76296e-29)
(-1.98914 0.397489 0)
(-2.01919 0.401148 1.28523e-32)
(-2.04941 0.397953 5.75508e-29)
(-2.05375 0.396939 6.53932e-29)
(-2.08218 0.395974 -5.31077e-29)
(-2.11761 0.397858 0)
(-2.12429 0.397429 -4.67454e-29)
(-2.16892 0.399098 -2.04897e-32)
(-2.22087 0.395599 2.40588e-29)
(-2.2401 0.395296 -2.04839e-29)
(-2.46701 0.344226 7.97855e-27)
(-2.81231 0.363615 2.07875e-27)
(-3.08992 0.428649 -8.18607e-29)
(-3.33718 0.547624 -4.07434e-30)
(-3.48414 0.555205 0)
(-3.60616 0.554938 -1.77962e-27)
(-3.7082 0.532568 0)
(-3.74988 0.507459 0)
(-3.75944 0.486726 7.45473e-28)
(-3.75438 0.479034 6.97178e-28)
(-3.73494 0.474698 1.05434e-28)
(-3.72114 0.473019 -9.91788e-29)
(-3.69823 0.463539 -1.06821e-28)
(-3.66245 0.450275 -7.2146e-28)
(-3.61677 0.437706 -9.70102e-29)
(-3.57754 0.432633 -9.83758e-28)
(-3.52849 0.427848 0)
(-3.47982 0.419751 7.60533e-28)
(-3.44269 0.415605 0)
(-3.39484 0.411699 8.35589e-29)
(-3.34574 0.404534 -3.92394e-28)
(-3.31194 0.399186 -5.28048e-28)
(-3.26729 0.39625 -7.85169e-28)
(-3.21508 0.389356 7.55304e-29)
(-3.18338 0.383876 0)
(-3.1356 0.379362 -3.28807e-28)
(-3.08444 0.372595 0)
(-3.05372 0.367389 0)
(-3.00352 0.362273 0)
(-2.95902 0.357293 6.64262e-29)
(-2.90692 0.348722 -4.71741e-28)
(-0.709978 0.0535214 -1.26515e-34)
(-0.71811 0.0672266 -1.87236e-30)
(-0.814732 0.208865 -6.85518e-32)
(-1.11897 0.303375 -3.18464e-32)
(-1.145 0.315654 9.07513e-30)
(-1.40241 0.316391 -7.55481e-30)
(-1.43056 0.315498 1.8182e-28)
(-1.52991 0.307039 -8.45434e-29)
(-1.62822 0.325614 -1.34602e-31)
(-1.63272 0.325912 1.03144e-28)
(-1.6809 0.332546 -5.79359e-29)
(-1.73437 0.334665 -6.06902e-29)
(-1.73097 0.330595 1.32325e-33)
(-1.76332 0.331663 0)
(-1.77115 0.333381 0)
(-1.78078 0.332096 -3.53279e-29)
(-1.80507 0.345182 7.8884e-29)
(-1.80735 0.346318 8.63908e-29)
(-1.81667 0.351894 -8.24157e-29)
(-1.83961 0.367032 -3.51533e-33)
(-1.84009 0.366902 9.82313e-29)
(-1.85523 0.377104 6.25868e-29)
(-1.8783 0.390282 1.07686e-32)
(-1.87857 0.388828 -7.26899e-29)
(-1.90171 0.392825 -1.41356e-32)
(-1.92729 0.39832 8.15669e-34)
(-1.92891 0.394474 0)
(-1.95471 0.400623 0)
(-1.95998 0.404156 0)
(-1.97852 0.409385 0)
(-2.00306 0.421077 -4.52757e-29)
(-2.00789 0.42196 1.25864e-32)
(-2.03141 0.419935 9.97567e-33)
(-2.0572 0.418769 -2.5613e-34)
(-2.06147 0.418541 3.66116e-29)
(-2.08641 0.413508 -3.13901e-29)
(-2.11907 0.415849 -4.15785e-33)
(-2.1256 0.415572 -2.39255e-29)
(-2.16765 0.411807 1.28457e-29)
(-2.21642 0.4086 1.08034e-29)
(-2.23801 0.408717 0)
(-2.46227 0.354643 2.80747e-29)
(-2.79747 0.383606 1.65008e-27)
(-3.06953 0.453855 7.45967e-29)
(-3.31995 0.561867 -3.6627e-27)
(-3.4707 0.568092 -9.71166e-29)
(-3.5939 0.565467 -3.92276e-27)
(-3.6984 0.537532 2.20473e-28)
(-3.73835 0.508474 3.21749e-34)
(-3.74768 0.485632 9.22947e-28)
(-3.74475 0.476602 1.66753e-27)
(-3.72393 0.471511 0)
(-3.70909 0.469687 -4.88198e-30)
(-3.68665 0.459035 5.94377e-28)
(-3.64943 0.444596 -9.97806e-29)
(-3.60202 0.431241 -1.93643e-28)
(-3.56414 0.4264 -1.0839e-27)
(-3.51569 0.421721 0)
(-3.4649 0.413077 9.34267e-28)
(-3.4286 0.409229 8.54261e-29)
(-3.38253 0.405796 0)
(-3.33085 0.397876 5.42028e-28)
(-3.29737 0.392807 -7.86356e-29)
(-3.25364 0.390226 -9.87119e-28)
(-3.20022 0.382634 -7.53756e-29)
(-3.16838 0.37724 -1.98709e-34)
(-3.12289 0.373279 -3.13953e-28)
(-3.06985 0.365937 7.02331e-29)
(-3.03837 0.360528 1.90896e-34)
(-2.98939 0.355624 -1.9222e-34)
(-2.94513 0.350736 6.62883e-29)
(-2.89122 0.341543 -6.18685e-28)
(-0.722145 0.0555329 1.76768e-30)
(-0.728844 0.0686027 1.38411e-30)
(-0.848554 0.215275 0)
(-1.13012 0.304627 0)
(-1.1752 0.320065 8.70334e-30)
(-1.42752 0.320911 -3.62165e-30)
(-1.44141 0.318575 -1.17829e-33)
(-1.5675 0.316537 -3.36092e-29)
(-1.63907 0.329126 -1.2809e-31)
(-1.64433 0.329372 0)
(-1.7038 0.339376 -1.12684e-28)
(-1.73962 0.336914 -5.07455e-29)
(-1.74333 0.335286 1.32392e-28)
(-1.77385 0.336537 4.06188e-32)
(-1.77527 0.33552 -9.38049e-29)
(-1.79451 0.339027 4.06889e-29)
(-1.81073 0.348865 -6.75325e-33)
(-1.81145 0.349002 -2.17651e-32)
(-1.83149 0.359566 -4.36346e-29)