/*--------------------------------*- C++ -*----------------------------------*\
| =========                 |                                                 |
| \\      /  F ield         | OpenFOAM: The Open Source CFD Toolbox           |
|  \\    /   O peration     | Version:  v2012                                 |
|   \\  /    A nd           | Website:  www.openfoam.com                      |
|    \\/     M anipulation  |                                                 |
\*---------------------------------------------------------------------------*/
FoamFile
{
    version     2.0;
    format      ascii;
    class       volSymmTensorField;
    location    "1e-06";
    object      UPrime2Mean;
}
// * * * * * * * * * * * * * * * * * * * * * * * * * * * * * * * * * * * * * //

dimensions      [0 2 -2 0 0 0 0];


internalField   nonuniform List<symmTensor> 
10248
(
(1.62056e-08 2.40545e-09 5.06944e-33 4.05283e-10 9.93992e-34 2.93238e-57)
(1.15788e-08 1.69243e-08 3.01738e-36 3.29569e-08 7.01843e-36 1.66292e-63)
(3.50448e-08 4.22604e-08 -5.61342e-41 5.29393e-08 -7.28852e-41 1.10081e-73)
(8.83802e-10 -1.49754e-08 -2.28734e-37 2.59923e-07 3.86896e-36 7.39913e-65)
(1.49308e-09 1.78134e-08 5.9324e-34 2.14583e-07 7.07905e-33 2.67975e-58)
(6.63353e-10 -1.49566e-08 -5.71305e-35 3.77116e-07 1.20523e-33 6.08923e-59)
(1.29323e-07 -1.89252e-07 0 2.77264e-07 0 0)
(3.25233e-11 -7.21413e-09 3.13772e-41 1.85068e-06 4.17407e-37 1.09173e-66)
(1.30228e-09 -7.52055e-08 -5.61754e-39 4.46541e-06 5.15491e-37 7.5432e-67)
(1.74432e-07 1.00275e-06 0 5.77853e-06 0 0)
(1.8792e-07 1.25945e-06 7.7802e-36 8.46509e-06 5.1877e-35 4.14332e-64)
(1.018e-07 9.36079e-07 1.62231e-32 8.63795e-06 1.55251e-31 5.18914e-57)
(2.92281e-08 3.36753e-07 0 3.89468e-06 0 0)
(1.40787e-08 -1.16743e-07 8.06744e-33 1.00691e-06 -7.67451e-32 7.5822e-57)
(2.88735e-08 4.8924e-07 1.01295e-32 8.30713e-06 1.77381e-31 7.05253e-57)
(2.70702e-08 3.42375e-07 1.11577e-36 4.34939e-06 1.40034e-35 5.92242e-65)
(9.38004e-10 -7.59449e-08 1.55146e-33 6.72684e-06 -1.53572e-31 5.17606e-57)
(1.75043e-07 1.17828e-06 0 7.93866e-06 0 0)
(2.41243e-07 -3.67357e-08 -1.36065e-32 6.08036e-09 2.63159e-33 1.44347e-57)
(3.36194e-09 1.54848e-07 -2.27733e-38 7.13704e-06 -1.03778e-36 2.05251e-67)
(3.98858e-11 -9.28531e-09 7.49535e-39 3.7044e-06 -3.06189e-36 2.86541e-66)
(2.12414e-08 -3.05034e-07 3.97845e-33 4.43221e-06 -5.82682e-32 1.57499e-57)
(4.39392e-10 5.27442e-08 4.47872e-34 6.39317e-06 5.40337e-32 1.52985e-57)
(4.50323e-10 3.36278e-08 0 2.51194e-06 0 0)
(1.55707e-07 -7.33059e-07 1.49298e-32 3.47238e-06 -7.08369e-32 4.17105e-57)
(1.73046e-09 1.14308e-07 6.69593e-34 7.55612e-06 4.44072e-32 1.69604e-57)
(4.69396e-08 -2.71314e-07 1.64372e-40 1.58526e-06 -9.94356e-40 8.54061e-73)
(1.45107e-07 -5.75105e-07 -3.11687e-32 2.30776e-06 1.30051e-31 9.57541e-57)
(1.41708e-11 -8.98988e-10 -7.22379e-35 2.28977e-06 -6.31974e-32 3.78217e-57)
(1.84686e-07 1.80684e-08 0 1.80788e-09 0 0)
(2.94816e-07 -5.71332e-07 0 1.12253e-06 0 0)
(3.4238e-08 -1.40897e-07 -8.74411e-33 5.89215e-07 3.78029e-32 2.95296e-57)
(9.91711e-07 -8.19255e-07 -3.96341e-37 6.85046e-07 3.22818e-37 1.63326e-67)
(2.25542e-06 -1.29904e-06 3.56713e-32 7.55774e-07 -2.13008e-32 7.14561e-58)
(1.66885e-06 -5.19314e-07 -2.09716e-32 1.62622e-07 6.65449e-33 3.17262e-58)
(2.432e-06 -9.62345e-07 2.62993e-36 3.83667e-07 -1.02222e-36 4.75583e-66)
(1.9699e-06 1.60815e-07 0 1.32492e-08 0 0)
(1.97851e-06 2.33908e-07 8.72818e-33 2.7661e-08 1.03298e-33 5.96081e-59)
(3.6429e-06 -9.5026e-07 -5.06334e-32 2.49603e-07 1.35668e-32 8.23504e-58)
(3.83522e-06 -1.14362e-06 -2.56651e-32 3.42521e-07 7.79233e-33 2.0199e-58)
(6.83219e-07 -2.10451e-07 1.18754e-35 6.6448e-08 -6.63033e-36 9.30507e-63)
(0.0107173 -0.00201053 -8.57107e-30 0.000377333 1.83489e-30 8.13261e-55)
(0.0363648 -0.00469798 0 0.000625181 0 0)
(0.0157385 -0.00150139 0 0.000147757 0 0)
(0.00434777 -0.000611806 0 8.65586e-05 0 0)
(0.00614111 -0.000799554 -6.09746e-30 0.000104128 8.02816e-31 9.94413e-57)
(0.00623008 -0.000796329 8.1492e-30 0.000101797 -1.04585e-30 1.67755e-56)
(0.00477431 -0.000600018 0 7.54153e-05 0 0)
(0.00326637 -0.000403488 -8.00194e-30 4.98535e-05 9.93333e-31 3.46205e-56)
(0.00227684 -0.000285655 -6.51252e-30 3.58416e-05 8.19293e-31 3.02036e-56)
(0.00154245 -0.000196259 0 2.49722e-05 0 0)
(0.00113772 -0.000141534 0 1.76113e-05 0 0)
(0.000919363 -0.000118262 1.32166e-30 1.52129e-05 -1.7014e-31 2.55464e-57)
(0.000719121 -9.46304e-05 2.91264e-30 1.24537e-05 -3.84326e-31 1.65073e-56)
(0.000613185 -7.77596e-05 0 9.86215e-06 0 0)
(0.000563012 -7.2569e-05 -6.93323e-31 9.35375e-06 8.93875e-32 1.19183e-57)
(0.000468749 -6.29011e-05 -8.76289e-31 8.44328e-06 1.17759e-31 1.72605e-57)
(0.000430901 -5.54674e-05 -1.54524e-30 7.14005e-06 1.98899e-31 7.9018e-57)
(0.000423472 -5.46246e-05 -2.49809e-30 7.04617e-06 3.2201e-31 2.01943e-56)
(0.000365738 -4.90488e-05 0 6.58022e-06 0 0)
(0.00034616 -4.51288e-05 0 5.88394e-06 0 0)
(0.000350576 -4.53339e-05 -1.80135e-31 5.86225e-06 2.32911e-32 1.26868e-58)
(0.00030888 -3.83909e-05 -2.06402e-30 4.77645e-06 2.5527e-31 1.90295e-56)
(0.00036416 -4.79787e-05 1.59537e-30 6.32199e-06 -2.10347e-31 9.82139e-57)
(0.000308921 -4.58411e-05 -1.32064e-30 6.82252e-06 1.98352e-31 6.2927e-57)
(0.000285354 -3.82245e-05 0 5.12148e-06 0 0)
(0.000273942 -3.7224e-05 -1.06008e-30 5.06264e-06 1.44908e-31 5.16712e-57)
(0.000282999 -3.65083e-05 -2.16723e-32 4.70979e-06 2.81662e-33 2.11701e-59)
(0.000268941 -3.55566e-05 0 4.70175e-06 0 0)
(0.000246741 -3.47075e-05 2.65767e-30 4.88899e-06 -3.77267e-31 3.05829e-56)
(0.000256268 -3.39822e-05 7.68498e-31 4.50738e-06 -1.01859e-31 3.3604e-57)
(0.000261265 -3.47319e-05 9.97848e-31 4.61824e-06 -1.32796e-31 5.4004e-57)
(1.68008e-08 -1.36724e-08 9.06208e-36 1.99857e-08 -2.32849e-35 3.38594e-62)
(2.1186e-08 -3.70183e-08 -3.19053e-40 8.14759e-08 8.43576e-40 9.71241e-72)
(1.80003e-10 -4.64855e-09 -4.25393e-38 1.41586e-07 1.07146e-36 1.48138e-65)
(2.2715e-10 -1.52506e-09 2.27539e-38 1.16458e-06 -7.95433e-36 6.00379e-65)
(1.49525e-09 3.73551e-08 3.05425e-33 1.01711e-06 8.0093e-32 7.05405e-57)
(4.5519e-10 -2.18056e-08 0 1.46697e-06 0 0)
(2.21106e-10 1.15574e-08 -1.78651e-34 1.03464e-06 -7.86316e-33 3.11157e-58)
(7.0188e-08 5.3912e-07 0 4.14114e-06 0 0)
(6.89397e-08 7.75651e-07 0 8.73599e-06 0 0)
(8.4771e-08 1.00253e-06 -1.08543e-33 1.18693e-05 -1.2523e-32 2.05818e-57)
(4.95618e-09 3.12298e-07 2.39412e-33 2.07922e-05 1.41294e-31 4.5984e-57)
(1.77598e-08 6.99285e-07 3.91882e-38 2.77302e-05 1.66666e-36 4.36239e-67)
(1.51871e-08 3.85903e-07 -7.82062e-37 9.84667e-06 -2.04468e-35 5.47671e-65)
(1.38131e-08 -1.05425e-07 1.98974e-36 8.369e-07 -1.64369e-35 3.47173e-64)
(1.9605e-07 2.50367e-06 4.45922e-32 3.19744e-05 5.7107e-31 1.96525e-56)
(1.6079e-07 1.29461e-06 2.93537e-36 1.04585e-05 2.30789e-35 6.38197e-65)
(7.16612e-08 1.08258e-06 1.64351e-36 1.63943e-05 2.43103e-35 5.16994e-65)
(1.0756e-07 1.44395e-06 -2.11736e-32 1.94741e-05 -2.96376e-31 9.10309e-57)
(9.30853e-07 -9.57826e-09 7.53983e-32 8.32542e-09 5.49247e-33 1.12221e-56)
(5.60863e-09 3.26212e-07 -1.97293e-32 1.98087e-05 -1.12123e-30 8.57657e-56)
(2.29149e-07 1.36285e-06 0 8.16419e-06 0 0)
(1.4487e-07 1.13821e-06 1.59232e-32 8.95225e-06 1.26716e-31 3.83562e-57)
(1.33165e-07 1.57669e-06 -5.16924e-40 1.86871e-05 -6.22861e-39 6.26191e-72)
(2.7311e-07 1.25898e-06 -1.00969e-36 5.8174e-06 -4.80576e-36 6.25807e-66)
(1.87804e-07 1.18832e-06 -2.04999e-32 7.53114e-06 -1.31298e-31 4.65337e-57)
(1.92656e-07 2.03705e-06 -3.50004e-36 2.15859e-05 -3.73472e-35 6.72667e-65)
(3.43729e-07 9.2227e-07 0 2.49384e-06 0 0)
(2.94354e-07 1.01712e-06 6.12584e-32 3.54634e-06 2.19335e-31 1.72926e-56)
(1.32791e-07 8.23234e-07 -8.99533e-33 5.12154e-06 -5.80692e-32 1.89181e-57)
(5.60029e-07 -2.55896e-07 9.6895e-34 1.17045e-07 -4.68314e-34 1.14831e-59)
(6.44129e-07 1.134e-06 -2.30657e-36 2.02289e-06 -4.17736e-36 8.87265e-66)
(7.2191e-07 9.82199e-07 6.59306e-32 1.35268e-06 9.21937e-32 7.45127e-57)
(1.01874e-06 8.22089e-07 0 6.7346e-07 0 0)
(4.84833e-07 5.92124e-07 0 7.35676e-07 0 0)
(3.80092e-07 1.66873e-07 2.45243e-32 7.64256e-08 1.11837e-32 1.71945e-57)
(1.16466e-06 8.90591e-08 0 1.03081e-08 0 0)
(1.05249e-06 -6.95969e-07 0 4.62095e-07 0 0)
(1.01855e-06 -7.13466e-07 4.01704e-38 5.00816e-07 -2.83028e-38 2.36496e-69)
(1.65124e-06 -3.25894e-08 2.09088e-32 2.73057e-09 -2.71051e-34 2.81159e-58)
(1.22415e-06 2.33543e-07 2.44151e-32 4.90341e-08 4.96787e-33 5.35746e-58)
(2.88254e-06 -1.15733e-07 1.0369e-34 8.03539e-09 -9.82678e-37 1.99314e-62)
(0.0116662 -0.00297625 3.39133e-31 0.00076578 -5.11737e-32 2.09862e-58)
(0.0384369 -0.00507172 0 0.000780569 0 0)
(0.0169588 -0.000647476 0 6.62889e-05 0 0)
(0.00517179 -0.000827502 3.40286e-29 0.000136815 -3.82934e-30 9.91097e-55)
(0.00710279 -0.000939527 3.94147e-29 0.000124535 -5.28555e-30 2.4833e-55)
(0.00714107 -0.000876594 8.68703e-29 0.000107712 -1.08138e-29 1.64593e-54)
(0.00575604 -0.000675159 -5.72675e-29 7.92519e-05 6.79507e-30 9.66252e-55)
(0.00401344 -0.000463102 -6.54498e-30 5.34717e-05 7.59398e-31 1.56516e-56)
(0.00281067 -0.000328342 -1.7737e-30 3.83776e-05 2.15341e-31 1.09986e-56)
(0.00206384 -0.000248591 -4.868e-30 2.99486e-05 5.88149e-31 1.65952e-56)
(0.00155231 -0.000186454 3.194e-31 2.24023e-05 -3.59413e-32 2.21372e-57)
(0.0012256 -0.000150315 3.57753e-30 1.84387e-05 -4.37445e-31 1.44865e-56)
(0.00104753 -0.000132763 3.46355e-30 1.68269e-05 -4.40427e-31 1.63341e-56)
(0.000911005 -0.00011419 3.18968e-30 1.43133e-05 -3.99525e-31 1.59014e-56)
(0.000785978 -0.000100091 2.90041e-30 1.27462e-05 -3.69253e-31 1.5182e-56)
(0.000707642 -9.22629e-05 0 1.20304e-05 0 0)
(0.000666803 -8.56215e-05 2.29831e-30 1.09946e-05 -2.94881e-31 1.04879e-56)
(0.000613906 -7.87088e-05 -5.41465e-30 1.00916e-05 6.92909e-31 6.23708e-56)
(0.000559043 -7.35602e-05 4.7558e-31 9.67962e-06 -6.2741e-32 8.68949e-58)
(0.000547028 -7.10412e-05 0 9.22705e-06 0 0)
(0.000527958 -6.81618e-05 -1.10117e-30 8.8001e-06 1.42028e-31 3.54144e-57)
(0.000483678 -6.23228e-05 -1.96569e-30 8.03113e-06 2.52611e-31 1.13526e-56)
(0.00039382 -5.1549e-05 -9.2984e-31 6.7481e-06 1.21816e-31 3.06115e-57)
(0.000478756 -6.5143e-05 -6.23272e-30 8.87159e-06 8.58837e-31 9.76903e-56)
(0.000432497 -5.67027e-05 0 7.4342e-06 0 0)
(0.000448635 -6.01327e-05 0 8.06154e-06 0 0)
(0.000448455 -5.79034e-05 0 7.47637e-06 0 0)
(0.000398244 -5.21171e-05 0 6.82061e-06 0 0)
(0.000397122 -5.41198e-05 7.44065e-30 7.37787e-06 -1.02224e-30 1.71292e-55)
(0.000414744 -5.46887e-05 1.41689e-30 7.21194e-06 -1.86643e-31 7.00361e-57)
(0.000392064 -5.14687e-05 -7.64927e-30 6.75677e-06 1.0045e-30 2.20459e-55)
(1.36567e-07 5.64865e-08 0 2.49801e-08 0 0)
(1.08727e-07 2.747e-08 2.31898e-34 6.94726e-09 6.2193e-35 4.45518e-60)
(1.27379e-08 -1.50009e-08 2.38687e-34 1.76741e-08 -2.82226e-34 6.64976e-60)
(7.39326e-08 -1.71483e-07 6.44526e-37 4.00518e-07 -1.48104e-36 7.0047e-66)
(2.43399e-08 -1.09174e-07 -5.05781e-39 4.94847e-07 1.98904e-38 1.10891e-68)
(1.96174e-07 -2.98842e-07 -5.43807e-33 4.55559e-07 8.36795e-33 3.09921e-58)
(8.78485e-08 -2.09862e-07 -4.72508e-38 5.01537e-07 1.13406e-37 2.86764e-68)
(4.03312e-09 -4.89572e-08 0 5.95491e-07 0 0)
(1.56814e-07 -2.2999e-07 -9.47838e-37 3.48996e-07 1.40378e-36 6.77059e-66)
(1.36165e-07 -3.50418e-07 -2.73294e-32 9.03854e-07 7.09356e-32 6.87424e-57)
(1.73428e-07 -7.83876e-07 3.00636e-32 3.55163e-06 -1.36539e-31 6.96912e-57)
(6.61702e-07 -1.73569e-06 -8.72824e-36 4.60592e-06 2.24603e-35 1.20353e-64)
(8.1642e-08 -3.0823e-07 0 1.2086e-06 0 0)
(1.41803e-06 1.43332e-06 3.8484e-31 1.79099e-06 4.85065e-31 1.3155e-55)
(8.73229e-07 -2.43343e-06 2.58159e-31 6.79973e-06 -7.0228e-31 1.04348e-55)
(1.42472e-07 -3.73063e-07 -7.35482e-36 1.00799e-06 1.94679e-35 4.16181e-64)
(1.47064e-06 -1.28612e-06 1.20472e-31 1.14112e-06 -1.00956e-31 1.20862e-56)
(7.06658e-07 -1.25447e-06 -6.54967e-32 2.25508e-06 1.18281e-31 7.03095e-57)
(4.74721e-08 1.16811e-07 0 3.05582e-07 0 0)
(2.42781e-06 -2.02976e-06 1.62682e-36 1.71088e-06 -1.37377e-36 1.27344e-66)
(1.40371e-06 -1.18532e-06 -5.8727e-32 1.01302e-06 4.92954e-32 3.07402e-57)
(4.99959e-07 -5.64077e-07 3.42224e-32 6.50812e-07 -3.94728e-32 2.67857e-57)
(1.97541e-06 -2.4268e-06 1.78796e-35 3.0056e-06 -2.23089e-35 1.70197e-64)
(1.15216e-06 -1.19084e-06 1.64949e-35 1.23115e-06 -1.70192e-35 2.51863e-64)
(1.17508e-06 -1.18934e-06 -1.71971e-32 1.20537e-06 1.77372e-32 1.00862e-57)
(2.84423e-06 -3.1013e-06 -8.22756e-32 3.38725e-06 8.99556e-32 4.08824e-57)
(1.94704e-06 -4.98455e-07 1.75868e-35 1.40479e-07 -4.61541e-36 1.70882e-64)
(3.36665e-06 -9.45198e-08 2.52817e-31 2.38843e-08 -7.29628e-35 2.13275e-56)
(4.35081e-06 -1.66855e-06 3.3533e-35 6.5236e-07 -1.25041e-35 2.7195e-64)
(3.0016e-06 8.71298e-08 5.71515e-36 3.25725e-09 1.59289e-37 1.16921e-65)
(3.34557e-06 -1.67598e-06 0 8.39766e-07 0 0)
(3.0546e-06 -1.82419e-06 -2.2755e-32 1.0926e-06 1.39779e-32 3.07973e-58)
(1.14515e-06 -5.03927e-07 -1.78834e-36 2.21904e-07 7.83327e-37 3.77376e-66)
(3.15354e-06 -6.57595e-07 -8.11589e-37 1.3718e-07 1.70389e-37 3.37678e-67)
(3.2184e-06 -6.88988e-07 -2.46115e-32 1.4817e-07 5.42895e-33 2.26578e-58)
(1.70721e-06 8.06275e-07 4.02097e-37 3.83925e-07 1.66704e-37 3.10408e-67)
(4.75863e-06 9.63321e-07 -2.02374e-36 1.95069e-07 -4.08459e-37 9.93137e-67)
(4.64847e-06 3.8792e-07 -4.43223e-32 3.27968e-08 -3.60673e-33 4.87572e-58)
(1.7806e-06 1.94808e-07 0 2.14862e-08 0 0)
(5.50376e-06 -4.34e-07 -6.88645e-34 3.43467e-08 5.26762e-35 5.52892e-60)
(4.27835e-06 -8.1381e-07 -1.42498e-35 1.55227e-07 2.65388e-36 5.60449e-65)
(0.0114895 -0.00235099 -8.329e-29 0.000490631 1.61344e-29 1.66529e-54)
(0.0379481 -0.00507853 -1.36448e-28 0.00073087 -1.19012e-29 2.75871e-53)
(0.0164085 -7.15596e-05 -8.37481e-28 8.00868e-05 -7.76032e-29 1.44293e-52)
(0.00465747 -0.000857214 -2.44901e-31 0.00017095 6.19897e-32 3.51589e-59)
(0.00649926 -0.000880262 7.90859e-29 0.000119976 -1.10305e-29 1.14615e-54)
(0.00657847 -0.000769387 8.0022e-29 9.03298e-05 -9.60772e-30 1.49583e-54)
(0.00525599 -0.000566856 -1.36224e-28 6.13305e-05 1.50516e-29 6.199e-54)
(0.00357048 -0.000379282 6.19613e-30 4.04031e-05 -6.64953e-31 1.5537e-56)
(0.00246802 -0.000259628 1.61603e-35 2.74217e-05 -1.72084e-36 1.52693e-67)
(0.00176542 -0.000195123 -1.39534e-35 2.16097e-05 1.55455e-36 1.57722e-67)
(0.00129788 -0.000148234 2.14141e-30 1.69558e-05 -2.37646e-31 7.73203e-57)
(0.00102037 -0.000116111 -1.22014e-30 1.32364e-05 1.46949e-31 8.89949e-57)
(0.000846986 -0.00010073 -1.24915e-30 1.19846e-05 1.51422e-31 7.13239e-57)
(0.000727672 -8.85654e-05 0 1.07807e-05 0 0)
(0.000630722 -7.76581e-05 0 9.56234e-06 0 0)
(0.0005487 -6.77045e-05 0 8.3547e-06 0 0)
(0.000519382 -6.61275e-05 2.2304e-30 8.42046e-06 -2.83232e-31 1.34339e-56)
(0.000479035 -6.0408e-05 1.95469e-30 7.618e-06 -2.45729e-31 1.11912e-56)
(0.00042571 -5.35093e-05 6.46668e-30 6.72598e-06 -8.1047e-31 1.33397e-55)
(0.000433131 -5.58234e-05 1.8673e-30 7.1973e-06 -2.39977e-31 1.13037e-56)
(0.000402834 -5.19684e-05 2.40342e-30 6.70511e-06 -3.09712e-31 1.9116e-56)
(0.000359782 -4.62463e-05 9.75772e-32 5.9456e-06 -1.25186e-32 3.71802e-59)
(0.00042308 -5.48398e-05 5.63184e-31 7.10965e-06 -7.26635e-32 1.38762e-57)
(0.000362307 -4.53564e-05 1.50993e-30 5.67825e-06 -1.89627e-31 1.01386e-56)
(0.000325174 -4.06764e-05 -7.02705e-32 5.08948e-06 8.87797e-33 9.99932e-59)
(0.000336558 -4.39869e-05 0 5.75217e-06 0 0)
(0.000334678 -4.33915e-05 0 5.62642e-06 0 0)
(0.000301106 -3.85878e-05 0 4.9452e-06 0 0)
(0.000292247 -3.79722e-05 1.2156e-30 4.93485e-06 -1.57942e-31 7.11978e-57)
(0.000309412 -4.05552e-05 1.23527e-30 5.31704e-06 -1.61837e-31 6.97801e-57)
(0.000296995 -3.85356e-05 -1.11448e-30 5.00029e-06 1.44594e-31 6.53153e-57)
(1.87413e-07 -1.59766e-08 -3.55828e-35 1.36207e-09 2.99974e-36 2.1052e-62)
(2.21968e-07 5.50664e-09 3.09592e-34 1.46941e-10 7.97765e-36 5.36906e-61)
(6.35446e-08 -5.83035e-08 -3.75658e-33 5.51543e-08 3.57935e-33 2.3674e-58)
(6.00477e-08 -1.43353e-07 1.46292e-32 3.68813e-07 -3.84143e-32 4.06479e-57)
(4.06004e-08 -8.51142e-08 1.11815e-32 2.03602e-07 -2.69753e-32 3.59871e-57)
(2.48733e-08 -4.6808e-08 -7.92364e-38 1.42696e-07 1.8332e-37 2.90573e-67)
(1.43545e-07 -1.06366e-07 -3.44104e-32 1.17868e-07 3.35342e-32 9.94279e-57)
(1.76619e-07 1.45992e-07 -3.49667e-32 1.37587e-07 -2.54366e-32 7.65523e-57)
(3.24872e-07 -2.60804e-07 2.75695e-36 2.7905e-07 -2.4472e-36 2.45799e-65)
(4.38725e-07 -1.46041e-07 7.19032e-32 1.00192e-07 -3.11378e-32 1.29065e-56)
(7.67752e-08 2.65248e-07 3.18181e-36 9.47382e-07 9.11679e-36 2.99792e-64)
(3.05511e-07 5.32183e-07 -1.55375e-31 1.02366e-06 -2.12505e-31 1.14453e-55)
(1.00272e-06 1.64898e-07 2.29339e-35 1.27362e-07 2.80661e-36 5.59457e-64)
(2.69463e-07 -6.82717e-07 -1.49394e-31 2.20521e-06 5.12022e-31 1.20727e-55)
(1.15473e-06 1.27653e-06 -3.21255e-31 1.54541e-06 -2.92144e-31 1.19433e-55)
(1.46663e-06 5.3153e-08 2.50726e-31 1.12221e-07 -2.81869e-32 5.57138e-56)
(1.18665e-06 2.44921e-07 -2.72559e-31 1.92336e-07 2.86176e-35 8.50648e-56)
(2.13171e-06 1.78335e-06 -2.5528e-31 1.53485e-06 -1.98339e-31 3.6413e-56)
(1.18044e-06 -1.40476e-06 1.83813e-35 1.74254e-06 -2.3783e-35 3.38263e-64)
(1.07524e-06 -2.89902e-07 -6.5811e-31 3.92886e-07 3.50016e-31 5.02214e-55)
(2.00138e-06 -8.92306e-08 2.44678e-31 9.87922e-08 -3.37711e-32 3.54865e-56)
(9.37097e-07 -1.923e-07 -1.30634e-35 1.15399e-07 4.05551e-36 2.09678e-64)
(1.76276e-06 1.21222e-07 -1.54523e-35 1.34423e-07 -3.98601e-37 1.39489e-64)
(2.25667e-06 -3.44189e-07 1.98174e-31 1.01522e-07 -4.54488e-32 2.21878e-56)
(1.94166e-06 -5.51806e-07 1.99512e-31 2.27986e-07 -7.31634e-32 2.45404e-56)
(2.39167e-06 2.06476e-07 0 1.8149e-07 0 0)
(3.06699e-06 -1.38003e-06 0 6.92834e-07 0 0)
(3.06413e-06 -2.45855e-06 -5.32108e-31 2.10588e-06 4.71135e-31 1.08302e-55)
(3.49665e-06 -1.19078e-06 0 4.85512e-07 0 0)
(3.72933e-06 -1.5741e-06 8.57831e-32 6.75804e-07 -3.84656e-32 2.46245e-57)
(3.41734e-06 -1.11299e-06 1.13079e-35 3.88888e-07 -3.76515e-36 4.09249e-65)
(3.92538e-06 -1.32929e-06 2.53027e-35 4.71293e-07 -8.90149e-36 1.71961e-64)
(2.10192e-06 -1.04694e-06 -1.8292e-39 5.34684e-07 9.54306e-40 1.76645e-72)
(2.0793e-06 -1.59807e-06 -1.84741e-36 1.25171e-06 1.43251e-36 2.57708e-66)
(2.64184e-06 -1.61283e-06 6.84249e-32 9.99673e-07 -4.36028e-32 2.0672e-57)
(1.61137e-06 -1.95328e-06 1.80199e-39 2.39419e-06 -2.25673e-39 2.45454e-72)
(3.6525e-06 -3.2081e-06 -1.33669e-36 2.83339e-06 1.17609e-36 6.68985e-67)
(4.50009e-06 -3.25809e-06 5.86527e-32 2.3703e-06 -4.36882e-32 1.06799e-57)
(2.26076e-06 -1.55618e-06 3.21225e-32 1.07775e-06 -2.26263e-32 5.77174e-58)
(3.97572e-06 -2.36252e-06 6.02739e-32 1.41429e-06 -3.66475e-32 1.05864e-57)
(5.63706e-06 -2.36017e-06 0 9.98608e-07 0 0)
(0.0123633 -0.00167985 -5.98194e-30 0.000228506 8.52278e-31 1.16118e-56)
(0.0399822 -0.005337 2.33738e-28 0.000926917 -1.43316e-28 8.68207e-53)
(0.0174346 -0.000932781 4.27714e-31 0.000124156 -2.63314e-32 1.1491e-59)
(0.00505761 -0.0010448 -8.70478e-29 0.000244157 8.04258e-30 6.02389e-54)
(0.00726686 -0.00101013 6.42492e-30 0.000141917 -9.60958e-31 9.53924e-57)
(0.00738408 -0.000843689 -1.22347e-28 9.69667e-05 1.44839e-29 3.18653e-54)
(0.00580918 -0.000583543 4.70003e-31 5.89289e-05 -4.83102e-32 5.66296e-59)
(0.00411897 -0.000403686 0 3.97296e-05 0 0)
(0.00293191 -0.000290844 -5.70913e-30 2.89556e-05 5.74494e-31 1.62367e-56)
(0.00210088 -0.000219497 -9.75391e-30 2.29838e-05 1.03094e-30 6.5571e-56)
(0.00161047 -0.000174216 -4.26927e-30 1.88753e-05 4.65974e-31 1.62971e-56)
(0.00130697 -0.000142778 -9.88251e-31 1.5621e-05 1.19605e-31 1.36406e-56)
(0.00108587 -0.000125187 -2.5126e-30 1.44371e-05 2.93473e-31 1.95116e-56)
(0.000947843 -0.000111777 2.74612e-30 1.3184e-05 -3.22724e-31 9.37232e-57)
(0.00084718 -0.000102131 0 1.2313e-05 0 0)
(0.000742588 -9.0267e-05 0 1.09731e-05 0 0)
(0.000689857 -8.60265e-05 0 1.07284e-05 0 0)
(0.000664813 -8.18449e-05 1.02428e-29 1.00763e-05 -1.25698e-30 2.1606e-55)
(0.00059819 -7.42195e-05 0 9.20912e-06 0 0)
(0.000555757 -7.03856e-05 -2.09344e-30 8.91579e-06 2.63933e-31 1.12278e-56)
(0.0005694 -7.12894e-05 -2.05587e-30 8.92567e-06 2.56873e-31 1.06514e-56)
(0.000520138 -6.42012e-05 -2.10538e-29 7.92474e-06 2.59355e-30 1.2041e-54)
(0.000480484 -6.09347e-05 3.5844e-30 7.72801e-06 -4.5355e-31 3.81581e-56)
(0.000514626 -6.58579e-05 1.68721e-30 8.42927e-06 -2.15248e-31 7.97892e-57)
(0.000471382 -5.78939e-05 1.06371e-31 7.11238e-06 -1.30704e-32 3.44762e-59)
(0.000460186 -5.90514e-05 -1.6199e-30 7.57901e-06 2.07225e-31 8.19728e-57)
(0.000477204 -5.95681e-05 -2.32132e-30 7.43629e-06 2.89852e-31 1.53092e-56)
(0.000436896 -5.43833e-05 -4.32428e-30 6.77032e-06 5.39374e-31 6.08622e-56)
(0.000418215 -5.32472e-05 2.6082e-30 6.77956e-06 -3.32043e-31 2.0939e-56)
(0.000433331 -5.50532e-05 -5.14318e-31 6.99433e-06 6.54548e-32 2.13534e-57)
(0.000427415 -5.33424e-05 1.39769e-30 6.65842e-06 -1.75069e-31 6.68691e-57)
(2.75675e-08 -3.92899e-09 -1.68954e-34 5.70546e-10 2.31114e-35 1.14772e-60)
(3.44794e-08 -9.42384e-09 2.84321e-35 2.57623e-09 -7.77742e-36 2.47166e-62)
(3.80355e-09 6.57146e-10 0 1.14974e-10 0 0)
(3.28945e-09 3.85878e-09 -1.10593e-33 5.00791e-09 -1.2322e-33 3.81833e-58)
(1.92244e-10 -1.18364e-09 0 1.07603e-08 0 0)
(1.3474e-08 -3.17554e-08 2.33094e-33 7.75534e-08 -5.70829e-33 4.40769e-58)
(2.09863e-09 7.86134e-09 -1.78455e-33 3.51343e-08 -6.1856e-33 1.56918e-57)
(3.94698e-08 1.34237e-07 -1.40954e-33 4.56627e-07 -4.83504e-33 3.99884e-58)
(2.99547e-09 1.81112e-08 1.51205e-33 1.11649e-07 8.41982e-33 1.02299e-57)
(6.9119e-09 -4.51692e-08 5.08759e-33 3.28665e-07 -3.59555e-32 4.08448e-57)
(2.49931e-08 -1.06762e-07 1.449e-36 4.85908e-07 -6.64923e-36 1.5691e-64)
(9.94861e-08 -2.87282e-07 -1.05445e-37 9.16291e-07 1.09244e-37 2.40031e-65)
(2.27617e-08 3.51035e-08 -2.18174e-36 6.93488e-08 -2.89476e-36 2.27903e-64)
(1.81985e-07 4.39597e-07 -6.76805e-37 1.09948e-06 -1.73072e-36 7.59614e-66)
(7.91288e-09 -7.79743e-08 0 1.04648e-06 0 0)
(1.0982e-08 5.62933e-09 9.18001e-33 4.01729e-08 -3.59248e-33 9.53757e-57)
(8.94893e-08 -5.02963e-08 2.94015e-32 8.17081e-08 -1.48364e-32 9.86592e-57)
(2.26618e-08 6.31104e-08 -1.53236e-32 1.85581e-07 -3.5982e-32 1.57362e-56)
(6.0202e-07 7.4994e-07 -1.27771e-35 9.43606e-07 -1.63254e-35 2.93312e-64)
(2.55571e-07 2.74785e-08 5.41378e-32 7.25773e-08 5.70926e-33 1.14942e-56)
(4.14836e-08 2.26083e-08 -1.87994e-32 4.32735e-08 -1.32799e-32 8.88735e-57)
(4.51958e-08 5.62489e-08 0 9.02783e-08 0 0)
(2.30498e-07 -1.6146e-07 3.30618e-32 1.38506e-07 -2.33948e-32 4.7511e-57)
(2.8167e-08 -1.94941e-09 -2.11585e-32 1.24928e-08 -2.33642e-33 1.7178e-56)
(4.58546e-08 6.14735e-08 0 9.82873e-08 0 0)
(2.13279e-07 -7.43136e-08 -3.95628e-32 6.46784e-08 1.36824e-32 7.34001e-57)
(1.4541e-07 8.75375e-08 0 5.64824e-08 0 0)
(2.47038e-07 3.06584e-07 -5.45153e-38 3.87757e-07 -7.45307e-38 1.25783e-66)
(1.42923e-07 -3.91622e-09 -1.06226e-32 4.69357e-09 3.70406e-34 7.92659e-58)
(5.336e-08 -2.02635e-08 1.77975e-33 8.20303e-09 -7.02479e-34 6.29769e-59)
(6.88618e-08 -3.43072e-08 4.00222e-33 1.81233e-08 -1.99072e-33 2.35059e-58)
(3.23019e-08 3.93765e-08 -7.64534e-37 5.26811e-08 -9.21328e-37 1.9607e-65)
(3.66907e-09 1.93104e-08 -1.06564e-33 1.02035e-07 -5.68189e-33 3.41921e-58)
(5.59037e-08 1.05237e-07 -1.50816e-33 1.99379e-07 -2.85452e-33 6.90259e-59)
(3.35857e-08 5.20953e-08 -2.01785e-33 8.20488e-08 -3.25151e-33 1.48313e-58)
(1.1306e-08 4.69526e-08 -5.35405e-39 1.94999e-07 -2.18088e-38 6.10793e-68)
(1.0443e-07 1.04966e-07 3.26553e-33 1.05549e-07 3.27775e-33 1.13829e-58)
(5.6699e-08 1.07142e-07 -4.12293e-39 2.03321e-07 -6.81665e-39 6.06684e-69)
(1.75316e-08 3.83019e-08 -4.86742e-35 8.37354e-08 -1.09314e-34 8.08295e-60)
(9.78089e-08 4.17591e-08 6.7753e-34 1.78498e-08 2.85373e-34 6.36311e-60)
(6.98225e-09 -1.1129e-08 -4.95723e-34 3.27545e-08 1.58542e-33 7.73321e-59)
(0.0122246 -0.00159687 3.46409e-31 0.000208601 -4.43903e-32 2.18281e-58)
(0.0395232 -0.00435507 4.79251e-28 0.00138464 -4.75161e-28 3.13559e-52)
(0.016658 -0.00396607 -6.35306e-28 0.000985473 1.7258e-28 6.83256e-53)
(0.00475064 -0.00110984 0 0.000310427 0 0)
(0.00688157 -0.000974686 0 0.00014068 0 0)
(0.00699555 -0.000756709 -3.32332e-28 8.29217e-05 3.7828e-29 2.45549e-53)
(0.0055226 -0.000497451 1.18455e-28 4.5408e-05 -1.12319e-29 4.5949e-54)
(0.00382832 -0.000328467 -6.34061e-30 2.85528e-05 5.57636e-31 1.53053e-56)
(0.00268685 -0.000236064 2.14492e-30 2.09757e-05 -2.68509e-31 7.7506e-56)
(0.00191991 -0.000182434 0 1.7451e-05 0 0)
(0.00143974 -0.000144248 -1.23221e-30 1.45212e-05 9.85366e-32 2.26087e-56)
(0.00115151 -0.000117322 -8.34942e-31 1.20111e-05 1.07505e-31 1.96498e-56)
(0.000954645 -0.000104925 3.28832e-30 1.15461e-05 -3.62455e-31 1.60177e-56)
(0.000825335 -9.43818e-05 1.61727e-29 1.07976e-05 -1.84463e-30 3.97974e-55)
(0.000726926 -8.52265e-05 0 9.99416e-06 0 0)
(0.000633824 -7.52606e-05 1.33929e-29 8.93777e-06 -1.58375e-30 3.78953e-55)
(0.000593238 -7.31481e-05 7.98427e-30 9.02098e-06 -9.79067e-31 1.39445e-55)
(0.000560881 -6.8064e-05 -2.22674e-30 8.26032e-06 2.68868e-31 1.24686e-56)
(0.000500832 -6.16234e-05 1.1071e-29 7.58309e-06 -1.35386e-30 3.30337e-55)
(0.000486186 -6.12389e-05 1.95667e-30 7.71651e-06 -2.45158e-31 1.1102e-56)
(0.000475555 -5.91306e-05 -5.90855e-30 7.3526e-06 7.32053e-31 9.84544e-56)
(0.000429717 -5.32273e-05 -1.14734e-29 6.59331e-06 1.41632e-30 4.25416e-55)
(0.000409997 -5.23099e-05 0 6.67619e-06 0 0)
(0.00042753 -5.3625e-05 5.984e-30 6.72659e-06 -7.49559e-31 1.08611e-55)
(0.000388023 -4.74887e-05 -7.30167e-30 5.81367e-06 8.92171e-31 1.89699e-55)
(0.000389289 -4.99813e-05 -2.98318e-30 6.42032e-06 3.81782e-31 3.24073e-56)
(0.000395985 -4.95666e-05 -4.52968e-30 6.20447e-06 5.66553e-31 7.12243e-56)
(0.000358539 -4.46453e-05 -7.63613e-30 5.55974e-06 9.52362e-31 2.29999e-55)
(0.000344981 -4.40769e-05 4.04128e-30 5.63218e-06 -5.16491e-31 6.34384e-56)
(0.000361952 -4.6352e-05 1.75525e-31 5.93626e-06 -2.24724e-32 1.21628e-58)
(0.000353139 -4.41919e-05 0 5.53083e-06 0 0)
(4.56532e-07 4.29894e-08 3.83524e-35 4.06589e-09 4.868e-36 2.51894e-61)
(4.06951e-07 1.57629e-08 0 6.10572e-10 0 0)
(9.59144e-08 -9.16625e-08 5.233e-37 8.80061e-08 -4.99902e-37 3.29519e-66)
(3.16786e-07 -3.71626e-07 1.03253e-36 4.44847e-07 -1.15659e-36 4.82254e-66)
(1.23337e-07 -2.04044e-07 9.08074e-33 3.42906e-07 -1.61288e-32 9.21801e-58)
(3.59935e-07 -6.02157e-07 2.90864e-32 1.02299e-06 -5.32271e-32 3.76547e-57)
(2.05964e-07 -5.02068e-07 5.65928e-38 1.25e-06 -1.70648e-37 6.11674e-68)
(1.50438e-08 -1.07852e-07 8.11754e-41 8.0079e-07 -7.25637e-40 1.23378e-72)
(7.1306e-07 -1.28196e-07 -4.62093e-32 2.83409e-08 1.18044e-32 5.95246e-57)
(3.35408e-07 4.96639e-08 -8.55067e-38 1.20756e-08 -9.79618e-39 7.59703e-68)
(3.68221e-07 -3.7743e-07 0 3.89865e-07 0 0)
(1.53871e-06 -1.26039e-06 -3.97368e-32 1.03844e-06 3.15795e-32 1.0946e-56)
(3.12177e-07 -2.60436e-07 0 2.20893e-07 0 0)
(8.68442e-07 4.81045e-07 0 2.70888e-07 0 0)
(5.42612e-07 -9.22033e-07 0 1.57266e-06 0 0)
(6.88691e-08 3.086e-09 0 7.40535e-09 0 0)
(7.50296e-07 -1.31062e-07 -7.99362e-33 3.19682e-08 -2.37969e-33 4.30293e-57)
(4.60186e-07 -2.29175e-07 1.76136e-32 1.28418e-07 -1.18429e-32 1.87808e-57)
(4.27909e-08 1.62674e-07 0 6.18627e-07 0 0)
(1.09166e-06 -2.44655e-07 0 5.97095e-08 0 0)
(4.45101e-07 -1.97759e-07 6.76358e-32 9.11009e-08 -3.57579e-32 2.75794e-56)
(8.9146e-08 2.8895e-08 -7.491e-33 1.05257e-08 -2.45154e-33 2.2861e-57)
(8.26914e-07 -5.6266e-07 -1.07457e-31 3.91396e-07 8.43199e-32 3.00896e-56)
(5.49982e-07 -3.96766e-07 1.07384e-31 3.00039e-07 -9.12994e-32 3.48436e-56)
(4.4126e-07 -2.81839e-08 -3.07762e-32 4.95465e-09 4.14192e-33 3.94251e-57)
(1.26248e-06 -5.83202e-07 8.75978e-32 2.732e-07 -4.54667e-32 1.47039e-56)
(7.76224e-07 -3.22327e-07 0 1.48359e-07 0 0)
(1.13913e-06 -1.89233e-07 6.75049e-32 4.34889e-08 -1.4927e-32 5.15504e-57)
(1.1956e-06 -8.89733e-07 6.25505e-32 6.80138e-07 -5.12353e-32 4.52606e-57)
(9.3811e-07 -7.08542e-07 4.71804e-32 5.51374e-07 -3.81505e-32 2.82677e-57)
(2.49333e-06 -1.57336e-06 -6.82511e-32 1.00655e-06 4.52983e-32 2.29773e-57)
(2.82636e-06 -1.46446e-06 -8.23265e-32 7.74055e-07 4.52452e-32 2.87712e-57)
(1.15692e-06 -5.68123e-07 4.27423e-32 2.8862e-07 -2.24135e-32 1.80349e-57)
(2.46528e-06 -8.83141e-07 6.0958e-32 3.25309e-07 -2.29866e-32 1.66171e-57)
(2.03262e-06 -1.19762e-06 -1.94368e-36 7.17733e-07 1.139e-36 3.68766e-66)
(2.83714e-07 -4.00306e-07 -4.96238e-36 5.80616e-07 6.86209e-36 1.18176e-64)
(1.81288e-06 -1.32926e-06 5.01749e-32 9.87252e-07 -3.78022e-32 1.52512e-57)
(1.94486e-06 -1.45548e-06 -5.08368e-32 1.10223e-06 3.91581e-32 1.48208e-57)
(3.46277e-07 -3.258e-07 4.76299e-36 3.10813e-07 -4.46517e-36 9.05452e-65)
(1.85371e-06 -1.21626e-06 2.74509e-32 8.02761e-07 -1.83785e-32 4.7078e-58)
(1.26139e-06 -1.11946e-06 -1.95355e-32 9.93699e-07 1.73465e-32 3.70229e-58)
(0.0119703 -0.00151323 -6.48666e-31 0.000191307 8.30102e-32 8.35844e-58)
(0.0385841 -0.00333859 6.14566e-28 0.00202792 -7.9918e-28 5.37367e-52)
(0.0157345 -0.00858158 0 0.00495534 0 0)
(0.00469 -0.00121845 0 0.000396899 0 0)
(0.00671505 -0.000959499 -6.12051e-30 0.000141338 9.83128e-31 9.23396e-57)
(0.00680287 -0.000683094 -2.10081e-28 7.04324e-05 2.26477e-29 1.00311e-53)
(0.00539195 -0.00042509 -7.08881e-30 3.45171e-05 5.86799e-31 1.37214e-56)
(0.00368357 -0.000270385 6.80009e-29 2.04986e-05 -5.3943e-30 2.55927e-54)
(0.00255846 -0.000192406 7.12872e-30 1.49386e-05 -6.88718e-31 1.65464e-55)
(0.00183257 -0.000155192 0 1.33654e-05 0 0)
(0.00135854 -0.000125691 2.71238e-30 1.1745e-05 -2.96782e-31 5.6142e-56)
(0.00107527 -0.000101356 0 9.6553e-06 0 0)
(0.000892784 -9.29314e-05 -3.17173e-30 9.69984e-06 3.3099e-31 1.58679e-56)
(0.000768834 -8.57414e-05 1.36052e-29 9.56655e-06 -1.51292e-30 3.12229e-55)
(0.000670121 -7.73412e-05 1.48945e-35 8.92772e-06 -1.70907e-36 4.66689e-67)
(0.00058396 -6.85525e-05 1.20595e-29 8.04851e-06 -1.40772e-30 3.28745e-55)
(0.000551583 -6.79589e-05 3.04923e-29 8.37824e-06 -3.72758e-30 2.24859e-54)
(0.000513418 -6.2511e-05 4.24592e-30 7.61277e-06 -5.13324e-31 4.93175e-56)
(0.000457136 -5.64272e-05 1.75081e-29 6.9682e-06 -2.14267e-30 9.11641e-55)
(0.000456719 -5.78558e-05 3.77762e-30 7.3377e-06 -4.75505e-31 4.39235e-56)
(0.000433665 -5.48076e-05 -9.45496e-30 6.93036e-06 1.18836e-30 2.79022e-55)