/*--------------------------------*- C++ -*----------------------------------*\
| =========                 |                                                 |
| \\      /  F ield         | OpenFOAM: The Open Source CFD Toolbox           |
|  \\    /   O peration     | Version:  v2012                                 |
|   \\  /    A nd           | Website:  www.openfoam.com                      |
|    \\/     M anipulation  |                                                 |
\*---------------------------------------------------------------------------*/
FoamFile
{
    version     2.0;
    format      ascii;
    class       volScalarField;
    location    "1e-06";
    object      yPlus;
}
// * * * * * * * * * * * * * * * * * * * * * * * * * * * * * * * * * * * * * //

dimensions      [0 0 0 0 0 0 0];


internalField   uniform 0;

boundaryField
{
    inlet
    {
        type            calculated;
        value           nonuniform List<scalar> 0();
    }
    outlet
    {
        type            calculated;
        value           nonuniform List<scalar> 0();
    }
    front
    {
        type            empty;
    }
    back
    {
        type            empty;
    }
    hub
    {
        type            calculated;
        value           nonuniform List<scalar> 
72
(
0.669626
0.656912
0.515744
1.07058
1.17191
1.30236
1.17552
0.821484
0.925045
0.982782
1.3083
1.31857
1.35239
1.3147
1.22543
1.23108
1.17338
1.14598
0.811703
1.2586
1.27679
1.34439
1.50707
1.60571
1.79701
1.77658
1.88894
1.88967
1.73209
1.73849
1.88456
1.90842
2.34129
2.62749
2.61537
2.75263
2.81059
2.81067
2.9733
3.13308
3.13897
3.54863
4.00093
4.21719
4.46306
4.5876
4.65442
4.75927
4.79286
4.77119
4.80059
4.795
4.76158
4.78698
4.77778
4.72684
4.72522
4.70873
4.65686
4.64514
4.62557
4.58667
4.56457
4.4522
4.51637
4.48154
4.47546
4.44523
4.39983
4.39447
4.37565
4.32102
)
;
    }
    tip
    {
        type            calculated;
        value           nonuniform List<scalar> 
62
(
72.8631
73.3634
73.0882
73.1743
73.4768
73.0788
73.4331
73.5297
73.148
73.6385
73.5715
73.3286
73.8041
73.6077
73.5444
73.9394
73.6356
73.7546
74.0173
73.6742
73.9103
74.0927
73.7089
74.0379
74.1655
73.757
74.143
74.2365
73.8177
74.2294
74.3082
73.8875
74.3008
74.3786
73.9668
74.3574
74.445
74.0633
74.3955
74.5054
74.1815
74.4085
74.5566
74.3091
74.3786
74.587
74.4181
74.2993
74.5844
74.51
74.1656
74.573
74.561
74.0757
74.5597
74.5761
74.2044
74.4921
74.5705
74.3888
74.3197
74.5219
)
;
    }
    procBoundary1to0
    {
        type            processor;
        value           uniform 0;
    }
    procBoundary1to5
    {
        type            processor;
        value           uniform 0;
    }
    procBoundary1to6
    {
        type            processor;
        value           uniform 0;
    }
}


// ************************************************************************* //
