/*--------------------------------*- C++ -*----------------------------------*\
| =========                 |                                                 |
| \\      /  F ield         | OpenFOAM: The Open Source CFD Toolbox           |
|  \\    /   O peration     | Version:  v2012                                 |
|   \\  /    A nd           | Website:  www.openfoam.com                      |
|    \\/     M anipulation  |                                                 |
\*---------------------------------------------------------------------------*/
FoamFile
{
    version     2.0;
    format      ascii;
    class       volScalarField;
    location    "1e-06";
    object      k;
}
// * * * * * * * * * * * * * * * * * * * * * * * * * * * * * * * * * * * * * //

dimensions      [0 2 -2 0 0 0 0];


internalField   nonuniform List<scalar> 
10193
(
0.740358
0.794548
0.844297
0.836141
0.881673
0.892379
0.917611
0.915051
0.935265
0.965164
0.982103
0.976613
0.993828
1.03236
1.03917
1.03065
1.05835
1.10058
1.09419
1.0867
1.1235
1.16752
1.14468
1.16797
1.18881
1.20555
1.1896
1.20751
1.24992
1.24628
1.23078
1.26692
1.31321
1.28473
1.29898
1.33035
1.3413
1.32055
1.348
1.39579
1.37544
1.53572
1.41463
1.4309
1.40624
1.43089
1.48001
1.45841
1.60248
1.49864
1.51117
1.4834
1.51475
1.56787
1.53283
1.54439
1.58402
1.57852
1.57544
1.59927
1.62472
1.59209
1.62046
1.6767
1.64053
1.65433
1.69864
1.68303
1.87246
1.72187
1.72434
1.71259
1.73738
1.76007
1.72137
0.677893
0.720709
0.742998
0.748271
0.782137
0.805522
0.802705
0.825267
0.872151
0.870205
0.867887
0.887789
0.9215
0.926723
0.92556
0.942311
0.972283
0.980474
0.981032
0.996978
1.02343
1.03173
1.0343
1.08649
1.07314
1.06834
1.08369
1.11603
1.11798
1.1161
1.12877
1.1561
1.16108
1.16224
1.21271
1.19879
1.19336
1.2066
1.2382
1.24059
1.23928
1.22873
1.27663
1.26944
1.28212
1.31672
1.31629
1.3135
1.37178
1.35118
1.3424
1.35348
1.38769
1.38709
1.38436
1.43802
1.42095
1.41278
1.43128
1.45356
1.44028
1.45093
1.49016
1.48687
1.48229
1.53742
1.51887
1.50975
1.49613
1.54611
1.53509
1.55322
1.57614
1.55944
1.56653
0.588359
0.619634
0.639888
0.644104
0.68234
0.693379
0.693601
0.713248
0.753569
0.753888
0.754079
0.771004
0.799002
0.806104
0.806465
0.821247
0.844351
0.853653
0.854665
0.873929
0.890237
0.899521
0.901567
0.94596
0.934004
0.931922
0.945577
0.970837
0.97502
0.974456
0.990987
1.00735
1.01383
1.01507
1.05585
1.04534
1.04261
1.0559
1.07839
1.08281
1.08254
1.13154
1.11373
1.10915
1.12176
1.14645
1.14866
1.14751
1.20366
1.17793
1.17255
1.18583
1.20827
1.20998
1.20919
1.25103
1.23833
1.23388
1.26366
1.26659
1.25804
1.27064
1.29705
1.2958
1.29362
1.33636
1.32317
1.31792
1.37161
1.34858
1.34001
1.36933
1.37412
1.36245
1.3774
0.579973
0.615651
0.63684
0.64038
0.656205
0.689023
0.689413
0.70896
0.733719
0.749507
0.749233
0.765992
0.790104
0.801621
0.801207
0.814359
0.837592
0.848492
0.848985
0.857276
0.883618
0.893884
0.89509
0.914659
0.927233
0.925377
0.937492
0.960641
0.968456
0.96732
0.973155
0.998989
1.00681
1.00688
1.0291
1.03725
1.03458
1.04368
1.0679
1.07472
1.07353
1.08133
1.10389
1.10018
1.10884
1.13398
1.13945
1.13733
1.14493
1.16685
1.16249
1.16854
1.19517
1.19996
1.19714
1.2221
1.227
1.22238
1.22328
1.25321
1.24662
1.25249
1.27977
1.2842
1.27942
1.30678
1.31017
1.30439
1.3118
1.33341
1.32673
1.32681
1.35756
1.34928
1.34932
0.533091
0.561798
0.580947
0.584147
0.604878
0.628263
0.629857
0.647716
0.674113
0.686549
0.687544
0.702721
0.725899
0.737128
0.737759
0.749995
0.7708
0.781938
0.782588
0.793625
0.814276
0.824961
0.82565
0.84706
0.855205
0.854581
0.865508
0.886584
0.894678
0.894211
0.902778
0.922941
0.931572
0.931254
0.953859
0.959173
0.957699
0.966424
0.987186
0.994646
0.993539
1.00302
1.0211
1.01887
1.02701
1.04865
1.05484
1.05296
1.06184
1.07969
1.07681
1.08361
1.10549
1.11116
1.10858
1.1327
1.13559
1.13206
1.14044
1.15922
1.15451
1.16068
1.18299
1.1872
1.18325
1.2097
1.21212
1.20749
1.21585
1.23401
1.22876
1.23597
1.2569
1.25036
1.25416
0.499243
0.520896
0.536496
0.539379
0.563826
0.578315
0.580358
0.596411
0.626777
0.633148
0.63476
0.64861
0.672637
0.681452
0.682526
0.694628
0.713849
0.723621
0.72421
0.740066
0.754228
0.764007
0.764403
0.793584
0.792131
0.791774
0.802269
0.823068
0.829214
0.828744
0.842609
0.856275
0.86409
0.863651
0.892128
0.889653
0.888357
0.898375
0.916553
0.922547
0.921359
0.949459
0.947309
0.945074
0.954287
0.973749
0.978225
0.976348
1.00581
1.00159
0.998526
1.00861
1.02594
1.03023
1.02808
1.057
1.05255
1.04917
1.06931
1.0749
1.06994
1.079
1.09825
1.09977
1.09646
1.12691
1.12256
1.11808
1.14792
1.14397
1.13792
1.15733
1.16584
1.15833
1.17028
0.494076
0.518026
0.534811
0.536868
0.551566
0.575401
0.577287
0.593838
0.614266
0.630316
0.631099
0.645466
0.665708
0.678629
0.678646
0.68994
0.708875
0.720239
0.720255
0.728623
0.749471
0.76022
0.759991
0.775745
0.787526
0.787156
0.796773
0.815576
0.824899
0.823858
0.830153
0.850367
0.859376
0.858046
0.875131
0.884169
0.882789
0.889781
0.909034
0.917204
0.91525
0.929867
0.940768
0.938879
0.94531
0.964801
0.972128
0.969464
0.984142
0.994281
0.991679
0.996481
1.01675
1.02346
1.01983
1.03828
1.04489
1.04136
1.04611
1.06574
1.06218
1.06627
1.08603
1.09199
1.08678
1.10707
1.11368
1.10894
1.12394
1.13375
1.12909
1.13227
1.15414
1.14955
1.15112
0.473087
0.490596
0.503367
0.506037
0.521907
0.538759
0.540789
0.554771
0.578511
0.588633
0.590274
0.602634
0.624803
0.634088
0.63516
0.645671
0.66456
0.673911
0.674471
0.686343
0.702498
0.711839
0.71155
0.732578
0.738105
0.737861
0.746691
0.76661
0.773145
0.772612
0.782759
0.798635
0.806285
0.804959
0.827007
0.830051
0.828867
0.836358
0.854991
0.860987
0.859512
0.871118
0.883707
0.881844
0.888556
0.908092
0.912921
0.910143
0.928658
0.93434
0.931609
0.938353
0.956693
0.961374
0.957857
0.981092
0.981713
0.97794
0.991094
1.00209
0.997673
1.00339
1.02285
1.0254
1.02044
1.04501
1.04591
1.04115
1.05241
1.06536
1.05991
1.07195
1.08581
1.0792
1.08611
0.469299
0.488487
0.502057
0.503654
0.512145
0.536286
0.538087
0.552658
0.567922
0.585969
0.586939
0.599799
0.617932
0.631535
0.631563
0.64146
0.659727
0.670988
0.670661
0.675466
0.69805
0.708532
0.707705
0.718034
0.733969
0.733602
0.741936
0.759079
0.769247
0.76799
0.771083
0.793033
0.802122
0.800037
0.811776
0.825049
0.823654
0.828784
0.847568
0.85625
0.853662
0.858489
0.877845
0.876066
0.880672
0.899124
0.907419
0.90414
0.909925
0.927721
0.925198
0.927572
0.94776
0.955227
0.950634
0.963518
0.974782
0.971002
0.968429
0.993427
0.990467
0.992245
1.01094
1.01814
1.01196
1.02654
1.0375
1.0325
1.03554
1.056
1.05154
1.04751
1.07459
1.07073
1.06793
0.455915
0.468553
0.478444
0.479979
0.491029
0.506438
0.507499
0.519646
0.537461
0.549259
0.549913
0.561382
0.580585
0.590373
0.590613
0.600374
0.618332
0.627245
0.626988
0.636402
0.653321
0.662044
0.661365
0.677396
0.686642
0.685561
0.693574
0.712419
0.719267
0.71787
0.725663
0.74288
0.750178
0.748239
0.765779
0.772578
0.7704
0.776628
0.79528
0.801293
0.798657
0.810289
0.822501
0.819567
0.825119
0.844394
0.849438
0.84597
0.85757
0.869409
0.865683
0.870671
0.88973
0.894349
0.889888
0.908612
0.913228
0.908526
0.91715
0.931532
0.926274
0.930209
0.949659
0.95269
0.946867
0.966879
0.971201
0.965137
0.976622
0.989039
0.982618
0.990404
1.00729
1.00015
1.00424
0.447315
0.454403
0.460759
0.462131
0.473942
0.48165
0.482275
0.491732
0.511958
0.516276
0.516644
0.526854
0.54576
0.551539
0.551828
0.562307
0.578033
0.584035
0.583821
0.599026
0.608754
0.615212
0.614783
0.640386
0.638008
0.636596
0.64543
0.664782
0.667336
0.665737
0.680814
0.690794
0.695765
0.694408
0.721335
0.716944
0.714172
0.724554
0.740683
0.743017
0.740632
0.767452
0.763538
0.759512
0.76903
0.786936
0.787562
0.78443
0.812409
0.806936
0.801908
0.813608
0.828166
0.828859
0.826046
0.853891
0.846949
0.841762
0.861859
0.865469
0.85783
0.86806
0.884933
0.882861
0.879261
0.906803
0.899835
0.893784
0.922121
0.917221
0.908942
0.928942
0.935369
0.92468
0.939106
0.445832
0.453373
0.459877
0.460782
0.468546
0.480007
0.480542
0.489914
0.503696
0.514015
0.514185
0.523808
0.540258
0.548946
0.548623
0.557282
0.573274
0.581278
0.580242
0.589199
0.604125
0.61198
0.6106
0.625316
0.633926
0.632161
0.639647
0.657007
0.663529
0.66101
0.668921
0.684632
0.691348
0.688685
0.705423
0.711826
0.708711
0.71488
0.732559
0.738069
0.734389
0.747916
0.757034
0.753409
0.758878
0.777208
0.781848
0.777341
0.791126
0.79965
0.795151
0.800402
0.818328
0.822443
0.817143
0.835557
0.839534
0.833868
0.84385
0.856094
0.850247
0.854299
0.872469
0.8755
0.868765
0.887616
0.891252
0.884261
0.898263
0.90682
0.899884
0.908896
0.923387
0.915967
0.920421
0.442607
0.446202
0.449825
0.450579
0.457509
0.463448
0.463616
0.470539
0.485133
0.489213
0.489133
0.497475
0.513054
0.517781
0.517605
0.526827
0.540321
0.545226
0.54487
0.557814
0.566628
0.571948
0.571308
0.592792
0.592058
0.590288
0.598183
0.615921
0.617756
0.615841
0.629471
0.639077
0.642994
0.641407
0.665493
0.662349
0.659098
0.668901
0.684081
0.685689
0.682906
0.705956
0.704567
0.699914
0.709022
0.726038
0.72605
0.722478
0.746689
0.743936
0.738236
0.749482
0.763731
0.76353
0.760359
0.785922
0.780256
0.77437
0.792194
0.79729
0.788801
0.798495
0.814685
0.812152
0.808285
0.833435
0.827376
0.820714
0.844784
0.843039
0.834102
0.851882
0.859273
0.848183
0.861438
0.442178
0.445611
0.449199
0.449732
0.454122
0.462067
0.462335
0.468859
0.478674
0.487122
0.487092
0.494534
0.50801
0.515214
0.514761
0.521885
0.535873
0.542395
0.541241
0.548941
0.562188
0.568598
0.567061
0.579392
0.587874
0.585875
0.592017
0.608035
0.613638
0.610894
0.618093
0.632784
0.638399
0.635314
0.650121
0.656863
0.653303
0.658711
0.675649
0.680381
0.676206
0.688334
0.697653
0.693407
0.698163
0.715836
0.719893
0.714794
0.727337
0.736154
0.730965
0.735806
0.753243
0.756621
0.750647
0.767456
0.772228
0.765868
0.775159
0.787348
0.780578
0.783895
0.80155
0.80405
0.796765
0.813924
0.818004
0.810352
0.822966
0.832079
0.824251
0.832869
0.846853
0.838426
0.84293
0.44218
0.442873
0.444124
0.444392
0.447641
0.451086
0.450974
0.455358
0.465297
0.468113
0.467746
0.47399
0.48616
0.489527
0.489015
0.496782
0.507711
0.511274
0.510792
0.52188
0.528984
0.533022
0.532319
0.550792
0.550025
0.547737
0.554997
0.570657
0.571458
0.569371
0.581888
0.590013
0.592802
0.591296
0.613145
0.609951
0.606262
0.615816
0.629419
0.629985
0.627124
0.64835
0.647035
0.641718
0.650869
0.666482
0.665493
0.66184
0.684343
0.681796
0.675417
0.686771
0.699799
0.698573
0.695636
0.71963
0.713968
0.707496
0.724679
0.729282
0.719966
0.729854
0.745023
0.741559
0.73812
0.761574
0.755257
0.748457
0.770833
0.769154
0.759885
0.776962
0.783644
0.77208
0.785052
0.442499
0.442691
0.443784
0.443975
0.445539
0.450144
0.450138
0.454065
0.460502
0.466462
0.466215
0.471512
0.481885
0.48732
0.486748
0.492375
0.503926
0.508747
0.507597
0.514391
0.525188
0.529973
0.528424
0.538842
0.546231
0.543916
0.549062
0.563235
0.567544
0.564718
0.571731
0.584209
0.588516
0.585388
0.598596
0.604773
0.600755
0.605943
0.62127
0.624838
0.620547
0.630885
0.640285
0.635474
0.640118
0.656443
0.659476
0.654155
0.665046
0.674098
0.668303
0.673537
0.689446
0.691934
0.685796
0.701425
0.706124
0.699098
0.708417
0.7196
0.711982
0.715605
0.73189
0.733605
0.72635
0.742258
0.746091
0.737989
0.74896
0.758543
0.749965
0.758931
0.771579
0.762127
0.767627
0.444563
0.443044
0.442309
0.442219
0.442551
0.443617
0.443334
0.445332
0.451538
0.452652
0.452128
0.456262
0.465166
0.466997
0.466293
0.472484
0.480728
0.482902
0.482257
0.491864
0.496803
0.499469
0.498895
0.515157
0.513225
0.510612
0.517298
0.530543
0.53019
0.528085
0.539697
0.545737
0.547258
0.546179
0.566142
0.561911
0.557968
0.567347
0.578829
0.578167
0.575615
0.596038
0.593154
0.587419
0.59664
0.6104
0.608157
0.604905
0.626802
0.622739
0.615955
0.627496
0.638806
0.636336
0.634178
0.657007
0.650084
0.643592
0.661122
0.663777
0.653907
0.664414
0.678183
0.673525
0.671012
0.693342
0.685763
0.679353
0.701658
0.697969
0.688724
0.706217
0.710798
0.698968
0.712271
0.445103
0.442906
0.442038
0.441928
0.441264
0.443017
0.442798
0.444499
0.448105
0.451633
0.451204
0.454549
0.461967
0.465653
0.464929
0.469172
0.478005
0.481404
0.480307
0.48587
0.494272
0.497699
0.496249
0.504592
0.510752
0.508389
0.512671
0.524736
0.527783
0.525169
0.531328
0.541768
0.544743
0.541898
0.552982
0.558468
0.554569
0.559352
0.572622
0.574987
0.570958
0.578222
0.588573
0.583464
0.587907
0.602318
0.604347
0.599258
0.606963
0.61748
0.611329
0.61659
0.630646
0.632192
0.626469
0.639987
0.644614
0.637601
0.645688
0.656574
0.648477
0.652725
0.667266
0.668407
0.66159
0.675491
0.679462
0.671359
0.679107
0.690303
0.681452
0.689524
0.701593
0.691811
0.697401
0.446139
0.443206
0.442224
0.4421
0.441232
0.442913
0.442812
0.444268
0.446352
0.451171
0.450923
0.453589
0.459254
0.464926
0.464301
0.466665
0.475548
0.480462
0.479159
0.480159
0.491996
0.496663
0.49447
0.498695
0.508681
0.507011
0.508976
0.519192
0.525952
0.523235
0.522999
0.537874
0.543005
0.538739
0.544669
0.55536
0.552332
0.551925
0.566315
0.572581
0.567603
0.570492
0.584328
0.580831
0.579815
0.594286
0.601289
0.595068
0.598388
0.612457
0.607957
0.605662
0.622367
0.628687
0.62016
0.628417
0.639774
0.633253
0.631667
0.649276
0.644671
0.641111
0.656707
0.664061
0.653434
0.662792
0.673769
0.66513
0.66769
0.683025
0.675996
0.67395
0.692197
0.686585
0.682073
0.449082
0.445315
0.442959
0.442566
0.440161
0.43958
0.439194
0.439007
0.440254
0.441633
0.441055
0.442652
0.447422
0.449351
0.44852
0.451487
0.457722
0.459594
0.458489
0.462894
0.46901
0.471102
0.469776
0.476614
0.481032
0.47855
0.482301
0.49216
0.49388
0.491298
0.496935
0.505159
0.506974
0.504531
0.514074
0.518089
0.514116
0.519005
0.52986
0.531067
0.527409
0.53501
0.542415
0.537112
0.541896
0.553988
0.554867
0.550296
0.55869
0.566076
0.559781
0.565427
0.577275
0.577735
0.572996
0.584794
0.588331
0.58157
0.58856
0.598708
0.590422
0.595474
0.60806
0.608208
0.602689
0.614897
0.61785
0.610411
0.618464
0.627277
0.618574
0.625621
0.636836
0.627014
0.632799
0.45002
0.44557
0.443
0.44262
0.440159
0.439279
0.438927
0.438493
0.438818
0.440766
0.440293
0.441262
0.444772
0.447982
0.447202
0.44861
0.454809
0.457865
0.456539
0.458206
0.466101
0.469029
0.466949
0.471273
0.478058
0.476025
0.477634
0.48613
0.490764
0.488035
0.489624
0.500199
0.503699
0.499813
0.506093
0.513697
0.510261
0.511071
0.522496
0.526886
0.522148
0.527199
0.536741
0.53256
0.532924
0.544843
0.549848
0.543891
0.549603
0.55934
0.554172
0.554439
0.567511
0.572033
0.564433
0.573024
0.581415
0.574589
0.577277
0.589528
0.583932
0.583236
0.595981
0.601384
0.592172
0.601629
0.609763
0.601256
0.607105
0.617752
0.610044
0.612581
0.625486
0.6186
0.618444
0.452883
0.447999
0.444457
0.443717
0.440124
0.437614
0.43702
0.435252
0.434872
0.434119
0.433363
0.433471
0.436117
0.436164
0.435222
0.437097
0.440929
0.441235
0.440125
0.443724
0.44732
0.447975
0.446972
0.453287
0.454887
0.45234
0.455767
0.463635
0.463618
0.461234
0.466761
0.472427
0.472808
0.471197
0.480349
0.481557
0.477633
0.482885
0.491315
0.490836
0.488029
0.49653
0.500078
0.494826
0.500238
0.510036
0.509026
0.505553
0.514813
0.518323
0.512231
0.518566
0.527996
0.526641
0.523612
0.534987
0.53551
0.529505
0.537267
0.544376
0.535944
0.542124
0.552808
0.550873
0.547389
0.559104
0.559181
0.553052
0.562485
0.567289
0.559173
0.567038
0.575383
0.565597
0.572259
0.453514
0.448213
0.444482
0.443761
0.440103
0.437423
0.436836
0.434867
0.433724
0.433487
0.432793
0.432345
0.434031
0.435113
0.434174
0.434783
0.438573
0.439829
0.438498
0.440249
0.444931
0.446286
0.444459
0.448096
0.452422
0.450227
0.451708
0.458387
0.461
0.458385
0.461152
0.468288
0.470063
0.466874
0.472675
0.477851
0.474269
0.476337
0.484965
0.487306
0.483152
0.488539
0.495266
0.490828
0.492741
0.502007
0.504748
0.499602
0.505517
0.512629
0.507243
0.509798
0.519402
0.521736
0.515908
0.52364
0.529497
0.523049
0.527842
0.536412
0.530042
0.532126
0.541933
0.544927
0.538079
0.546346
0.552072
0.544525
0.5509
0.558788
0.551213
0.556184
0.565275
0.557778
0.560845
0.455093
0.449501
0.445056
0.443893
0.439738
0.435874
0.434954
0.432059
0.430792
0.428225
0.427217
0.426213
0.427367
0.425709
0.424621
0.425603
0.427489
0.426341
0.42526
0.428433
0.429562
0.428943
0.428304
0.434459
0.433137
0.430585
0.433699
0.439884
0.438123
0.436061
0.441763
0.444739
0.443858
0.443159
0.452398
0.450379
0.446746
0.452228
0.458532
0.456499
0.454714
0.464365
0.463831
0.458805
0.464688
0.472513
0.469712
0.467545
0.478108
0.477251
0.471622
0.478633
0.485701
0.482643
0.481384
0.49299
0.48981
0.484994
0.494366
0.497305
0.489276
0.496224
0.504981
0.500993
0.49957
0.511467
0.507857
0.503446
0.514679
0.455263
0.449396
0.444865
0.443702
0.439688
0.435576
0.434677
0.431607
0.429616
0.427711
0.426757
0.425259
0.425617
0.424998
0.423875
0.423798
0.425717
0.425463
0.424077
0.425333
0.42788
0.427938
0.426383
0.42898
0.431499
0.429186
0.430581
0.435593
0.436515
0.43402
0.436876
0.441756
0.442266
0.439885
0.444594
0.447947
0.444417
0.447151
0.453575
0.454377
0.451052
0.454018
0.46049
0.456053
0.458924
0.466028
0.467097
0.463095
0.467314
0.473304
0.468121
0.471655
0.478948
0.479701
0.475627
0.481797
0.485781
0.480213
0.484293
0.491437
0.48509
0.488446
0.496025
0.497274
0.492623
0.499122
0.503069
0.497115
0.455151
0.44946
0.444859
0.443694
0.439143
0.435462
0.434633
0.431392
0.428897
0.427413
0.426585
0.424575
0.424303
0.42453
0.423483
0.42216
0.424114
0.424882
0.423341
0.422643
0.426319
0.427289
0.424982
0.426316
0.430079
0.428327
0.427797
0.43209
0.43521
0.432602
0.432452
0.438831
0.441078
0.437252
0.440412
0.445722
0.442809
0.442149
0.449098
0.452584
0.448147
0.450569
0.457333
0.454093
0.453258
0.460533
0.464767
0.459438
0.462406
0.469518
0.465532
0.464819
0.473007
0.477103
0.470428
0.475445
0.481921
0.476349
0.477486
0.485809
0.481901
0.480764
0.488808
0.493749
0.486037
0.491824
0.498447
0.453752
0.447711
0.442567
0.44091
0.43692
0.432253
0.430822
0.42717
0.42501
0.421867
0.420494
0.418413
0.418088
0.416023
0.414613
0.414097
0.41476
0.413175
0.411715
0.412526
0.413507
0.412399
0.411124
0.413483
0.413889
0.411408
0.412717
0.416518
0.41581
0.413527
0.416133
0.419411
0.418674
0.417108
0.421545
0.42266
0.419238
0.422172
0.427125
0.426391
0.423946
0.428231
0.431121
0.426724
0.429973
0.435755
0.435117
0.432225
0.436942
0.440095
0.435175
0.438926
0.444856
0.443959
0.44146
0.447291
0.448849
0.444202
0.448257
0.453528
0.447321
0.451035
0.457462
0.456851
0.453975
0.460014
0.452859
0.447219
0.442183
0.440364
0.436244
0.4317
0.43039
0.42641
0.423952
0.421169
0.419885
0.417199
0.416396
0.415139
0.413722
0.412198
0.412821
0.412108
0.410392
0.410201
0.411564
0.411183
0.409104
0.410389
0.41198
0.409859
0.409665
0.412704
0.413898
0.411336
0.41251
0.416097
0.416752
0.413824
0.416814
0.419836
0.416739
0.417673
0.422283
0.423835
0.420242
0.423335
0.42735
0.423745
0.424807
0.42985
0.431965
0.427766
0.431273
0.435659
0.431467
0.433154
0.438481
0.440444
0.435893
0.440198
0.444215
0.439292
0.442337
0.447372
0.442858
0.444407
0.449751
0.452365
0.447373
0.45193
0.447016
0.440906
0.43516
0.433186
0.43075
0.425209
0.42283
0.419411
0.418411
0.413635
0.411594
0.409689
0.409595
0.405823
0.404027
0.403711
0.403596
0.400593
0.399088
0.400417
0.399594
0.397323
0.39646
0.399579
0.39731
0.394598
0.39609
0.399296
0.39664
0.394645
0.397927
0.399069
0.397052
0.396411
0.401659
0.399675
0.396425
0.399852
0.403512
0.401014
0.399575
0.405318
0.40465
0.400409
0.404235
0.409028
0.406299
0.404639
0.410947
0.410337
0.405811
0.410367
0.41478
0.411925
0.411051
0.417886
0.415887
0.412253
0.418054
0.41999
0.413888
0.418429
0.423906
0.420845
0.419822
0.426808
0.44533
0.439929
0.434606
0.432172
0.429196
0.424383
0.422246
0.418262
0.416276
0.412858
0.410917
0.408254
0.407413
0.40504
0.403145
0.401826
0.401686
0.399777
0.397849
0.397769
0.39796
0.396483
0.394661
0.395442
0.39586
0.393359
0.393523
0.395633
0.395318
0.392845
0.394144
0.39643
0.395828
0.393749
0.395966
0.397649
0.394476
0.396043
0.399333
0.39936
0.396647
0.398615
0.401864
0.398136
0.399988
0.403748
0.404248
0.401191
0.403415
0.407064
0.402985
0.40525
0.409301
0.409676
0.406803
0.409932
0.412613
0.408543
0.410689
0.415143
0.41057
0.41284
0.416967
0.41794
0.414836
0.418122
0.442711
0.438847
0.434131
0.431309
0.427006
0.423501
0.421829
0.417201
0.414671
0.412077
0.410424
0.406794
0.405696
0.404295
0.402483
0.399752
0.3999
0.399044
0.396856
0.395395
0.3963
0.395767
0.39305
0.393339
0.394406
0.392444
0.390942
0.392885
0.394045
0.391383
0.391067
0.393884
0.394721
0.391272
0.393126
0.395613
0.392928
0.392385
0.395881
0.39774
0.393983
0.395788
0.399111
0.396313
0.395907
0.399753
0.402193
0.397988
0.40023
0.403882
0.400628
0.400753
0.404961
0.407435
0.402676
0.405871
0.409385
0.40519
0.406692
0.410837
0.40778
0.407822
0.412029
0.415008
0.409985
0.413516
0.430641
0.426214
0.420445
0.417845
0.416464
0.41206
0.408594
0.405601
0.404999
0.400841
0.397949
0.396178
0.396108
0.392465
0.389993
0.389418
0.38923
0.386068
0.384007
0.38441
0.383901
0.381357
0.379929
0.381301
0.380077
0.377102
0.377723
0.379677
0.377761
0.375424
0.377011
0.378365
0.376531
0.375258
0.377915
0.377609
0.3744
0.376285
0.379041
0.377508
0.375602
0.378394
0.379417
0.375603
0.37778
0.38116
0.379938
0.377831
0.380925
0.382234
0.378284
0.380763
0.38427
0.38298
0.381323
0.384914
0.385381
0.381985
0.384782
0.387616
0.382928
0.385424
0.38931
0.388457
0.386602
0.390362
0.427814
0.424255
0.419582
0.416091
0.414501
0.410547
0.407729
0.40372
0.402632
0.399596
0.396996
0.394066
0.393479
0.391372
0.388837
0.387097
0.386833
0.385063
0.382496
0.382129
0.381886
0.380417
0.377899
0.378394
0.378389
0.375787
0.375146
0.376375
0.376316
0.37357
0.374212
0.375614
0.375276
0.372664
0.374083
0.375462
0.372491
0.373146
0.375285
0.375803
0.372846
0.374252
0.376599
0.373455
0.37435
0.376796
0.377858
0.374712
0.376378
0.379033
0.375686
0.377024
0.379683
0.380752
0.377697
0.37973
0.382202
0.378702
0.380427
0.383291
0.379986
0.381341
0.384009
0.385646
0.382566
0.384711
0.422646
0.422083
0.418707
0.414532
0.409795
0.408829
0.407023
0.401886
0.399265
0.398189
0.39621
0.391728
0.390876
0.390169
0.387876
0.384017
0.384523
0.384011
0.381197
0.37854
0.379837
0.379475
0.375951
0.375325
0.376633
0.374758
0.372144
0.373601
0.374828
0.371994
0.370391
0.37304
0.374022
0.370059
0.370885
0.373311
0.370935
0.369198
0.372151
0.374076
0.370192
0.370743
0.373902
0.3717
0.370149
0.373323
0.375762
0.371616
0.372606
0.376028
0.373471
0.372386
0.375987
0.378515
0.373741
0.375883
0.379174
0.375583
0.375789
0.379551
0.377452
0.376386
0.379929
0.382864
0.378004
0.380578
0.404619
0.402664
0.397576
0.394243
0.39385
0.391542
0.387058
0.384824
0.384832
0.38214
0.378337
0.377047
0.377346
0.374556
0.371305
0.3709
0.370995
0.368229
0.365521
0.365696
0.365603
0.363167
0.36116
0.361775
0.361312
0.35802
0.358255
0.35947
0.358255
0.355561
0.356368
0.357623
0.356151
0.354372
0.355704
0.356175
0.353002
0.354073
0.355994
0.355235
0.353025
0.354341
0.355877
0.352484
0.353751
0.355982
0.355732
0.353432
0.354896
0.35673
0.353374
0.354752
0.357242
0.356991
0.355008
0.35686
0.358219
0.355244
0.356534
0.359168
0.355704
0.357118
0.359695
0.360035
0.357978
0.359996
0.40053
0.399296
0.39599
0.391344
0.390816
0.388839
0.385507
0.381747
0.381892
0.379897
0.376637
0.373771
0.374061
0.37263
0.369374
0.367621
0.367828
0.366535
0.363238
0.362947
0.362829
0.361642
0.358406
0.359179
0.358956
0.356158
0.355144
0.356204
0.356231
0.353182
0.353573
0.354526
0.354397
0.351378
0.352749
0.353573
0.350701
0.350912
0.352455
0.35307
0.349995
0.351492
0.352795
0.350021
0.35043
0.352205
0.353235
0.350164
0.351815
0.353387
0.350547
0.351417
0.353276
0.354381
0.351448
0.353218
0.354884
0.351887
0.35337
0.355188
0.352629
0.353537
0.355463
0.356931
0.354189
0.356042
0.377027
0.374575
0.368288
0.366172
0.369999
0.366147
0.359747
0.360143
0.3639
0.358909
0.353966
0.355036
0.357844
0.352739
0.349102
0.350758
0.351854
0.347235
0.344882
0.347205
0.346377
0.342571
0.341604
0.344448
0.341826
0.337867
0.339404
0.341713
0.338359
0.335945
0.338349
0.338757
0.335748
0.335063
0.338119
0.336259
0.332913
0.335106
0.337115
0.334419
0.333064
0.336145
0.335509
0.331776
0.33402
0.336511
0.334189
0.332765
0.335912
0.335528
0.332017
0.334488
0.336711
0.334512
0.333708
0.336893
0.335916
0.333316
0.336181
0.337261
0.333234
0.335615
0.338251
0.336516
0.335639
0.338767
0.370743
0.370785
0.366901
0.36294
0.363277
0.363173
0.358035
0.356768
0.357452
0.356571
0.352066
0.351545
0.352387
0.350875
0.346966
0.347081
0.347647
0.345716
0.342454
0.342899
0.343276
0.341311
0.33885
0.339342
0.339518
0.335974
0.336262
0.337191
0.336601
0.333642
0.334325
0.335415
0.334375
0.332297
0.333107
0.33389
0.330784
0.331615
0.332959
0.332703
0.330388
0.331114
0.332628
0.329601
0.330537
0.332009
0.332222
0.329967
0.330738
0.33246
0.329627
0.330604
0.332286
0.332514
0.330593
0.331622
0.333048
0.330566
0.331277
0.333331
0.330732
0.331731
0.333395
0.334101
0.332266
0.333396
0.366065
0.366843
0.365294
0.359659
0.359653
0.359913
0.356548
0.35316
0.354146
0.353908
0.350348
0.347693
0.348926
0.348705
0.344938
0.343277
0.344291
0.343942
0.339998
0.33976
0.340326
0.339853
0.335896
0.336807
0.337083
0.334211
0.333007
0.334257
0.334637
0.331325
0.331517
0.33256
0.332821
0.329398
0.33069
0.331499
0.328722
0.328639
0.330053
0.330818
0.327636
0.32888
0.329998
0.32752
0.327591
0.32913
0.330148
0.327147
0.328502
0.329766
0.327312
0.327817
0.329363
0.330453
0.327642
0.329156
0.330456
0.327862
0.328971
0.330406
0.328362
0.328901
0.33049
0.331766
0.329274
0.330825
0.338952
0.339021
0.333829
0.331403
0.334623
0.333678
0.327023
0.328144
0.331604
0.329322
0.324013
0.325567
0.328599
0.325449
0.321432
0.323185
0.325123
0.321688
0.318976
0.320953
0.321494
0.31831
0.316942
0.319199
0.318183
0.314073
0.315453
0.317597
0.315495
0.312833
0.314596
0.315695
0.313363
0.312233
0.314405
0.31384
0.31054
0.312115
0.313997
0.312307
0.310648
0.312672
0.313012
0.309618
0.311164
0.313198
0.311974
0.310313
0.312314
0.312811
0.309747
0.311347
0.313235
0.312091
0.310909
0.312959
0.313017
0.310661
0.312406
0.313716
0.310594
0.312096
0.314065
0.313401
0.312193
0.314166
0.332999
0.334356
0.332133
0.327773
0.328074
0.329851
0.325051
0.324337
0.325154
0.326255
0.321811
0.321682
0.322859
0.323014
0.318959
0.319278
0.320349
0.319749
0.316204
0.316753
0.317759
0.316758
0.313904
0.314354
0.315345
0.311956
0.31222
0.313103
0.313355
0.310335
0.310937
0.312069
0.311742
0.309399
0.309974
0.311134
0.308298
0.308931
0.310012
0.310344
0.307992
0.30842
0.309973
0.307427
0.3081
0.30918
0.309833
0.307671
0.308092
0.309738
0.30745
0.308157
0.309375
0.310001
0.308163
0.308795
0.310198
0.308161
0.308625
0.310207
0.308306
0.309009
0.310122
0.311021
0.30938
0.31004
0.327586
0.329971
0.330156
0.324123
0.323849
0.32605
0.323368
0.320261
0.321358
0.323036
0.319851
0.317265
0.319075
0.320345
0.316633
0.314838
0.316709
0.31756
0.313394
0.312931
0.314488
0.314978
0.310553
0.311396
0.312579
0.309993
0.308541
0.310073
0.311098
0.307788
0.307647
0.309142
0.309954
0.306251
0.307379
0.308602
0.306108
0.305666
0.30722
0.308309
0.305116
0.306041
0.307385
0.305304
0.305006
0.306537
0.307722
0.304833
0.305852
0.307212
0.305175
0.305292
0.306795
0.307977
0.305262
0.306522
0.30781
0.305561
0.306275
0.307658
0.306065
0.306215
0.307647
0.308867
0.306522
0.307779
0.300693
0.302594
0.299382
0.296729
0.29852
0.29998
0.29451
0.295562
0.297861
0.298239
0.293614
0.294943
0.297421
0.296677
0.292938
0.294244
0.29644
0.294904
0.292136
0.293368
0.294996
0.293165
0.291421
0.292869
0.293442
0.289856
0.29087
0.292646
0.292089
0.289505
0.290555
0.292144
0.290972
0.289491
0.290857
0.291455
0.288626
0.289606
0.291283
0.29078
0.289023
0.290191
0.291265
0.288575
0.289529
0.291144
0.291
0.289331
0.29048
0.291553
0.28919
0.290114
0.291662
0.291482
0.290145
0.291374
0.292094
0.290179
0.291113
0.292453
0.290285
0.29113
0.292561
0.292688
0.291412
0.292585
0.29605
0.297851
0.297508
0.29313
0.29391
0.295948
0.292584
0.291768
0.292977
0.294873
0.291418
0.291084
0.292558
0.293924
0.290419
0.29057
0.291986
0.292688
0.289276
0.289978
0.291223
0.291402
0.288309
0.289208
0.290414
0.287704
0.287754
0.288803
0.289737
0.286962
0.287642
0.288718
0.289191
0.286696
0.287561
0.288709
0.2864
0.286889
0.287893
0.288722
0.286458
0.287294
0.288411
0.286463
0.286971
0.287931
0.288865
0.286873
0.287697
0.288794
0.287036
0.287679
0.288613
0.289462
0.28774
0.288509
0.289569
0.287909
0.288658
0.289597
0.288219
0.288801
0.289637
0.290535
0.289092
0.289792
0.289014
0.293567
0.295417
0.289713
0.287662
0.292152
0.29104
0.287752
0.287711
0.291575
0.28961
0.286353
0.28805
0.291118
0.288227
0.285261
0.288075
0.290348
0.286532
0.284709
0.287848
0.289489
0.284804
0.284837
0.287568
0.285849
0.283465
0.285266
0.287404
0.284454
0.283152
0.285704
0.287324
0.283303
0.283895
0.28617
0.284297
0.28284
0.284896
0.286682
0.283465
0.283668
0.285866
0.284452
0.283221
0.285044
0.286813
0.283903
0.28431
0.28635
0.28485
0.284053
0.285895
0.287515
0.284537
0.285478
0.287298
0.285281
0.285243
0.287083
0.286071
0.285371
0.286946
0.288516
0.285895
0.286903
0.267568
0.270154
0.269334
0.266581
0.266889
0.269839
0.266397
0.266904
0.267799
0.27005
0.266824
0.267562
0.269055
0.270308
0.267361
0.268118
0.269883
0.270264
0.267719
0.268222
0.270252
0.270067
0.268063
0.268596
0.270371
0.267822
0.268449
0.269626
0.270459
0.268255
0.268751
0.270414
0.270558
0.268895
0.269504
0.270967
0.268914
0.269522
0.270778
0.271363
0.269704
0.270143
0.271697
0.269894
0.270501
0.271604
0.272331
0.27083
0.271277
0.272697
0.271104
0.271635
0.27275
0.273339
0.272053
0.272612
0.273748
0.27235
0.272698
0.273975
0.272681
0.27316
0.274078
0.274771
0.273637
0.274168
0.263866
0.266272
0.267335
0.263343
0.263922
0.26634
0.264604
0.2634
0.264772
0.266934
0.26477
0.263856
0.265709
0.267592
0.264989
0.264535
0.266474
0.267947
0.264977
0.265304
0.267073
0.268129
0.264981
0.266075
0.267588
0.265743
0.265303
0.266806
0.268127
0.265764
0.266147
0.267622
0.268669
0.266073
0.267215
0.268484
0.266732
0.266848
0.268215
0.269324
0.267119
0.268071
0.269263
0.267829
0.267967
0.269236
0.270294
0.268341
0.269284
0.270376
0.268984
0.269311
0.270465
0.271417
0.269609
0.270613
0.271587
0.270082
0.270741
0.271741
0.270663
0.27093