/*--------------------------------*- C++ -*----------------------------------*\
| =========                 |                                                 |
| \\      /  F ield         | OpenFOAM: The Open Source CFD Toolbox           |
|  \\    /   O peration     | Version:  v2012                                 |
|   \\  /    A nd           | Website:  www.openfoam.com                      |
|    \\/     M anipulation  |                                                 |
\*---------------------------------------------------------------------------*/
FoamFile
{
    version     2.0;
    format      ascii;
    class       volScalarField;
    location    "1e-06";
    object      kMean;
}
// * * * * * * * * * * * * * * * * * * * * * * * * * * * * * * * * * * * * * //

dimensions      [0 2 -2 0 0 0 0];


internalField   nonuniform List<scalar> 
10193
(
0.742236
0.796445
0.845013
0.837546
0.883225
0.894293
0.918266
0.917011
0.939454
0.967526
0.983475
0.979099
0.997743
1.03449
1.04061
1.0331
1.06161
1.10195
1.09578
1.08948
1.12645
1.16838
1.14674
1.17336
1.19129
1.20659
1.19225
1.21199
1.2519
1.24801
1.23399
1.27067
1.31428
1.28712
1.30535
1.3331
1.34265
1.3237
1.35274
1.39749
1.37787
1.52586
1.41719
1.43208
1.40945
1.43632
1.48205
1.46108
1.60225
1.5014
1.5125
1.48687
1.52014
1.56928
1.53546
1.55241
1.58747
1.5817
1.58134
1.60568
1.62793
1.59743
1.62875
1.68095
1.64497
1.66369
1.70249
1.68623
1.86012
1.72435
1.72598
1.7172
1.74272
1.76126
1.7251
0.679188
0.722094
0.743819
0.749383
0.783357
0.807009
0.80342
0.826715
0.874882
0.87175
0.868891
0.889546
0.924077
0.928256
0.926786
0.944267
0.974683
0.98186
0.982539
0.999222
1.02573
1.03294
1.03616
1.0903
1.07517
1.06963
1.08601
1.11933
1.11982
1.11788
1.13149
1.159
1.16258
1.16454
1.21735
1.20114
1.19506
1.20946
1.24186
1.2425
1.24167
1.22576
1.27973
1.27119
1.28522
1.32096
1.31847
1.31616
1.37378
1.35424
1.34442
1.35698
1.39214
1.38923
1.38737
1.4442
1.42386
1.41552
1.43545
1.45803
1.44267
1.45507
1.49587
1.48983
1.48604
1.54448
1.52202
1.51287
1.49186
1.5505
1.53771
1.55771
1.58101
1.5618
1.57098
0.588687
0.619867
0.640238
0.644425
0.682223
0.693771
0.693836
0.713666
0.753566
0.754314
0.754319
0.771488
0.799333
0.806619
0.806828
0.821785
0.844921
0.85423
0.85519
0.874352
0.890837
0.900126
0.902138
0.94609
0.934595
0.932459
0.946231
0.971523
0.975708
0.975089
0.991514
1.00811
1.01455
1.01576
1.05639
1.04606
1.04328
1.05665
1.07929
1.0836
1.08327
1.13338
1.11446
1.10985
1.12257
1.14747
1.14947
1.14827
1.20385
1.17866
1.17331
1.18665
1.20935
1.21088
1.21002
1.25193
1.23909
1.23462
1.26325
1.26752
1.25878
1.27147
1.29791
1.29658
1.29444
1.33748
1.32395
1.31871
1.37416
1.3493
1.34081
1.36906
1.37506
1.36327
1.37811
0.581048
0.617402
0.638499
0.642152
0.657127
0.691113
0.691383
0.710973
0.735345
0.751683
0.751457
0.768176
0.792562
0.803964
0.803683
0.816741
0.840358
0.851217
0.851728
0.859425
0.886665
0.896859
0.898063
0.916441
0.930494
0.928531
0.940668
0.964062
0.971836
0.970723
0.975907
1.00274
1.01047
1.0105
1.03184
1.04117
1.03839
1.04734
1.07207
1.07883
1.07758
1.08273
1.10837
1.10441
1.11293
1.13859
1.144
1.14177
1.14636
1.1718
1.16714
1.17279
1.2003
1.20497
1.20196
1.22616
1.23218
1.22737
1.22587
1.25885
1.25179
1.25733
1.28545
1.28966
1.28467
1.31168
1.31598
1.30992
1.31386
1.33966
1.33244
1.32993
1.36409
1.35507
1.35391
0.532751
0.561436
0.580551
0.583699
0.604595
0.627849
0.629361
0.647254
0.673773
0.686059
0.686997
0.702207
0.725438
0.736583
0.73716
0.749424
0.770253
0.78133
0.781927
0.793066
0.813669
0.824299
0.824924
0.846574
0.854506
0.853811
0.864778
0.885934
0.893921
0.893393
0.902072
0.922218
0.930772
0.930381
0.953268
0.958326
0.956778
0.965563
0.986405
0.993738
0.992552
1.00199
1.02025
1.01785
1.02606
1.04782
1.05382
1.05186
1.0607
1.07879
1.0757
1.0826
1.1046
1.11009
1.1074
1.13192
1.13441
1.13079
1.1396
1.15822
1.15323
1.15953
1.18204
1.18601
1.18193
1.20889
1.21084
1.20608
1.21442
1.23296
1.22737
1.23505
1.25589
1.24894
1.25301
0.499181
0.520639
0.536498
0.539283
0.563649
0.578333
0.580108
0.59644
0.626518
0.633153
0.634464
0.648657
0.672365
0.681505
0.682343
0.694694
0.713858
0.72372
0.724231
0.739982
0.754258
0.764087
0.764455
0.793302
0.792212
0.791714
0.802359
0.823068
0.829337
0.828801
0.842513
0.856372
0.864207
0.863713
0.891918
0.889758
0.888352
0.898431
0.916666
0.922669
0.921416
0.949481
0.947403
0.945041
0.954345
0.973888
0.978318
0.976377
1.00592
1.00167
0.998522
1.00859
1.02613
1.03033
1.02809
1.05683
1.05254
1.04909
1.06859
1.07493
1.06981
1.07884
1.09808
1.09966
1.09632
1.12675
1.12246
1.11797
1.14795
1.14387
1.13785
1.15667
1.16576
1.15821
1.16996
0.494528
0.518859
0.535541
0.537742
0.552038
0.576528
0.578327
0.594792
0.614934
0.631424
0.632316
0.646493
0.66699
0.679811
0.680033
0.691079
0.710404
0.721731
0.721811
0.729555
0.751193
0.761876
0.761649
0.776569
0.789381
0.788956
0.798442
0.817409
0.826767
0.825799
0.831414
0.852475
0.861439
0.860064
0.876299
0.886393
0.884964
0.891635
0.911318
0.919494
0.917512
0.930971
0.943269
0.941279
0.947397
0.96728
0.974668
0.971931
0.98536
0.997032
0.994312
0.998552
1.01955
1.02629
1.02245
1.04
1.04778
1.04414
1.04736
1.06881
1.06505
1.06862
1.08897
1.09494
1.08949
1.10919
1.11693
1.11196
1.12565
1.13721
1.13225
1.13387
1.15778
1.15271
1.15319
0.472913
0.490327
0.503255
0.50566
0.521664
0.538637
0.540327
0.554628
0.578231
0.58846
0.589722
0.602475
0.62439
0.633923
0.634683
0.645523
0.664351
0.673786
0.674114
0.686079
0.702289
0.71165
0.711359
0.732245
0.737973
0.73746
0.746522
0.766406
0.773006
0.772263
0.782445
0.798458
0.806089
0.804732
0.826669
0.829902
0.828431
0.836127
0.854809
0.860794
0.859081
0.870681
0.883598
0.881347
0.888297
0.907918
0.912663
0.909845
0.928038
0.934174
0.931094
0.938006
0.956581
0.961087
0.957507
0.980659
0.98141
0.977476
0.990372
1.00183
0.996978
1.00285
1.02246
1.02485
1.0199
1.0446
1.04547
1.04044
1.05174
1.06509
1.05922
1.07122
1.08542
1.07837
1.08543
0.469542
0.488981
0.502501
0.504192
0.512407
0.537066
0.538751
0.55323
0.568341
0.586803
0.587755
0.600465
0.618778
0.632357
0.632525
0.642164
0.660818
0.672032
0.671766
0.676011
0.699312
0.709693
0.708849
0.718588
0.735343
0.734897
0.742992
0.760361
0.770623
0.769387
0.771784
0.794594
0.8036
0.801437
0.812519
0.826714
0.825229
0.829882
0.849217
0.857906
0.855262
0.859405
0.879736
0.877804
0.881938
0.900886
0.909277
0.905864
0.910711
0.9298
0.927105
0.928736
0.949773
0.957313
0.95242
0.964572
0.97693
0.972966
0.969041
0.995742
0.992502
0.993541
1.01299
1.02034
1.01372
1.02784
1.04
1.0346
1.03681
1.05868
1.05379
1.04832
1.07736
1.07299
1.06911
0.455777
0.468384
0.478265
0.479761
0.490935
0.506279
0.507265
0.519462
0.537342
0.549079
0.549654
0.561186
0.580433
0.590172
0.59033
0.60016
0.618128
0.627014
0.626714
0.636222
0.653114
0.661792
0.661061
0.677199
0.686389
0.68524
0.693293
0.712186
0.718981
0.717529
0.725426
0.742648
0.749877
0.747868
0.765563
0.772266
0.77001
0.776289
0.795045
0.800946
0.798237
0.809975
0.8222
0.819128
0.824734
0.844147
0.849051
0.8455
0.857197
0.86909
0.865199
0.870275
0.889475
0.893929
0.889344
0.908311
0.91278
0.907969
0.916886
0.931215
0.925705
0.929739
0.949351
0.952237
0.946251
0.966637
0.970749
0.964519
0.976266
0.98871
0.98199
0.99021
1.00703
0.999502
1.00386
0.447217
0.454226
0.460624
0.461887
0.473803
0.481428
0.481928
0.491567
0.511781
0.515955
0.516185
0.526583
0.545398
0.551198
0.551285
0.562034
0.577555
0.583714
0.58343
0.59871
0.608204
0.614784
0.614397
0.640166
0.637592
0.635971
0.64506
0.664222
0.666906
0.665266
0.6804
0.690196
0.695229
0.693917
0.72101
0.716426
0.713546
0.724101
0.73999
0.742437
0.740065
0.767238
0.76293
0.758777
0.768519
0.786206
0.786878
0.783789
0.81222
0.806265
0.801177
0.813049
0.827472
0.828134
0.825333
0.853437
0.846133
0.840934
0.861261
0.864581
0.856843
0.86729
0.884041
0.881862
0.878406
0.90631
0.898801
0.892873
0.921889
0.916119
0.907949
0.928305
0.934192
0.923591
0.938354
0.44592
0.453566
0.460123
0.461035
0.46871
0.48038
0.480911
0.490329
0.503971
0.514544
0.514718
0.524351
0.540843
0.549608
0.549325
0.557881
0.574118
0.582047
0.581154
0.589687
0.605119
0.612864
0.611534
0.625748
0.634974
0.633261
0.640503
0.658061
0.664549
0.662237
0.669616
0.685963
0.692579
0.689862
0.706066
0.713139
0.710114
0.715851
0.73394
0.7394
0.735769
0.748496
0.758648
0.754947
0.759991
0.778692
0.783338
0.77882
0.791768
0.801445
0.79685
0.801544
0.820082
0.82418
0.818656
0.836504
0.841338
0.835601
0.84475
0.858011
0.85197
0.855484
0.874231
0.877249
0.870212
0.888842
0.89322
0.886006
0.899226
0.909062
0.901734
0.910102
0.925633
0.917741
0.921725
0.442562
0.446083
0.449685
0.450393
0.457384
0.463195
0.463312
0.470278
0.484961
0.488825
0.488688
0.497091
0.512698
0.517337
0.51705
0.52642
0.539823
0.544764
0.544301
0.557423
0.566004
0.571348
0.570764
0.59251
0.591468
0.589471
0.59764
0.615323
0.61711
0.615144
0.62894
0.63828
0.642216
0.640689
0.665108
0.661589
0.658192
0.668244
0.683281
0.684821
0.682071
0.705561
0.703701
0.698875
0.708275
0.725206
0.725053
0.721538
0.746293
0.742987
0.737171
0.748693
0.762782
0.762455
0.759333
0.785392
0.779097
0.773186
0.79148
0.796113
0.787427
0.797502
0.813713
0.81081
0.807109
0.83286
0.825974
0.819432
0.844281
0.841617
0.832699
0.851082
0.857956
0.846658
0.860484
0.442205
0.4457
0.449326
0.449847
0.45422
0.462306
0.462551
0.46913
0.478865
0.487503
0.487453
0.49492
0.508417
0.515744
0.515289
0.522326
0.536509
0.543033
0.541964
0.54934
0.56298
0.569334
0.567802
0.57976
0.588741
0.586732
0.592734
0.608888
0.614526
0.611916
0.61866
0.633857
0.639423
0.636279
0.650666
0.658003
0.654497
0.659503
0.676814
0.681516
0.677356
0.688885
0.699058
0.694722
0.699076
0.717089
0.721179
0.716027
0.727956
0.73773
0.732423
0.736747
0.754681
0.758126
0.751898
0.768283
0.773794
0.767315
0.775986
0.788965
0.782038
0.784946
0.803059
0.805653
0.797962
0.814981
0.819766
0.811787
0.823894
0.834
0.825771
0.833938
0.848794
0.839964
0.844033
0.442178
0.442821
0.444027
0.444285
0.447562
0.450899
0.45076
0.455127
0.465169
0.467786
0.467394
0.473658
0.485874
0.489105
0.488549
0.496406
0.507285
0.510822
0.510231
0.521538
0.528433
0.532428
0.531802
0.550552
0.549424
0.54701
0.554481
0.570132
0.57079
0.568648
0.581406
0.589284
0.591998
0.590581
0.61281
0.609145
0.605323
0.615184
0.628684
0.62906
0.626268
0.648012
0.646103
0.640641
0.650137
0.66572
0.664424
0.660869
0.684
0.680771
0.674295
0.686
0.698905
0.697423
0.694586
0.719179
0.712686
0.706281
0.724055
0.728125
0.718556
0.728965
0.744133
0.740164
0.736933
0.761066
0.753775
0.747136
0.770402
0.767732
0.758423
0.776247
0.782402
0.770475
0.784204
0.442487
0.442705
0.44383
0.444015
0.445579
0.450281
0.45026
0.454231
0.460621
0.466725
0.466457
0.471786
0.482182
0.487722
0.487121
0.492711
0.504374
0.509264
0.508129
0.514721
0.525778
0.530585
0.529003
0.539138
0.546913
0.544602
0.549655
0.563935
0.568306
0.565548
0.572199
0.585106
0.589368
0.586169
0.599056
0.605697
0.601743
0.606625
0.622264
0.625822
0.62149
0.631316
0.641487
0.636571
0.640911
0.657514
0.660591
0.655179
0.665541
0.675479
0.669531
0.67437
0.690694
0.693212
0.686829
0.702156
0.7074
0.700281
0.709199
0.720989
0.713181
0.716582
0.733229
0.735032
0.72737
0.743195
0.747593
0.739164
0.749727
0.760178
0.751204
0.759921
0.773259
0.763458
0.76865
0.444582
0.443041
0.442274
0.442178
0.442511
0.443497
0.443197
0.445174
0.451451
0.452407
0.451864
0.45601
0.464944
0.46663
0.465915
0.472184
0.480373
0.482473
0.481778
0.491583
0.496324
0.498919
0.498435
0.514987
0.512636
0.509972
0.516838
0.530087
0.529528
0.527383
0.539289
0.545075
0.546486
0.545519
0.565888
0.561082
0.557055
0.566801
0.578156
0.577246
0.574816
0.595858
0.592178
0.58635
0.59602
0.6097
0.607083
0.60399
0.62663
0.62165
0.614826
0.626846
0.637971
0.635156
0.633206
0.656671
0.64878
0.642445
0.660637
0.662668
0.652543
0.663676
0.677359
0.672114
0.669962
0.692954
0.684263
0.678131
0.701451
0.6966
0.687352
0.70566
0.709593
0.697375
0.711544
0.44515
0.442976
0.442113
0.442003
0.441296
0.443101
0.442871
0.444579
0.44815
0.451732
0.451283
0.454639
0.46208
0.465762
0.465015
0.469272
0.478153
0.481525
0.4804
0.485989
0.494437
0.497829
0.496342
0.504643
0.510914
0.508491
0.512796
0.524942
0.527935
0.52527
0.531484
0.541994
0.544902
0.541994
0.553088
0.558667
0.554672
0.55951
0.572907
0.575166
0.571059
0.578199
0.588845
0.583566
0.588083
0.602649
0.604546
0.599354
0.606939
0.617793
0.611428
0.616799
0.631026
0.632409
0.62655
0.640203
0.644885
0.637678
0.645936
0.656968
0.64855
0.652961
0.667712
0.668648
0.661659
0.675795
0.679765
0.671408
0.679155
0.690765
0.681488
0.689846
0.702101
0.691829
0.697744
0.446105
0.443177
0.442221
0.4421
0.441252
0.442985
0.442874
0.444359
0.446444
0.451359
0.45109
0.453775
0.45945
0.465223
0.464567
0.466903
0.475867
0.480872
0.479537
0.480373
0.492515
0.497139
0.494858
0.499014
0.509304
0.507543
0.509443
0.519674
0.526601
0.523812
0.523316
0.538618
0.543719
0.539291
0.545121
0.556261
0.553054
0.552451
0.5671
0.573437
0.568242
0.571067
0.585402
0.581655
0.580444
0.595146
0.602297
0.595789
0.599092
0.613704
0.608904
0.606257
0.623406
0.629871
0.620954
0.629119
0.641006
0.634102
0.632253
0.650588
0.645675
0.64185
0.65785
0.665375
0.654269
0.663679
0.675198
0.666004
0.668588
0.68455
0.67698
0.674607
0.693746
0.687691
0.68272
0.449115
0.445335
0.442957
0.442562
0.440137
0.439518
0.439123
0.438911
0.44017
0.441479
0.440881
0.442478
0.447274
0.449103
0.44825
0.45127
0.457482
0.459265
0.458142
0.462677
0.468678
0.47068
0.469365
0.476338
0.480595
0.478057
0.481899
0.491831
0.493347
0.490745
0.496612
0.504696
0.506343
0.503941
0.513709
0.51748
0.513427
0.518537
0.529387
0.530325
0.526696
0.534516
0.541742
0.536293
0.541336
0.553485
0.554025
0.549472
0.558131
0.565311
0.558836
0.564851
0.576687
0.57677
0.572088
0.58428
0.587451
0.580564
0.58797
0.597975
0.589292
0.594781
0.60746
0.607152
0.601673
0.614331
0.616862
0.609303
0.617738
0.626421
0.617358
0.624962
0.636072
0.625693
0.632124
0.44999
0.445531
0.442976
0.442604
0.440161
0.439307
0.438957
0.438542
0.438874
0.440883
0.440403
0.441385
0.444906
0.44819
0.447392
0.44878
0.455041
0.458147
0.45679
0.458386
0.466428
0.469369
0.467224
0.471525
0.478461
0.476409
0.477951
0.486479
0.49125
0.488455
0.489915
0.500747
0.504239
0.500217
0.506466
0.514315
0.510794
0.511435
0.523086
0.527529
0.522618
0.527676
0.537452
0.533163
0.533369
0.545489
0.550592
0.544426
0.550158
0.560198
0.554856
0.554913
0.568294
0.572902
0.564975
0.573622
0.582304
0.575214
0.577865
0.590495
0.584651
0.583794
0.596856
0.602359
0.592726
0.602379
0.610823
0.601886
0.607891
0.618842
0.610749
0.613292
0.626594
0.619397
0.619099
0.452915
0.448023
0.444468
0.443726
0.440112
0.437572
0.436979
0.435186
0.434817
0.434004
0.43324
0.433345
0.43601
0.43597
0.435018
0.436935
0.440741
0.44096
0.439852
0.443542
0.447048
0.447637
0.446657
0.453089
0.454523
0.451935
0.45546
0.463374
0.46316
0.460778
0.466479
0.472034
0.472287
0.470732
0.480083
0.481016
0.477057
0.48252
0.490919
0.490216
0.487464
0.496172
0.499501
0.494132
0.499801
0.509612
0.508312
0.504898
0.514413
0.517657
0.511428
0.518104
0.527497
0.52581
0.522908
0.534614
0.534721
0.52869
0.536767
0.54372
0.535012
0.541582
0.552298
0.549955
0.546601
0.558693
0.55828
0.55216
0.561972
0.566497
0.558175
0.566469
0.574696
0.564493
0.571674
0.453494
0.448187
0.444469
0.443762
0.440108
0.437434
0.436857
0.434898
0.433757
0.433559
0.43287
0.432429
0.434121
0.435257
0.434311
0.434907
0.438743
0.440036
0.438678
0.440401
0.445172
0.446552
0.444675
0.448271
0.452723
0.450505
0.451951
0.458662
0.461369
0.458686
0.461409
0.468669
0.470498
0.467203
0.472951
0.478297
0.474657
0.476653
0.485397
0.487821
0.48355
0.488879
0.495797
0.491258
0.493114
0.502489
0.505344
0.500056
0.505923
0.513245
0.50772
0.510219
0.520003
0.522442
0.516351
0.524098
0.530183
0.523541
0.528371
0.537128
0.5306
0.532647
0.5426
0.545723
0.538545
0.546933
0.552902
0.545062
0.55153
0.559658
0.551776
0.556849
0.566146
0.558399
0.561511
0.455089
0.449493
0.445041
0.443883
0.43971
0.435826
0.434909
0.431997
0.430749
0.428126
0.427116
0.426113
0.427284
0.42555
0.42446
0.425475
0.427337
0.426119
0.425049
0.428295
0.429335
0.428662
0.428056
0.434351
0.432832
0.430257
0.433459
0.439677
0.437742
0.435703
0.441547
0.444408
0.443414
0.442783
0.452246
0.449931
0.446277
0.451941
0.458207
0.455969
0.454247
0.464205
0.463334
0.458256
0.46435
0.472183
0.469097
0.467
0.477917
0.476678
0.470992
0.47828
0.485278
0.481916
0.48082
0.492785
0.48913
0.484329
0.494062
0.496737
0.488497
0.495805
0.504594
0.500175
0.498939
0.511236
0.507055
0.502694
0.514468
0.455293
0.449428
0.444902
0.443747
0.439717
0.435609
0.434721
0.431639
0.429634
0.42775
0.426798
0.425293
0.425653
0.425043
0.423914
0.423837
0.425774
0.425511
0.424116
0.425375
0.427948
0.427989
0.426418
0.428991
0.43157
0.42922
0.430634
0.435665
0.436577
0.43405
0.436934
0.441853
0.442326
0.43991
0.444619
0.448039
0.44444
0.447228
0.453689
0.454447
0.45107
0.453978
0.460625
0.456064
0.459011
0.466155
0.467177
0.463101
0.467314
0.473452
0.468117
0.471756
0.4791
0.479779
0.475625
0.481852
0.485917
0.480195
0.484355
0.491625
0.485059
0.488565
0.496196
0.497378
0.492614
0.499206
0.503227
0.497074
0.455148
0.449461
0.444869
0.44372
0.439147
0.435487
0.434673
0.431428
0.428931
0.427478
0.426657
0.42464
0.424375
0.424647
0.423594
0.422247
0.424238
0.425044
0.423481
0.422746
0.426499
0.427491
0.42514
0.426476
0.430313
0.428537
0.427968
0.432295
0.435491
0.432832
0.432625
0.439125
0.441401
0.437474
0.44066
0.446076
0.443105
0.442367
0.449427
0.452984
0.448427
0.450904
0.457757
0.454444
0.453518
0.460915
0.465241
0.45975
0.462785
0.470014
0.465917
0.465107
0.473466
0.477638
0.470714
0.475864
0.482482
0.476734
0.47788
0.486388
0.482371
0.481119
0.48936
0.494414
0.486351
0.492354
0.499126
0.453729
0.44767
0.442519
0.440867
0.436885
0.432193
0.430764
0.427101
0.424956
0.42178
0.420405
0.418328
0.418016
0.415898
0.414486
0.413999
0.414648
0.413007
0.411552
0.412409
0.413348
0.41219
0.410938
0.413344
0.413676
0.411164
0.41254
0.416363
0.415542
0.413256
0.415952
0.419183
0.41836
0.416835
0.421355
0.422355
0.418885
0.421945
0.426893
0.426016
0.423598
0.427976
0.43079
0.426299
0.429707
0.435504
0.434687
0.431822
0.436656
0.43972
0.434691
0.438633
0.444564
0.44347
0.441039
0.44701
0.448401
0.443689
0.447911
0.45316
0.446727
0.450689
0.457151
0.456287
0.453482
0.459702
0.452894
0.44726
0.442235
0.44043
0.436293
0.431748
0.430461
0.426469
0.424006
0.421242
0.419977
0.417274
0.416466
0.415245
0.413834
0.412286
0.412928
0.412247
0.410519
0.410309
0.41171
0.411354
0.409242
0.410515
0.412167
0.410032
0.409817
0.412868
0.41412
0.41152
0.412681
0.416321
0.417011
0.414005
0.416999
0.420106
0.416956
0.417872
0.42253
0.424135
0.420451
0.423567
0.427668
0.423997
0.425044
0.430134
0.432319
0.428
0.431549
0.436031
0.43174
0.433431
0.438819
0.440845
0.436124
0.4405
0.444637
0.43957
0.442685
0.4478
0.443186
0.44475
0.450153
0.452858
0.447643
0.452315
0.446949
0.440813
0.435054
0.433095
0.430681
0.42511
0.422725
0.419314
0.418353
0.413519
0.411477
0.409592
0.409526
0.405684
0.403891
0.403612
0.403489
0.400424
0.398936
0.400318
0.39944
0.397126
0.396297
0.399498
0.397108
0.394383
0.395937
0.399172
0.396395
0.394417
0.397788
0.398869
0.39677
0.396189
0.401555
0.3994
0.39614
0.399676
0.403331
0.40069
0.399303
0.405199
0.404353
0.400066
0.404032
0.408844
0.405926
0.404326
0.410817
0.409998
0.405423
0.410155
0.414557
0.411499
0.410727
0.417755
0.415483
0.411849
0.417872
0.419666
0.413403
0.418177
0.423691
0.420349
0.419441
0.426656
0.445364
0.439955
0.43463
0.432203
0.429224
0.424405
0.422275
0.41828
0.416287
0.41288
0.410942
0.408273
0.40743
0.405064
0.403167
0.40185
0.401715
0.399802
0.39787
0.397792
0.397995
0.396509
0.394679
0.395445
0.395899
0.393373
0.393553
0.395665
0.395351
0.392856
0.394171
0.396482
0.395859
0.393762
0.395973
0.397703
0.39448
0.396085
0.399389
0.399399
0.396654
0.398608
0.401937
0.398129
0.400037
0.403807
0.404294
0.401189
0.403407
0.40715
0.402968
0.405301
0.409375
0.409722
0.406798
0.409946
0.412694
0.408518
0.410698
0.415248
0.410532
0.4129
0.417043
0.418001
0.414819
0.418147
0.44277
0.43893
0.434225
0.431407
0.427069
0.423584
0.421937
0.417283
0.414743
0.412168
0.410531
0.40687
0.405776
0.404402
0.402594
0.399828
0.399999
0.39917
0.39697
0.395484
0.396425
0.395912
0.393162
0.393459
0.394558
0.39259
0.391054
0.393022
0.394225
0.391528
0.391194
0.394059
0.394925
0.391404
0.393296
0.395828
0.393106
0.392531
0.396082
0.397986
0.394142
0.395997
0.399361
0.396518
0.396078
0.399987
0.402481
0.398161
0.400478
0.404172
0.400845
0.400953
0.405234
0.407756
0.402836
0.406142
0.409714
0.405399
0.406965
0.411173
0.408043
0.408066
0.412362
0.415405
0.41017
0.413857
0.430547
0.426095
0.420301
0.41772
0.416366
0.411939
0.408454
0.405486
0.404913
0.400715
0.397813
0.396075
0.396026
0.392327
0.389855
0.389322
0.38913
0.385914
0.383866
0.384307
0.383775
0.381187
0.379789
0.381196
0.379919
0.376919
0.377598
0.379568
0.37757
0.375238
0.376882
0.378217
0.376314
0.375082
0.37779
0.377408
0.374168
0.376135
0.378896
0.377262
0.375384
0.378244
0.379209
0.375331
0.37761
0.381007
0.379663
0.377582
0.380756
0.382004
0.377981
0.380577
0.384098
0.382674
0.381065
0.384748
0.38511
0.381672
0.384579
0.387397
0.38256
0.385208
0.389127
0.388112
0.386296
0.390176
0.427857
0.424281
0.419603
0.416111
0.414548
0.410567
0.407749
0.403731
0.402661
0.399615
0.397013
0.394079
0.3935
0.391392
0.388851
0.387118
0.386855
0.385084
0.382507
0.382164
0.381912
0.380438
0.377909
0.378422
0.378419
0.375795
0.375169
0.376402
0.376345
0.373574
0.374252
0.37565
0.375303
0.372669
0.374112
0.375504
0.372489
0.373186
0.375324
0.375838
0.372843
0.374282
0.376652
0.373447
0.374392
0.376838
0.377901
0.374703
0.376412
0.379095
0.375669
0.377075
0.379733
0.380797
0.377685
0.379763
0.382266
0.378676
0.38048
0.383358
0.379958
0.381397
0.384063
0.385704
0.382546
0.384751
0.422711
0.422204
0.41884
0.414656
0.409867
0.408955
0.407173
0.401994
0.399354
0.398319
0.396351
0.39182
0.390979
0.390305
0.388008
0.384095
0.384637
0.384148
0.381314
0.378615
0.379965
0.379618
0.376051
0.375426
0.376776
0.374895
0.372234
0.373726
0.374987
0.37212
0.370482
0.373193
0.374196
0.37016
0.371017
0.37349
0.371084
0.3693
0.37232
0.374278
0.370311
0.370891
0.374106
0.371866
0.370264
0.373516
0.375992
0.371741
0.372779
0.376261
0.373642
0.372516
0.376209
0.378769
0.373845
0.376087
0.379433
0.375736
0.375964
0.37982
0.377655
0.376541
0.380196
0.383174
0.378118
0.380833
0.404513
0.402532
0.397407
0.394093
0.39374
0.391406
0.386886
0.384694
0.384728
0.382002
0.378177
0.376937
0.377249
0.374411
0.371152
0.370802
0.370892
0.368077
0.365378
0.365596
0.365487
0.363008
0.361028
0.361666
0.361177
0.357851
0.358145
0.359364
0.358096
0.355397
0.356254
0.357501
0.355972
0.354221
0.355581
0.35602
0.352806
0.353948
0.355869
0.355045
0.352845
0.354198
0.355723
0.352264
0.353614
0.355848
0.355529
0.353233
0.354739
0.356564
0.353136
0.354601
0.357098
0.35677
0.354803
0.356702
0.358031
0.355003
0.356359
0.359008
0.355428
0.356948
0.359538
0.359798
0.357741
0.359823
0.400648
0.399422
0.396137
0.39147
0.39094
0.388963
0.385656
0.381869
0.382016
0.380035
0.376794
0.373894
0.374179
0.37278
0.369524
0.36774
0.367949
0.36669
0.363374
0.363072
0.362959
0.361803
0.358527
0.359307
0.3591
0.356301
0.355266
0.356328
0.356388
0.353309
0.353704
0.354662
0.354561
0.351488
0.352883
0.353725
0.350825
0.351039
0.352592
0.353237
0.350105
0.351639
0.352955
0.350151
0.350568
0.352354
0.353419
0.35028
0.351977
0.353565
0.350678
0.351572
0.35344
0.354579
0.351561
0.353383
0.355079
0.352014
0.353552
0.35538
0.352777
0.353716
0.355651
0.357165
0.354319
0.356235
0.376929
0.374434
0.368098
0.36602
0.369912
0.365994
0.359555
0.360008
0.363822
0.358739
0.353775
0.354909
0.357763
0.352558
0.348923
0.350647
0.351752
0.347048
0.34472
0.347111
0.346245
0.342381
0.34146
0.344372
0.341665
0.337681
0.339289
0.341628
0.338178
0.335779
0.338253
0.338635
0.335557
0.334922
0.338046
0.336097
0.332733
0.335004
0.33702
0.334229
0.332908
0.336069
0.335356
0.331577
0.333913
0.336422
0.33399
0.332596
0.335835
0.335368
0.331808
0.334383
0.336612
0.3343
0.333542
0.336822
0.335734
0.33311
0.336095
0.337126
0.33299
0.335503
0.338161
0.33629
0.335453
0.338696
0.370756
0.37081
0.366913
0.362948
0.363277
0.363198
0.358035
0.356785
0.35745
0.356591
0.352064
0.351562
0.352391
0.35089
0.346963
0.347098
0.347659
0.345727
0.342453
0.342907
0.343294
0.341319
0.338851
0.339336
0.339539
0.335966
0.336278
0.337197
0.336616
0.333635
0.334333
0.335436
0.334386
0.332297
0.333103
0.333916
0.330773
0.331632
0.332976
0.33272
0.330382
0.331107
0.33266
0.329585
0.330555
0.332025
0.332243
0.329957
0.330728
0.332495
0.329606
0.330616
0.332307
0.332534
0.330578
0.331616
0.333082
0.330543
0.331267
0.333369
0.330702
0.331744
0.333413
0.334126
0.33224
0.333392
0.366176
0.36697
0.365444
0.359773
0.359775
0.360044
0.356691
0.353273
0.354277
0.354049
0.35049
0.347803
0.349052
0.34885
0.345067
0.343385
0.344413
0.344087
0.340111
0.339877
0.340451
0.34
0.335995
0.336935
0.337215
0.334335
0.333112
0.334379
0.334777
0.33143
0.331633
0.332683
0.332966
0.329485
0.330819
0.331634
0.328831
0.32875
0.330181
0.330966
0.327726
0.329016
0.330136
0.327631
0.327707
0.329266
0.330304
0.327238
0.328647
0.329914
0.327419
0.327943
0.329503
0.330615
0.327727
0.329301
0.330611
0.327958
0.32912
0.330563
0.328478
0.32904
0.330649
0.331951
0.329369
0.330988
0.338854
0.338901
0.333654
0.33126
0.334531
0.333546
0.326839
0.328022
0.331516
0.329175
0.323835
0.325454
0.328513
0.325292
0.321268
0.32308
0.325028
0.321524
0.318828
0.320855
0.321382
0.318142
0.316811
0.319113
0.31805
0.313906
0.31535
0.317514
0.315345
0.312685
0.314502
0.315595
0.313202
0.312106
0.314325
0.31371
0.310379
0.312018
0.313911
0.312152
0.310509
0.312589
0.312895
0.309448
0.311066
0.313115
0.31182
0.310167
0.312231
0.312691
0.309573
0.31125
0.313151
0.311932
0.310767
0.312883
0.312888
0.310495
0.31232
0.313617
0.310405
0.311998
0.313987
0.313242
0.312038
0.314092
0.333014
0.334378
0.332144
0.327774
0.328078
0.329877
0.325046
0.324351
0.325156
0.326278
0.321803
0.321697
0.322865
0.323031
0.31895
0.319294
0.320359
0.319762
0.316196
0.316765
0.317775
0.316767
0.313899
0.314353
0.315364
0.311944
0.312235
0.313109
0.313371
0.310324
0.310949
0.312086
0.311754
0.309395
0.309975
0.311157
0.308285
0.308948
0.310025
0.310361
0.307983
0.308418
0.31
0.307411
0.308117
0.309191
0.309853
0.307659
0.308087
0.309767
0.307432
0.308171
0.309389
0.310021
0.308148
0.308792
0.310226
0.30814
0.308622
0.310234
0.308283
0.309022
0.310132
0.311043
0.309356
0.310034
0.327679
0.330089
0.330296
0.324219
0.323958
0.326176
0.323501
0.320361
0.32148
0.323172
0.319979
0.317359
0.319194
0.320481
0.316746
0.314929
0.316827
0.317697
0.313491
0.313033
0.314608
0.315115
0.310633
0.31151
0.312701
0.3101
0.308627
0.310187
0.311224
0.307875
0.307743
0.309256
0.310084
0.306319
0.307493
0.308725
0.306202
0.305756
0.307337
0.308439
0.305186
0.306155
0.307508
0.305396
0.305095
0.306656
0.307854
0.304901
0.30597
0.307338
0.305259
0.305386
0.306914
0.30811
0.30532
0.306638
0.307937
0.305631
0.306386
0.307787
0.306152
0.306312
0.307775
0.309009
0.306583
0.307904
0.300604
0.302503
0.29924
0.296609
0.298427
0.299878
0.294353
0.295459
0.29777
0.298124
0.293461
0.294848
0.297338
0.296553
0.292797
0.294152
0.296357
0.294772
0.292007
0.293273
0.294906
0.293028
0.291307
0.292781
0.29334
0.289714
0.290781
0.292568
0.291974
0.28938
0.290466
0.292065
0.290845
0.28938
0.290775
0.291357
0.288492
0.28952
0.291208
0.290663
0.288906
0.290108
0.291178
0.28844
0.289445
0.291072
0.290889
0.289213
0.290398
0.291469
0.289056
0.290031
0.291593
0.291372
0.290031
0.291303
0.292008
0.290054
0.291033
0.292382
0.290148
0.29105
0.292496
0.292584
0.291292
0.292515
0.296074
0.29787
0.297521
0.293124
0.293934
0.29597
0.292579
0.291774
0.292995
0.294893
0.291409
0.291094
0.292573
0.293942
0.290408
0.290588
0.291999
0.292703
0.289264
0.290001
0.291237
0.291414
0.288299
0.289226
0.290431
0.287693
0.287769
0.288817
0.289755
0.286949
0.287667
0.288734
0.289206
0.286688
0.28758
0.288729
0.286388
0.28691
0.287909
0.28874
0.286446
0.287315
0.28843
0.286449
0.286992
0.287947
0.288885
0.28686
0.287717
0.288814
0.287021
0.287701
0.288628
0.28948
0.287727
0.288524
0.289589
0.28789
0.288679
0.289615
0.2882
0.28882
0.28965
0.290553
0.289075
0.289804
0.289066
0.293676
0.295545
0.289795
0.287731
0.292283
0.291172
0.287837
0.2878
0.29171
0.289731
0.286423
0.288151
0.291251
0.288331
0.28532
0.288184
0.290479
0.286614
0.284771
0.287962
0.289615
0.284862
0.284914
0.287685
0.285944
0.283518
0.28536
0.28752
0.284524
0.283207
0.28581
0.287443
0.283348
0.283974
0.286288
0.284381
0.28289
0.284998
0.286801
0.283514
0.283738
0.28598
0.284532
0.283269
0.285142
0.28693
0.283946
0.28438
0.286464
0.284919
0.2841
0.285994
0.287629
0.284561
0.285555
0.28741
0.285326
0.2853
0.287195
0.286137
0.285417
0.287045
0.288635
0.285914
0.286987
0.267492
0.270079
0.269218
0.266474
0.266801
0.269751
0.266258
0.266815
0.26771
0.269958
0.26669
0.267482
0.268972
0.270208
0.267235
0.268043
0.269804
0.270157
0.267607
0.268141
0.270176
0.269956
0.267965
0.268513
0.270292
0.267703
0.268379
0.269552
0.27037
0.268148
0.268677
0.270345
0.270458
0.268801
0.269425
0.270889
0.268799
0.269453
0.270708
0.271274
0.269607
0.270066
0.271629
0.269784
0.270436
0.271536
0.272249
0.270735
0.271203
0.272632
0.270999
0.271571
0.272687
0.273259
0.271965
0.272543
0.273685
0.272255
0.27263
0.273918
0.272581
0.2731
0.274019
0.2747
0.273548
0.274104
0.263937
0.266358
0.267446
0.263418
0.264005
0.266437
0.264703
0.263477
0.264865
0.267043
0.26487
0.263936
0.265805
0.267704
0.265079
0.264615
0.266569
0.268061
0.265055
0.265393
0.26717
0.268245
0.265047
0.266169
0.267691
0.265832
0.265378
0.266898
0.268233
0.265834
0.266228
0.26771
0.268775
0.266127
0.2673
0.268579
0.266804
0.266918
0.268299
0.269424
0.267172
0.268152
0.269354
0.267897
0.268033
0.269318
0.27039
0.268388
0.269363
0.270464
0.26904
0.269378
0.270545
0.27151
0.269649
0.27069
0.271672
0.270126
0.270814
0.271825
0.270717
0.270995
0.272038
0.272928
0.271355
0.272312
0.245471
0.247576
0.246382
0.244891