/*--------------------------------*- C++ -*----------------------------------*\
| =========                 |                                                 |
| \\      /  F ield         | OpenFOAM: The Open Source CFD Toolbox           |
|  \\    /   O peration     | Version:  v2012                                 |
|   \\  /    A nd           | Website:  www.openfoam.com                      |
|    \\/     M anipulation  |                                                 |
\*---------------------------------------------------------------------------*/
FoamFile
{
    version     2.0;
    format      ascii;
    class       volScalarField;
    location    "1e-06";
    object      kPrime2Mean;
}
// * * * * * * * * * * * * * * * * * * * * * * * * * * * * * * * * * * * * * //

dimensions      [0 4 -4 0 0 0 0];


internalField   nonuniform List<scalar> 
10193
(
1.77393e-06
1.81168e-06
2.80863e-07
1.02146e-06
1.23357e-06
1.86904e-06
2.44358e-07
1.97256e-06
8.66872e-06
2.83313e-06
1.00031e-06
3.16235e-06
7.65372e-06
2.35365e-06
1.11996e-06
3.08666e-06
5.37176e-06
1.02253e-06
1.37691e-06
4.00129e-06
4.48353e-06
4.48845e-07
2.27824e-06
1.4508e-05
3.23521e-06
6.45059e-07
3.70574e-06
1.02065e-05
2.12616e-06
1.68889e-06
5.39508e-06
7.29204e-06
7.13157e-07
3.12852e-06
2.04663e-05
4.04308e-06
1.10789e-06
5.32521e-06
1.16224e-05
1.6787e-06
3.28659e-06
4.73586e-05
3.75505e-06
8.98247e-07
5.64352e-06
1.53433e-05
2.40164e-06
4.06168e-06
1.43301e-08
4.33722e-06
1.17872e-06
6.6985e-06
1.53491e-05
1.28806e-06
4.07462e-06
3.30043e-05
6.56636e-06
5.76461e-06
1.83869e-05
2.16174e-05
5.87914e-06
1.5434e-05
3.55395e-05
9.93547e-06
1.10068e-05
4.52554e-05
8.32624e-06
6.02861e-06
7.41385e-05
4.18011e-06
1.97154e-06
1.20108e-05
1.58113e-05
1.19851e-06
8.34627e-06
8.07057e-07
9.21639e-07
3.23517e-07
5.95113e-07
7.18692e-07
1.06168e-06
2.45256e-07
1.00848e-06
3.59111e-06
1.14276e-06
4.83621e-07
1.48433e-06
3.19476e-06
1.12762e-06
7.22462e-07
1.84368e-06
2.77237e-06
9.2268e-07
1.09332e-06
2.43056e-06
2.54575e-06
7.07366e-07
1.66103e-06
7.00802e-06
1.987e-06
8.04899e-07
2.59393e-06
5.24267e-06
1.62126e-06
1.51824e-06
3.56727e-06
4.07464e-06
1.07684e-06
2.54543e-06
1.03808e-05
2.66678e-06
1.38764e-06
3.96979e-06
6.47896e-06
1.74839e-06
2.75883e-06
4.23872e-06
4.70878e-06
1.4696e-06
4.67019e-06
8.69303e-06
2.28446e-06
3.4252e-06
1.95859e-06
4.52641e-06
1.96426e-06
5.9436e-06
9.5927e-06
2.19468e-06
4.42211e-06
1.85215e-05
4.08833e-06
3.63316e-06
8.48582e-06
9.66137e-06
2.75541e-06
8.35041e-06
1.57841e-05
4.23276e-06
6.82577e-06
2.42004e-05
4.75676e-06
4.76465e-06
8.79847e-06
9.55555e-06
3.34084e-06
9.92228e-06
1.15011e-05
2.70578e-06
9.74903e-06
5.31852e-08
2.40343e-08
5.67573e-08
4.82755e-08
5.19472e-09
7.02568e-08
2.45017e-08
8.2662e-08
6.81283e-10
8.2568e-08
2.54035e-08
1.11261e-07
4.68309e-08
1.22485e-07
5.91804e-08
1.39138e-07
1.46264e-07
1.57723e-07
1.28673e-07
9.34738e-08
1.61684e-07
1.70415e-07
1.54703e-07
9.69229e-09
1.64115e-07
1.30123e-07
2.05605e-07
2.08053e-07
2.25936e-07
1.90733e-07
1.4621e-07
2.5893e-07
2.48643e-07
2.25081e-07
1.27617e-07
2.45087e-07
2.057e-07
2.7381e-07
3.64519e-07
2.89586e-07
2.6015e-07
1.68303e-06
2.48619e-07
2.28682e-07
3.22991e-07
4.82339e-07
3.04801e-07
2.81016e-07
1.64099e-08
2.53293e-07
2.74377e-07
3.44747e-07
5.31098e-07
3.86343e-07
3.37865e-07
4.28007e-07
2.88888e-07
2.70051e-07
5.86451e-08
3.93818e-07
2.56587e-07
3.57204e-07
3.01991e-07
2.62408e-07
3.38592e-07
6.20273e-07
2.80187e-07
3.1585e-07
3.28756e-06
2.24095e-07
3.16312e-07
2.19819e-08
3.69338e-07
3.23225e-07
2.93953e-07
5.59465e-07
1.48446e-06
1.3263e-06
1.51747e-06
4.13069e-07
2.12115e-06
1.8757e-06
1.95735e-06
1.31342e-06
2.29023e-06
2.39134e-06
2.30421e-06
2.95176e-06
2.64921e-06
2.97229e-06
2.74417e-06
3.73137e-06
3.58993e-06
3.66518e-06
2.27218e-06
4.53284e-06
4.27812e-06
4.29469e-06
1.5485e-06
5.19658e-06
4.85565e-06
4.88869e-06
5.74548e-06
5.53227e-06
5.67104e-06
3.77265e-06
6.89393e-06
6.49048e-06
6.40108e-06
3.77677e-06
7.48015e-06
7.13756e-06
6.52782e-06
8.56833e-06
8.21236e-06
8.0234e-06
9.33906e-07
9.89762e-06
8.74979e-06
8.20272e-06
1.0493e-05
1.01475e-05
9.65951e-06
1.00919e-06
1.21405e-05
1.06345e-05
8.87137e-06
1.30102e-05
1.22662e-05
1.14458e-05
8.3434e-06
1.33064e-05
1.23981e-05
3.32182e-06
1.58132e-05
1.30716e-05
1.16058e-05
1.60739e-05
1.45092e-05
1.34167e-05
1.21538e-05
1.67611e-05
1.50937e-05
2.03016e-06
1.95725e-05
1.60084e-05
4.80335e-06
2.1372e-05
1.62873e-05
1.05728e-05
5.75018e-08
6.57707e-08
7.85509e-08
1.00435e-07
3.98462e-08
8.69592e-08
1.23387e-07
1.08154e-07
5.83367e-08
1.21822e-07
1.50575e-07
1.34272e-07
1.08411e-07
1.51095e-07
1.8193e-07
1.66026e-07
1.53254e-07
1.89244e-07
2.23028e-07
1.58663e-07
1.89586e-07
2.2533e-07
2.69776e-07
1.19555e-07
2.52782e-07
3.0309e-07
2.74139e-07
2.19486e-07
2.9651e-07
3.44428e-07
2.55196e-07
2.72057e-07
3.31806e-07
3.93294e-07
1.80183e-07
3.73606e-07
4.38017e-07
3.83437e-07
3.20309e-07
4.30412e-07
5.04627e-07
5.34727e-07
3.78714e-07
5.4154e-07
4.75293e-07
3.68362e-07
5.38273e-07
6.30947e-07
6.49678e-07
4.3506e-07
6.47251e-07
5.30323e-07
4.27721e-07
6.01083e-07
7.30814e-07
3.2318e-07
7.26978e-07
8.32381e-07
3.61248e-07
5.32025e-07
8.48972e-07
6.93789e-07
4.90077e-07
7.45342e-07
9.10396e-07
3.5218e-07
8.75429e-07
1.04275e-06
1.02697e-06
5.99871e-07
1.02428e-06
4.42883e-07
5.56178e-07
1.06095e-06
6.96999e-07
2.32143e-09
3.25929e-08
5.56777e-12
4.59199e-09
1.29033e-08
1.23288e-10
3.0736e-08
5.96804e-10
3.23259e-08
6.61132e-12
4.31525e-08
1.46771e-09
3.80973e-08
1.2591e-09
1.65902e-08
3.09505e-09
2.99166e-11
5.30565e-09
1.78336e-10
1.99458e-09
2.64885e-10
2.86301e-09
1.93909e-09
3.7303e-08
3.75973e-09
2.06938e-09
5.69139e-09
1.14411e-10
8.91665e-09
1.97911e-09
2.47644e-09
3.68534e-09
6.63829e-09
3.26656e-09
2.26687e-08
6.95899e-09
7.18938e-11
4.53327e-09
4.86862e-09
7.98205e-09
3.25704e-09
5.98397e-10
5.04744e-09
8.23101e-10
5.31493e-09
7.41042e-09
4.59581e-09
2.05446e-09
6.94887e-09
4.16759e-09
1.38761e-11
2.04441e-09
1.45469e-08
6.22846e-09
1.64345e-09
6.7094e-09
1.2467e-09
1.77242e-09
2.28373e-07
5.75372e-10
8.77285e-09
6.53099e-09
1.88929e-08
7.37171e-09
4.88045e-09
1.40037e-08
3.95125e-09
2.95859e-09
1.4772e-09
6.06359e-09
1.33233e-09
1.68538e-07
6.12613e-09
5.33182e-09
3.03832e-08
9.95752e-08
3.36665e-07
2.587e-07
3.73842e-07
1.0852e-07
6.22569e-07
5.28082e-07
4.41365e-07
2.22834e-07
5.99118e-07
7.24205e-07
5.13079e-07
8.16213e-07
6.78392e-07
9.40107e-07
6.30361e-07
1.1554e-06
1.08187e-06
1.19265e-06
4.18507e-07
1.46637e-06
1.33206e-06
1.34022e-06
3.31967e-07
1.69798e-06
1.59954e-06
1.35654e-06
1.68031e-06
1.69919e-06
1.86984e-06
7.98748e-07
2.2129e-06
2.06959e-06
2.00073e-06
6.80401e-07
2.43781e-06
2.35521e-06
1.67229e-06
2.61431e-06
2.55535e-06
2.53468e-06
5.96685e-07
3.13187e-06
2.8561e-06
2.12245e-06
3.09951e-06
3.1475e-06
3.01175e-06
7.22171e-07
3.80568e-06
3.45858e-06
2.11421e-06
3.94809e-06
3.93259e-06
3.3975e-06
1.5173e-06
4.25995e-06
3.91101e-06
7.68293e-07
4.81443e-06
4.06704e-06
2.74617e-06
4.43703e-06
4.27993e-06
3.61125e-06
2.34299e-06
5.27185e-06
4.50877e-06
1.44859e-06
6.09492e-06
4.90561e-06
1.26685e-06
6.76531e-06
4.89784e-06
2.14364e-06
1.61775e-08
3.64676e-08
6.41623e-09
7.13169e-08
2.7483e-08
8.05231e-09
1.07068e-07
1.065e-08
3.95177e-08
1.5763e-08
1.52058e-07
1.31942e-08
8.73324e-08
1.45865e-08
1.14861e-07
1.00314e-08
2.43371e-08
8.45356e-09
6.49763e-08
3.01765e-08
2.51593e-08
1.98137e-08
1.81408e-08
4.80772e-08
9.7197e-09
8.43776e-08
1.3519e-08
2.47765e-08
1.02051e-08
6.40551e-08
4.22829e-08
2.00385e-08
2.26899e-08
2.5073e-08
4.78302e-08
1.18154e-08
1.01559e-07
2.33602e-08
2.21616e-08
2.249e-08
9.89539e-08
8.08491e-08
8.05237e-09
1.32766e-07
2.91666e-08
2.20378e-08
3.98641e-08
4.26716e-08
1.67279e-07
1.58678e-08
1.4262e-07
5.07478e-08
1.0879e-08
5.01408e-08
5.77626e-08
7.58636e-08
4.42388e-08
1.05684e-07
2.65933e-07
4.33582e-08
2.59649e-07
1.24079e-07
9.55428e-08
1.67644e-07
1.31675e-07
6.97728e-08
1.18337e-07
2.63992e-07
1.91433e-07
5.17171e-08
2.49982e-07
2.80776e-07
9.47983e-08
3.59203e-07
1.92062e-07
2.8999e-08
1.17598e-07
9.68216e-08
1.42178e-07
3.39075e-08
2.98247e-07
2.15308e-07
1.6018e-07
8.63622e-08
3.38536e-07
3.24822e-07
2.17601e-07
3.47621e-07
3.28339e-07
4.51292e-07
2.42968e-07
5.88546e-07
5.27302e-07
5.99122e-07
1.46239e-07
7.87252e-07
6.52159e-07
6.37044e-07
1.51622e-07
9.32547e-07
8.25004e-07
5.41922e-07
8.24388e-07
9.20542e-07
9.67186e-07
2.43264e-07
1.21223e-06
1.05726e-06
9.55874e-07
2.79742e-07
1.3787e-06
1.2312e-06
5.85081e-07
1.36512e-06
1.33146e-06
1.25364e-06
4.16859e-07
1.78526e-06
1.48792e-06
7.79401e-07
1.56974e-06
1.67989e-06
1.45227e-06
3.12975e-07
2.16937e-06
1.80617e-06
6.56903e-07
2.04954e-06
2.1279e-06
1.55796e-06
5.78487e-07
2.34249e-06
1.95738e-06
1.89278e-07
2.73028e-06
2.02936e-06
8.12423e-07
2.17773e-06
2.35684e-06
1.5044e-06
8.97179e-07
3.15585e-06
2.16019e-06
8.10831e-07
3.64688e-06
2.45946e-06
3.30389e-07
3.90906e-06
2.49355e-06
6.97737e-07
9.48917e-09
1.40612e-08
1.59746e-08
2.33301e-08
4.33507e-09
1.27789e-08
2.69254e-08
1.69271e-08
6.98604e-09
1.62516e-08
3.30546e-08
1.92224e-08
1.15872e-08
2.05217e-08
3.95534e-08
2.30762e-08
2.09836e-08
2.71436e-08
3.80977e-08
1.61979e-08
2.21333e-08
3.23655e-08
4.66773e-08
1.92798e-08
3.30016e-08
5.23788e-08
4.0002e-08
2.76131e-08
4.22255e-08
5.90977e-08
2.8155e-08
2.79874e-08
4.67431e-08
7.0003e-08
2.34477e-08
5.0886e-08
7.74979e-08
5.84184e-08
2.95663e-08
6.23777e-08
8.98633e-08
4.98192e-08
4.81285e-08
9.86167e-08
7.53846e-08
3.40491e-08
7.81866e-08
1.13467e-07
6.95722e-08
5.4262e-08
1.2031e-07
7.98514e-08
3.52155e-08
9.27507e-08
1.50877e-07
4.5877e-08
1.04795e-07
1.5906e-07
3.20297e-08
5.43758e-08
1.65798e-07
1.11773e-07
4.97617e-08
1.07685e-07
1.93048e-07
3.06758e-08
1.08615e-07
1.96522e-07
6.4891e-08
5.95032e-08
2.0379e-07
1.7003e-08
3.73809e-08
2.16863e-07
7.21678e-08
4.55864e-09
1.50758e-08
8.43607e-09
2.90044e-08
9.26905e-09
2.37592e-08
5.84593e-08
1.28579e-08
1.50575e-08
5.00066e-08
1.02401e-07
3.61053e-08
6.39938e-08
5.65093e-08
1.44017e-07
3.67517e-08
1.12097e-07
5.02706e-08
7.46027e-08
4.7061e-08
1.50841e-07
8.9668e-08
6.97317e-08
2.34961e-08
8.49098e-08
1.91829e-07
6.17511e-08
1.54501e-07
8.86168e-08
1.0531e-07
7.48562e-08
1.81083e-07
1.41348e-07
1.11444e-07
5.15293e-08
1.29822e-07
1.92928e-07
9.03558e-08
2.42667e-07
1.65891e-07
1.48391e-07
2.21323e-08
1.85425e-07
2.667e-07
1.14398e-07
2.66489e-07
2.31005e-07
1.89176e-07
1.70116e-08
2.22994e-07
2.56688e-07
1.34857e-07
2.47674e-07
2.60053e-07
2.30181e-07
1.01145e-07
3.19511e-07
3.12761e-07
1.75087e-07
3.99923e-07
4.80706e-07
2.57193e-07
3.97198e-07
4.94131e-07
3.27151e-07
1.19811e-07
5.33187e-07
3.78647e-07
2.57989e-08
6.14365e-07
4.5597e-07
1.87339e-07
6.98241e-07
5.58355e-07
2.48631e-07
3.89165e-09
1.8462e-08
2.97377e-08
3.21656e-08
1.32794e-08
6.89194e-08
6.79678e-08
8.50024e-08
3.71909e-08
1.38237e-07
1.40874e-07
1.45459e-07
1.67135e-07
2.1623e-07
2.43715e-07
1.76815e-07
3.50205e-07
2.9078e-07
4.106e-07
1.16625e-07
4.92455e-07
3.83936e-07
4.32619e-07
9.1524e-08
5.46776e-07
6.03792e-07
3.61587e-07
5.62987e-07
5.14664e-07
7.51232e-07
2.46414e-07
8.90699e-07
7.45094e-07
6.85742e-07
2.0282e-07
8.5943e-07
9.8659e-07
4.62779e-07
9.69098e-07
8.75859e-07
9.44905e-07
1.64062e-07
1.30659e-06
1.17351e-06
6.09381e-07
1.12794e-06
1.10001e-06
1.08729e-06
2.01386e-07
1.6339e-06
1.4393e-06
6.59186e-07
1.56522e-06
1.49457e-06
1.13898e-06
4.4136e-07
1.63241e-06
1.52466e-06
4.06704e-07
1.9131e-06
1.47854e-06
7.04165e-07
1.61316e-06
1.52899e-06
1.04343e-06
7.51108e-07
1.95391e-06
1.51762e-06
4.54395e-07
2.58954e-06
1.69999e-06
7.40971e-07
2.61085e-06
1.57519e-06
8.75357e-07
1.01162e-09
7.03097e-09
9.21714e-09
1.70904e-08
7.72319e-09
3.14652e-08
4.57523e-08
3.35323e-08
1.48514e-08
7.44984e-08
9.8103e-08
7.30352e-08
6.3379e-08
9.82164e-08
1.5298e-07
8.32259e-08
1.23935e-07
1.06637e-07
1.60973e-07
7.62545e-08
1.94908e-07
1.79695e-07
1.43261e-07
3.97756e-08
1.75564e-07
3.34627e-07
1.40771e-07
1.79949e-07
2.08466e-07
2.43282e-07
1.3235e-07
3.20723e-07
3.04003e-07
2.49035e-07
7.43841e-08
2.90637e-07
4.12342e-07
2.01973e-07
3.24565e-07
3.7971e-07
3.37124e-07
7.80592e-08
3.85254e-07
5.44146e-07
2.6135e-07
3.51471e-07
5.02585e-07
4.26597e-07
7.88233e-08
4.61898e-07
5.66911e-07
2.89137e-07
4.58956e-07
5.88377e-07
5.03084e-07
1.41954e-07
6.79386e-07
6.71059e-07
2.54015e-07
7.16949e-07
9.51198e-07
4.61513e-07
4.82427e-07
9.12792e-07
6.5628e-07
1.68836e-07
1.00481e-06
7.90415e-07
1.28163e-07
1.04607e-06
9.55058e-07
3.18289e-07
8.8959e-07
1.15245e-06
4.43566e-07
3.80236e-10
3.89267e-09
8.09277e-09
6.79993e-09
4.78717e-09
2.82677e-08
2.33202e-08
3.66774e-08
1.80062e-08
7.22453e-08
6.49577e-08
7.38271e-08
8.16428e-08
1.39824e-07
1.3808e-07
9.61605e-08
1.9922e-07
2.01416e-07
2.59571e-07
7.88981e-08
3.11359e-07
2.68443e-07
2.72754e-07
6.66098e-08
3.75507e-07
3.66153e-07
2.55398e-07
3.7117e-07
3.9153e-07
5.2252e-07
1.5844e-07
5.83323e-07
5.19113e-07
4.63639e-07
1.46679e-07
6.51285e-07
7.14266e-07
3.12623e-07
6.92716e-07
6.41236e-07
6.59461e-07
1.49233e-07
9.91185e-07
8.61461e-07
4.15906e-07
8.06318e-07
8.24012e-07
7.59772e-07
1.88356e-07
1.26274e-06
1.06363e-06
4.48555e-07
1.06576e-06
1.12899e-06
7.81117e-07
3.37325e-07
1.23766e-06
1.05795e-06
3.37827e-07
1.35562e-06
1.07061e-06
5.59524e-07
1.18726e-06
1.29126e-06
7.18019e-07
5.54261e-07
1.57576e-06
1.02977e-06
4.25338e-07
1.88951e-06
1.15607e-06
5.72059e-07
1.94955e-06
1.19994e-06
6.04846e-07
1.54607e-12
1.35147e-09
4.63586e-09
5.66074e-09
3.06119e-09
1.73283e-08
2.26098e-08
2.65033e-08
8.14609e-09
5.29743e-08
6.1327e-08
5.46372e-08
4.06682e-08
8.82443e-08
1.07576e-07
7.03191e-08
9.02158e-08
1.01758e-07
1.55435e-07
5.81554e-08
1.51127e-07
1.74479e-07
1.29903e-07
2.86226e-08
1.81319e-07
2.63217e-07
1.27204e-07
1.38127e-07
2.23921e-07
2.60587e-07
1.1434e-07
2.67024e-07
3.22149e-07
2.47563e-07
5.61925e-08
3.27589e-07
4.40555e-07
1.89125e-07
2.71979e-07
4.28596e-07
3.55425e-07
5.69434e-08
4.40764e-07
5.80372e-07
2.53674e-07
2.93511e-07
5.72904e-07
4.56661e-07
5.87767e-08
5.35949e-07
6.30032e-07
2.8179e-07
4.03968e-07
6.67289e-07
5.28516e-07
1.0267e-07
8.31189e-07
7.1221e-07
1.95942e-07
6.75231e-07
9.93295e-07
3.77213e-07
4.025e-07
9.79569e-07
6.72907e-07
1.30991e-07
1.11517e-06
8.43914e-07
9.37657e-08
1.02462e-06
1.04072e-06
2.58614e-07
7.87015e-07
1.28443e-06
3.60863e-07
6.80953e-11
1.12316e-10
1.06995e-09
8.16228e-10
8.09642e-10
9.37308e-09
7.43164e-09
1.35602e-08
6.9344e-09
3.44223e-08
2.91229e-08
3.70879e-08
4.35363e-08
8.0666e-08
6.90103e-08
5.60354e-08
9.88226e-08
1.32649e-07
1.4248e-07
5.3957e-08
1.72238e-07
1.86693e-07
1.6708e-07
4.32285e-08
2.32068e-07
2.31551e-07
1.75026e-07
2.47875e-07
2.89477e-07
3.43068e-07
1.08587e-07
3.99333e-07
3.62868e-07
3.04775e-07
1.03842e-07
4.30444e-07
4.88332e-07
2.31483e-07
5.00483e-07
4.83919e-07
4.44177e-07
9.10746e-08
7.29565e-07
6.02263e-07
3.13773e-07
5.85604e-07
6.23814e-07
5.24378e-07
1.19398e-07
9.65692e-07
7.53448e-07
3.45241e-07
7.95347e-07
8.16913e-07
5.34197e-07
2.61886e-07
8.24045e-07
7.03506e-07
3.02651e-07
9.72534e-07
7.23021e-07
4.76571e-07
9.22879e-07
1.02785e-06
5.25425e-07
4.31876e-07
1.14738e-06
6.90291e-07
2.88257e-07
1.35152e-06
7.78065e-07
4.85563e-07
1.42194e-06
9.01014e-07
5.20185e-07
1.52113e-10
7.36136e-12
6.13434e-10
8.41262e-10
7.89202e-10
7.20982e-09
9.21843e-09
1.22961e-08
3.78874e-09
2.97469e-08
3.44012e-08
3.13511e-08
2.43451e-08
6.64755e-08
6.99617e-08
4.43837e-08
6.2365e-08
9.03792e-08
1.13164e-07
3.90169e-08
1.13207e-07
1.48728e-07
1.0388e-07
1.43026e-08
1.72108e-07
2.01259e-07
1.04589e-07
1.03225e-07
2.17458e-07
2.41626e-07
8.23245e-08
2.16833e-07
2.93778e-07
2.13156e-07
3.20724e-08
3.41353e-07
4.10427e-07
1.4766e-07
2.24642e-07
4.20146e-07
3.1257e-07
1.60492e-08
4.75901e-07
5.63247e-07
1.86306e-07
2.43804e-07
5.73071e-07
4.09598e-07
1.45878e-08
5.95162e-07
6.30579e-07
2.03739e-07
3.4767e-07
6.91939e-07
4.60592e-07
5.61503e-08
8.4551e-07
6.4581e-07
1.17731e-07
6.12831e-07
9.14878e-07
2.63936e-07
3.39402e-07
9.914e-07
5.38331e-07
7.57013e-08
1.12526e-06
7.26462e-07
2.13043e-08
9.37921e-07
9.28925e-07
1.54103e-07
7.28578e-07
1.25836e-06
2.61983e-07
1.1048e-09
2.3596e-09
2.72682e-09
2.78161e-09
5.16614e-10
3.46916e-09
2.69262e-09
3.15522e-09
1.02165e-09
4.77739e-09
3.07669e-09
4.08441e-09
6.35819e-09
5.86754e-09
3.65646e-09
5.0034e-09
1.0866e-08
7.23334e-09
4.25955e-09
7.07316e-09
1.33147e-08
8.33666e-09
4.30527e-09
1.29729e-09
1.28473e-08
5.14761e-09
7.69526e-09
2.08852e-08
1.13363e-08
5.04801e-09
1.22242e-08
2.49373e-08
1.24075e-08
4.59527e-09
5.45148e-09
1.94346e-08
5.39009e-09
1.2408e-08
3.98055e-08
1.57886e-08
5.13484e-09
2.60576e-10
3.63913e-08
5.25818e-09
1.54344e-08
5.37174e-08
1.95489e-08
4.66973e-09
3.20959e-10
4.81357e-08
4.92459e-09
2.1758e-08
7.05718e-08
2.3138e-08
3.43513e-09
2.29141e-08
3.63245e-08
3.09584e-09
3.05405e-08
7.5958e-08
2.7516e-09
2.77293e-08
9.73741e-08
2.85044e-08
2.50442e-09
4.53837e-08
4.54875e-08
1.32188e-09
1.06098e-09
1.05062e-07
6.77117e-10
5.16825e-08
1.26328e-07
2.0237e-10
5.8981e-08
6.05316e-10
4.44977e-10
8.52032e-12
2.06613e-13
1.8794e-10
2.43573e-09
1.81359e-09
3.93669e-09
4.1316e-09
1.71012e-08
1.34165e-08
1.67569e-08
1.85519e-08
4.28418e-08
3.42564e-08
2.74212e-08
4.92161e-08
8.16002e-08
6.99977e-08
2.21235e-08
1.31383e-07
1.11221e-07
7.30519e-08
4.93371e-08
1.90028e-07
1.38177e-07
1.06289e-07
1.12769e-07
2.0582e-07
1.62638e-07
4.84541e-08
2.72094e-07
2.50789e-07
1.49786e-07
9.90815e-08
3.98693e-07
2.54238e-07
1.34762e-07
3.03686e-07
3.59049e-07
1.98882e-07
1.62174e-07
5.64999e-07
3.31367e-07
1.92619e-07
3.63943e-07
5.00141e-07
2.555e-07
2.4043e-07
7.66014e-07
4.40502e-07
1.76302e-07
5.33145e-07
6.90953e-07
3.12351e-07
2.39167e-07
7.4568e-07
3.5231e-07
1.65627e-07
8.51416e-07
4.94526e-07
2.70339e-07
6.46844e-07
8.50167e-07
3.4652e-07
3.8324e-07
1.00535e-06
3.73202e-07
3.94357e-07
1.14664e-06
4.72118e-07
2.09403e-07
1.18939e-06
5.98391e-07
2.03032e-07
5.43089e-10
2.03769e-10
1.5826e-12
9.23225e-12
2.97247e-10
1.92845e-09
2.48573e-09
4.54589e-09
3.46536e-09
1.17624e-08
1.48406e-08
1.48064e-08
1.07817e-08
3.05111e-08
3.58395e-08
2.31682e-08
2.85882e-08
5.32235e-08
5.95875e-08
2.32677e-08
5.44991e-08
8.83441e-08
8.30204e-08
3.75578e-08
9.52902e-08
1.20112e-07
7.94489e-08
5.36902e-08
1.40642e-07
1.51013e-07
5.14285e-08
1.0726e-07
1.98541e-07
1.7218e-07
6.56133e-08
1.85379e-07
2.34477e-07
1.05145e-07
1.11792e-07
2.75195e-07
2.49979e-07
1.2121e-07
2.26268e-07
3.3109e-07
1.50632e-07
1.26771e-07
3.54247e-07
3.34879e-07
1.54803e-07
2.94449e-07
4.44132e-07
1.6217e-07
1.73401e-07
4.65727e-07
4.08206e-07
1.3017e-07
3.86643e-07
4.98442e-07
1.70631e-07
2.70592e-07
6.33388e-07
2.32444e-07
1.81438e-07
5.56665e-07
5.11546e-07
1.58745e-07
4.89545e-07
6.05546e-07
2.60843e-07
3.69251e-07
7.28465e-07
2.1333e-07
2.96206e-07
8.62675e-07
2.23343e-07
4.5896e-10
7.48152e-10
2.76297e-10
1.30293e-10
3.80951e-12
4.06952e-10
4.55515e-10
1.19716e-09
1.6076e-09
6.75539e-09
5.97897e-09
7.5059e-09
8.9467e-09
2.15293e-08
1.78183e-08
1.43014e-08
2.66356e-08
3.98313e-08
3.15855e-08
1.61508e-08
5.31598e-08
5.77941e-08
3.76674e-08
3.14565e-08
8.07515e-08
7.29998e-08
5.00283e-08
6.03192e-08
1.18149e-07
8.75599e-08
4.20032e-08
1.48714e-07
1.46229e-07
8.24714e-08
6.8942e-08
1.90386e-07
1.41157e-07
6.59178e-08
1.74881e-07
2.06885e-07
1.10902e-07
1.12934e-07
2.50966e-07
1.80182e-07
9.90114e-08
2.11555e-07
2.76762e-07
1.43946e-07
1.53167e-07
3.65854e-07
2.3394e-07
1.10839e-07
3.09982e-07
3.77986e-07
1.4947e-07
1.76528e-07
3.92466e-07
1.95319e-07
1.72131e-07
4.64899e-07
2.58145e-07
1.55693e-07
3.88658e-07
4.7561e-07
1.565e-07
2.78172e-07
5.59608e-07
1.99665e-07
3.07702e-07
5.91263e-07
2.49256e-07
2.51046e-07
6.12878e-07
3.19772e-07
2.13122e-07
5.11133e-10
2.69219e-10
5.81325e-11
3.5418e-11
6.26482e-11
8.41315e-10
8.3849e-10
2.1282e-09
1.49726e-09
6.4207e-09
7.43908e-09
7.71565e-09
5.72348e-09
1.84252e-08
2.05119e-08
1.29355e-08
1.74731e-08
3.72347e-08
3.66749e-08
1.63595e-08
3.6693e-08
5.69085e-08
4.90391e-08
1.92437e-08
6.55746e-08
8.08127e-08
4.66186e-08
3.37974e-08
1.04332e-07
1.01826e-07
3.92596e-08
7.66878e-08
1.35676e-07
1.06934e-07
3.51375e-08
1.45225e-07
1.6343e-07
6.54982e-08
7.81688e-08
1.9091e-07
1.57337e-07
6.36717e-08
1.64992e-07
2.37195e-07
9.43105e-08
8.91375e-08
2.53664e-07
2.12519e-07
7.92961e-08
2.20305e-07
3.17903e-07
1.05296e-07
1.24326e-07
3.43929e-07
2.4592e-07
6.92434e-08
3.09113e-07
3.27806e-07
1.24045e-07
2.15057e-07
4.28441e-07
1.45227e-07
1.30198e-07
4.20447e-07
3.07377e-07
8.43633e-08
4.04164e-07
3.93502e-07
1.31301e-07
3.138e-07
4.91965e-07
1.60753e-07
2.36368e-07
6.03144e-07
1.69716e-07
1.90581e-10
3.09922e-10
7.58227e-11
8.75466e-13
1.22617e-11
7.01152e-11
2.26341e-10
4.81652e-10
5.45237e-10
2.63533e-09
2.93872e-09
3.52304e-09
4.01223e-09
1.02246e-08
9.29773e-09
7.57958e-09
1.4137e-08
2.12271e-08
1.6087e-08
1.13631e-08
2.87841e-08
3.52678e-08
2.30019e-08
1.49679e-08
4.51066e-08
3.8341e-08
2.93511e-08
3.71253e-08
6.79684e-08
4.4923e-08
3.26979e-08
7.14659e-08
9.49646e-08
5.43347e-08
3.73779e-08
9.90161e-08
7.45642e-08
4.94096e-08
9.21986e-08
1.32646e-07
8.00037e-08
5.68421e-08
1.39186e-07
9.1773e-08
6.85981e-08
1.14323e-07
1.77505e-07
1.04811e-07
8.13765e-08
1.87863e-07
1.13948e-07
8.77216e-08
1.78581e-07
2.50152e-07
9.96102e-08
1.02841e-07
2.32936e-07
1.21e-07
1.37971e-07
2.52964e-07
1.54971e-07
1.33564e-07
2.19383e-07
3.17754e-07
1.0964e-07
1.69464e-07
3.41281e-07
1.47296e-07
1.95707e-07
3.73762e-07
1.57295e-07
2.18249e-07
3.73115e-07
1.92058e-07
2.18028e-07
1.05373e-11
3.00969e-11
1.11753e-10
5.4825e-11
4.06293e-10
1.11186e-09
9.99261e-10
1.92471e-09
9.27513e-10
4.82405e-09
4.96041e-09
4.92324e-09
3.41326e-09
1.23808e-08
1.2687e-08
7.99212e-09
1.13441e-08
2.41917e-08
2.18899e-08
9.33716e-09
2.53019e-08
3.88722e-08
3.02622e-08
5.71091e-09
4.58061e-08
5.28242e-08
2.81809e-08
2.11376e-08
7.18315e-08
6.24906e-08
2.28713e-08
5.37908e-08
9.7681e-08
6.9606e-08
1.14198e-08
9.86786e-08
1.07351e-07
4.03844e-08
5.23754e-08
1.38781e-07
1.07538e-07
1.26408e-08
1.21219e-07
1.47191e-07
5.5771e-08
5.36164e-08
1.87333e-07
1.46751e-07
1.80132e-08
1.6154e-07
1.94856e-07
6.10471e-08
8.84331e-08
2.61881e-07
1.56359e-07
2.05798e-08
2.27762e-07
2.16639e-07
4.54455e-08
1.59641e-07
2.97127e-07
8.60784e-08
7.4367e-08
3.3141e-07
1.95826e-07
2.63329e-08
3.18187e-07
2.80251e-07
2.19856e-08
4.50201e-10
5.04228e-10
6.41198e-10
1.02484e-09
4.08568e-10
5.32717e-10
9.51858e-10
5.00569e-10
1.69444e-10
7.52801e-10
8.27066e-10
5.82993e-10
6.25014e-10
1.00862e-09
7.69273e-10
7.59788e-10
1.57171e-09
1.17691e-09
7.40247e-10
8.80592e-10
2.25442e-09
1.29504e-09
6.15177e-10
6.57136e-11
2.5321e-09
5.56421e-10
1.39682e-09
2.55277e-09
1.88672e-09
4.54453e-10
1.68706e-09
4.65693e-09
1.74574e-09
3.31002e-10
2.91144e-10
4.1702e-09
2.63739e-10
2.97563e-09
6.40175e-09
2.40512e-09
1.68932e-10
7.87916e-10
8.9767e-09
6.8924e-11
3.73495e-09
7.79032e-09
3.16973e-09
2.36342e-11
1.67838e-13
1.07178e-08
5.282e-12
5.09849e-09
1.13238e-08
3.09856e-09
8.685e-13
1.4505e-09
9.05799e-09
1.32339e-10
1.87718e-09
1.74039e-08
4.64278e-10
7.11385e-09
1.41639e-08
5.29611e-09
3.61901e-11
3.39475e-09
1.22815e-08
8.11629e-10
5.9262e-12
6.39655e-13
4.7789e-11
3.22561e-10
5.85071e-12
3.00364e-10
7.8844e-10
6.22029e-10
5.65377e-10
2.04694e-09
2.52262e-09
2.05799e-09
2.48226e-09
6.6398e-09
5.97819e-09
3.65313e-09
7.47223e-09
1.26086e-08
9.55521e-09
5.14604e-09
1.57164e-08
1.97798e-08
1.19897e-08
1.23615e-08
2.65598e-08
2.14043e-08
1.40739e-08
2.02214e-08
3.81345e-08
2.57045e-08
1.44112e-08
4.22472e-08
5.05851e-08
2.38343e-08
2.97917e-08
6.07062e-08
4.26886e-08
2.30096e-08
5.2313e-08
7.75912e-08
3.80805e-08
5.48421e-08
8.69601e-08
5.9749e-08
3.27805e-08
7.05141e-08
1.08883e-07
4.71759e-08
6.99776e-08
1.19365e-07
7.20262e-08
3.99696e-08
1.0182e-07
1.38614e-07
3.96788e-08
8.54752e-08
1.52926e-07
7.21946e-08
7.54606e-08
1.62629e-07
1.0728e-07
6.08475e-08
1.47709e-07
2.14698e-07
4.79454e-08
1.36513e-07
2.23831e-07
2.52328e-10
8.44601e-10
1.13151e-09
8.84143e-10
5.95651e-10
1.75e-09
1.69529e-09
2.32396e-09
1.39064e-09
3.70912e-09
3.85975e-09
3.54855e-09
2.54621e-09
7.69701e-09
7.82356e-09
4.7217e-09
6.0731e-09
1.38e-08
1.29112e-08
6.66513e-09
1.23848e-08
2.12021e-08
1.68588e-08
9.45809e-09
2.21864e-08
2.90575e-08
1.53609e-08
1.18338e-08
3.50206e-08
3.55679e-08
1.59232e-08
2.57589e-08
4.84287e-08
3.62218e-08
1.76814e-08
4.55537e-08
6.05973e-08
2.51108e-08
2.64411e-08
6.87788e-08
5.9015e-08
3.19387e-08
5.36656e-08
8.80701e-08
3.47033e-08
3.10975e-08
9.09683e-08
7.91302e-08
4.04012e-08
6.87852e-08
1.14394e-07
4.20463e-08
4.18644e-08
1.17642e-07
8.63284e-08
3.8621e-08
9.89562e-08
1.28843e-07
5.85578e-08
6.68254e-08
1.73084e-07
5.87343e-08
4.80129e-08
1.56642e-07
1.18468e-07
4.78191e-08
6.27413e-10
8.41226e-10
1.33345e-09
2.15383e-09
1.20995e-09
1.14738e-09
2.52097e-09
1.72637e-09
1.42627e-09
2.62081e-09
4.12557e-09
2.76361e-09
2.40652e-09
5.51273e-09
6.18545e-09
3.79917e-09
5.54018e-09
9.46765e-09
7.92953e-09
5.64025e-09
1.05877e-08
1.43169e-08
9.37488e-09
7.7026e-09
1.70291e-08
1.47015e-08
1.12396e-08
1.31005e-08
2.42213e-08
1.66178e-08
1.42423e-08
2.45958e-08
3.35262e-08
1.61355e-08
1.68684e-08
3.57472e-08
2.30894e-08
1.93048e-08
2.97354e-08
4.47052e-08
2.14752e-08
2.63192e-08
4.94273e-08
3.12178e-08
2.75605e-08
3.9432e-08
6.163e-08
2.69172e-08
3.74377e-08
6.78119e-08
3.68194e-08
3.77525e-08
5.60954e-08
8.0341e-08
2.63787e-08
4.46477e-08
8.72518e-08
3.81371e-08
5.93958e-08
8.98306e-08
5.3094e-08
5.7893e-08
7.92946e-08
1.19888e-07
3.59983e-08
7.27905e-08
2.23758e-09
4.18425e-09
5.466e-09
4.04743e-09
2.27248e-09
4.82219e-09
5.31222e-09
4.55675e-09
1.59717e-09
6.53654e-09
6.63752e-09
4.57271e-09
2.33574e-09
9.4283e-09
8.91705e-09
4.77405e-09
5.61535e-09
1.37699e-08
1.12835e-08
4.77212e-09
1.14906e-08
1.8912e-08
1.30011e-08
3.22824e-09
1.99247e-08
2.25823e-08
1.1485e-08
7.57451e-09
2.92467e-08
2.52187e-08
9.40317e-09
1.96452e-08
3.92398e-08
2.39887e-08
5.21141e-09
3.6905e-08
3.94194e-08
1.50203e-08
1.61183e-08
5.15067e-08
3.57742e-08
6.90654e-09
4.31769e-08
5.71551e-08
2.01833e-08
1.65825e-08
6.80866e-08
4.75996e-08
8.23471e-09
5.61656e-08
7.30843e-08
2.19642e-08
2.43737e-08
8.95473e-08
5.0747e-08
8.47373e-09
8.0071e-08
7.94724e-08
1.6212e-08
5.15687e-08
1.14757e-07
3.09133e-08
2.28433e-08
1.20255e-07
7.04892e-08
1.12733e-08
5.8005e-10
3.26314e-10
2.78745e-10
4.5955e-10
3.83769e-10
2.37442e-10
4.24988e-10
1.58656e-10
6.20088e-11
2.39027e-10
3.11078e-10
1.82415e-10
1.50319e-10
2.88063e-10
2.482e-10
2.8361e-10
4.0455e-10
3.07231e-10
2.07314e-10
2.65732e-10
6.16125e-10
3.27664e-10
1.71328e-10
6.97428e-12
7.50964e-10
1.02131e-10
4.42755e-10
4.89097e-10
5.65843e-10
6.98101e-11
3.70334e-10
1.30489e-09
4.7154e-10
9.61568e-11
2.11955e-11
1.44048e-09
9.20064e-12
9.09281e-10
1.53984e-09
7.50516e-10
2.32329e-11
2.56157e-11
2.68227e-09
1.90874e-11
1.17169e-09
1.67144e-09
1.06856e-09
3.12667e-13
3.83542e-11
3.64704e-09
1.38289e-10
1.25429e-09
2.66393e-09
1.04815e-09
1.01869e-11
9.09198e-11
3.21558e-09
2.87365e-10
4.25445e-11
5.36049e-09
6.80899e-10
1.79789e-09
2.82414e-09
1.83047e-09
1.40003e-10
3.16204e-10
1.67101e-09
3.35932e-09
4.20798e-09
4.58093e-09
1.94059e-09
3.35843e-09
5.61054e-09
3.19282e-09
2.50341e-09
3.9559e-09
5.51496e-09
2.83223e-09
3.01127e-09
5.50857e-09
5.90514e-09
2.80319e-09
4.7328e-09
7.61877e-09
6.26332e-09
3.84479e-09
7.47632e-09
1.01146e-08
5.94745e-09
6.93267e-09
1.11674e-08
1.01912e-08
6.01781e-09
9.00935e-09
1.55104e-08
1.01893e-08
7.86734e-09
1.4849e-08
2.01268e-08
8.37284e-09
1.38777e-08
2.23173e-08
1.53989e-08
1.03366e-08
1.94732e-08
2.93264e-08
1.21712e-08
2.11599e-08
3.00791e-08
2.02108e-08
1.41074e-08
2.64017e-08
3.99908e-08
1.44528e-08
2.98917e-08
4.05772e-08
2.28714e-08
1.92055e-08
3.58428e-08
4.99648e-08
1.23372e-08
3.56375e-08
5.21287e-08
2.11322e-08
3.63257e-08
5.44669e-08
3.3556e-08
2.86393e-08
5.35536e-08
7.61876e-08
1.65067e-08
5.63942e-08
4.24828e-09
6.89285e-09
1.00465e-08
7.57519e-09
4.61657e-09
7.12287e-09
9.51677e-09
6.44289e-09
3.56912e-09
7.72603e-09
8.87121e-09
5.09916e-09
3.27645e-09
9.1823e-09
9.15671e-09
4.51039e-09
4.79744e-09
1.14071e-08
9.63723e-09
5.08729e-09
7.68942e-09
1.39847e-08
9.45068e-09
5.35887e-09
1.21482e-08
1.61822e-08
7.64007e-09
5.76497e-09
1.75939e-08
1.66767e-08
8.05653e-09
1.05533e-08
2.30037e-08
1.50921e-08
7.57679e-09
1.95676e-08
2.60215e-08
1.09189e-08
1.01693e-08
2.93942e-08
2.29102e-08
1.09597e-08
2.09649e-08
3.58258e-08
1.39851e-08
1.14574e-08
3.65136e-08
2.98055e-08
1.37788e-08
2.58078e-08
4.43715e-08
1.68634e-08
1.44959e-08
4.55784e-08
3.22089e-08
1.3322e-08
3.57929e-08
4.74455e-08
2.00431e-08
2.32925e-08
6.56552e-08
2.2616e-08
1.64449e-08
5.7708e-08
4.53234e-08
1.68126e-08
8.86435e-10
3.26547e-10
2.04524e-10
1.89466e-10
1.0792e-09
1.86785e-10
1.98532e-10
5.8735e-11
4.07437e-10
1.74471e-10
1.35111e-10
8.86609e-11
2.03058e-10
2.07603e-10
8.99415e-11
2.17492e-10
2.52073e-10
2.12598e-10
6.23559e-11
5.86692e-10
3.33632e-10
2.12875e-10
4.56143e-11
3.92932e-10
4.25212e-10
3.18649e-11
2.76269e-10
3.56337e-10
4.21037e-10
8.45263e-12
7.6128e-10
6.35346e-10
3.52748e-10
1.32986e-11
4.05129e-10
8.72589e-10
8.81545e-13
7.59031e-10
7.49647e-10
6.09782e-10
3.0804e-12
4.38856e-10
1.37507e-09
3.47554e-11
8.87876e-10
8.64494e-10
8.97535e-10
3.70144e-11
5.58268e-10
1.82193e-09
1.3911e-10
1.30893e-09
1.21454e-09
9.78225e-10
6.40348e-11
5.42919e-10
2.01067e-09
3.17058e-10
1.35476e-09
2.17492e-09
3.86729e-10
1.59073e-09
1.40045e-09
1.67084e-09
1.86377e-10
7.67765e-10
2.0114e-09
6.94406e-09
8.59037e-09
7.32824e-09
2.45476e-09
7.71003e-09
1.07902e-08
5.58541e-09
3.86711e-09
8.17412e-09
9.55339e-09
4.13125e-09
5.12029e-09
8.95025e-09
8.37781e-09
2.94247e-09
6.24098e-09
9.10803e-09
6.59164e-09
2.69923e-09
7.93137e-09
9.90244e-09
4.86414e-09
4.8711e-09
9.92136e-09
9.03313e-09
3.87544e-09
7.63667e-09
1.22667e-08
7.56039e-09
3.93077e-09
1.12658e-08
1.47058e-08
4.97032e-09
8.46879e-09
1.55233e-08
1.06911e-08
4.9872e-09
1.38641e-08
1.96871e-08
6.91858e-09
1.05168e-08
2.00058e-08
1.32519e-08
6.42821e-09
1.79841e-08
2.56746e-08
7.55341e-09
1.44485e-08
2.61529e-08
1.40474e-08
8.09043e-09
2.37303e-08
3.13063e-08
5.21412e-09
2.00973e-08
3.24014e-08
1.13571e-08