/*--------------------------------*- C++ -*----------------------------------*\
| =========                 |                                                 |
| \\      /  F ield         | OpenFOAM: The Open Source CFD Toolbox           |
|  \\    /   O peration     | Version:  v2012                                 |
|   \\  /    A nd           | Website:  www.openfoam.com                      |
|    \\/     M anipulation  |                                                 |
\*---------------------------------------------------------------------------*/
FoamFile
{
    version     2.0;
    format      ascii;
    class       volScalarField;
    location    "1e-06";
    object      nut;
}
// * * * * * * * * * * * * * * * * * * * * * * * * * * * * * * * * * * * * * //

dimensions      [0 2 -1 0 0 0 0];


internalField   nonuniform List<scalar> 
10193
(
6.30623e-06
6.33144e-06
6.29389e-06
6.48937e-06
6.48106e-06
6.72371e-06
6.5973e-06
6.89191e-06
6.91177e-06
6.96378e-06
6.89153e-06
7.1701e-06
7.22147e-06
7.1023e-06
7.1066e-06
7.37889e-06
7.32689e-06
7.1764e-06
7.28398e-06
7.5624e-06
7.39937e-06
7.24205e-06
7.47531e-06
7.3572e-06
7.45212e-06
7.38668e-06
7.65353e-06
7.62374e-06
7.46751e-06
7.54e-06
7.79535e-06
7.62656e-06
7.44585e-06
7.68906e-06
7.62806e-06
7.61179e-06
7.5951e-06
7.88237e-06
7.75645e-06
7.59114e-06
7.77057e-06
7.06999e-06
7.7323e-06
7.68742e-06
7.96502e-06
7.86259e-06
7.68983e-06
7.86403e-06
7.09056e-06
7.79547e-06
7.78134e-06
8.06155e-06
7.91353e-06
7.73377e-06
7.98201e-06
7.90323e-06
7.84284e-06
7.91268e-06
7.99639e-06
7.93424e-06
7.85972e-06
8.15236e-06
8.00921e-06
7.83914e-06
8.10111e-06
8.01476e-06
7.93968e-06
8.07384e-06
7.39278e-06
8.00184e-06
8.05242e-06
8.17125e-06
8.07965e-06
8.03606e-06
8.30867e-06
7.44813e-06
7.54248e-06
7.84998e-06
7.84924e-06
7.93091e-06
8.02768e-06
8.2428e-06
8.26008e-06
7.84155e-06
8.37972e-06
8.54083e-06
8.52764e-06
8.31014e-06
8.62506e-06
8.72647e-06
8.71153e-06
8.56059e-06
8.8025e-06
8.84433e-06
8.88096e-06
8.76347e-06
8.99414e-06
8.97495e-06
8.39117e-06
8.9466e-06
9.11759e-06
9.07748e-06
8.82223e-06
9.10255e-06
9.1784e-06
9.17005e-06
9.01637e-06
9.23363e-06
9.2211e-06
8.67252e-06
9.16668e-06
9.32452e-06
9.3164e-06
9.067e-06
9.33255e-06
9.37053e-06
1.0053e-05
9.28227e-06
9.46816e-06
9.43693e-06
9.15817e-06
9.43263e-06
9.48512e-06
8.94105e-06
9.36006e-06
9.55662e-06
9.53579e-06
9.27148e-06
9.53713e-06
9.57137e-06
9.01603e-06
9.48441e-06
9.63174e-06
9.53992e-06
9.43721e-06
9.70448e-06
9.68534e-06
9.34867e-06
9.65403e-06
9.71357e-06
9.17157e-06
9.63148e-06
9.77152e-06
1.04204e-05
9.6351e-06
9.82783e-06
9.72297e-06
9.59205e-06
9.88178e-06
9.8542e-06
1.06552e-05
1.07831e-05
1.11063e-05
1.11358e-05
1.0826e-05
1.12987e-05
1.15383e-05
1.15917e-05
1.09457e-05
1.17218e-05
1.19085e-05
1.19322e-05
1.1624e-05
1.20299e-05
1.21581e-05
1.21649e-05
1.19638e-05
1.22456e-05
1.23175e-05
1.22305e-05
1.22141e-05
1.24595e-05
1.2477e-05
1.1556e-05
1.24169e-05
1.26171e-05
1.25994e-05
1.22566e-05
1.26034e-05
1.27113e-05
1.26035e-05
1.25142e-05
1.27533e-05
1.27801e-05
1.19709e-05
1.26894e-05
1.28812e-05
1.28597e-05
1.25675e-05
1.28699e-05
1.29464e-05
1.19148e-05
1.27975e-05
1.304e-05
1.30067e-05
1.26594e-05
1.29881e-05
1.30806e-05
1.19759e-05
1.29031e-05
1.3149e-05
1.30879e-05
1.27974e-05
1.31046e-05
1.31795e-05
1.23973e-05
1.30492e-05
1.32433e-05
1.28816e-05
1.29947e-05
1.33154e-05
1.32675e-05
1.28814e-05
1.32329e-05
1.33278e-05
1.25886e-05
1.3202e-05
1.33915e-05
1.23901e-05
1.31695e-05
1.34498e-05
1.31058e-05
1.31541e-05
1.35077e-05
1.33859e-05
1.11008e-05
1.08869e-05
1.11995e-05
1.12432e-05
1.193e-05
1.14094e-05
1.16396e-05
1.17151e-05
1.16412e-05
1.18383e-05
1.20191e-05
1.20844e-05
1.18672e-05
1.21497e-05
1.22804e-05
1.23864e-05
1.21308e-05
1.23672e-05
1.24538e-05
1.28429e-05
1.2363e-05
1.25849e-05
1.26332e-05
1.25943e-05
1.25655e-05
1.27585e-05
1.28099e-05
1.25005e-05
1.27456e-05
1.28672e-05
1.31873e-05
1.26896e-05
1.28957e-05
1.29655e-05
1.27555e-05
1.28545e-05
1.30446e-05
1.31866e-05
1.27892e-05
1.30244e-05
1.31354e-05
1.36792e-05
1.29934e-05
1.32142e-05
1.33267e-05
1.29183e-05
1.3153e-05
1.32865e-05
1.38097e-05
1.31149e-05
1.33369e-05
1.3528e-05
1.30468e-05
1.32773e-05
1.34227e-05
1.31063e-05
1.32449e-05
1.34541e-05
1.39754e-05
1.3228e-05
1.35187e-05
1.36838e-05
1.31838e-05
1.34224e-05
1.36094e-05
1.32366e-05
1.34099e-05
1.3635e-05
1.4129e-05
1.34266e-05
1.36835e-05
1.41636e-05
1.342e-05
1.37396e-05
1.40654e-05
1.23772e-05
1.15725e-05
1.16651e-05
1.16675e-05
1.35516e-05
1.1775e-05
1.18004e-05
1.18776e-05
1.29203e-05
1.2094e-05
1.20969e-05
1.22217e-05
1.24791e-05
1.23601e-05
1.2349e-05
1.25702e-05
1.24737e-05
1.24673e-05
1.24626e-05
1.35287e-05
1.25799e-05
1.26349e-05
1.26222e-05
1.40418e-05
1.27348e-05
1.27121e-05
1.28519e-05
1.29578e-05
1.28476e-05
1.28302e-05
1.37778e-05
1.29552e-05
1.29888e-05
1.2984e-05
1.39969e-05
1.30309e-05
1.29913e-05
1.3339e-05
1.31475e-05
1.30593e-05
1.30667e-05
1.47498e-05
1.31741e-05
1.3144e-05
1.34298e-05
1.33237e-05
1.3145e-05
1.31702e-05
1.49953e-05
1.33238e-05
1.32815e-05
1.38207e-05
1.3433e-05
1.33709e-05
1.34015e-05
1.41174e-05
1.32336e-05
1.3186e-05
1.50503e-05
1.34544e-05
1.34121e-05
1.38221e-05
1.36122e-05
1.35336e-05
1.36489e-05
1.41836e-05
1.33992e-05
1.33872e-05
1.49739e-05
1.36223e-05
1.35865e-05
1.53296e-05
1.37699e-05
1.37103e-05
1.47161e-05
1.98511e-05
1.96886e-05
1.9951e-05
2.00327e-05
1.94786e-05
1.98635e-05
2.02073e-05
2.02334e-05
1.91852e-05
2.02271e-05
2.05114e-05
2.05624e-05
1.99846e-05
2.05726e-05
2.07904e-05
2.08472e-05
2.04628e-05
2.08487e-05
2.10025e-05
2.08501e-05
2.0786e-05
2.10938e-05
2.11941e-05
2.00209e-05
2.10265e-05
2.13284e-05
2.13478e-05
2.07686e-05
2.12595e-05
2.14604e-05
2.13171e-05
2.1147e-05
2.14628e-05
2.15835e-05
2.04695e-05
2.13837e-05
2.16858e-05
2.16786e-05
2.12063e-05
2.16103e-05
2.17876e-05
2.0791e-05
2.15204e-05
2.18836e-05
2.18739e-05
2.13123e-05
2.17642e-05
2.19677e-05
2.08833e-05
2.16673e-05
2.20407e-05
2.19751e-05
2.15079e-05
2.19219e-05
2.21109e-05
2.10195e-05
2.18505e-05
2.21786e-05
2.17592e-05
2.17775e-05
2.22562e-05
2.22134e-05
2.16199e-05
2.20824e-05
2.22966e-05
2.12508e-05
2.20255e-05
2.23561e-05
2.14194e-05
2.19889e-05
2.24175e-05
2.2013e-05
2.19505e-05
2.24823e-05
2.23449e-05
2.0743e-05
1.98919e-05
2.01284e-05
2.02314e-05
2.08947e-05
2.00575e-05
2.03744e-05
2.04502e-05
2.03325e-05
2.04204e-05
2.06818e-05
2.08211e-05
2.04141e-05
2.07629e-05
2.09744e-05
2.1226e-05
2.0738e-05
2.10352e-05
2.12087e-05
2.17931e-05
2.10179e-05
2.12815e-05
2.14341e-05
2.14283e-05
2.12514e-05
2.15335e-05
2.16858e-05
2.11722e-05
2.14716e-05
2.16891e-05
2.22054e-05
2.1417e-05
2.16709e-05
2.18642e-05
2.1637e-05
2.16304e-05
2.19205e-05
2.22045e-05
2.15572e-05
2.18369e-05
2.20687e-05
2.25245e-05
2.18024e-05
2.21322e-05
2.23829e-05
2.17264e-05
2.20057e-05
2.22722e-05
2.26808e-05
2.19697e-05
2.23103e-05
2.26631e-05
2.1901e-05
2.21725e-05
2.24797e-05
2.20976e-05
2.21404e-05
2.24857e-05
2.30563e-05
2.21282e-05
2.25464e-05
2.28619e-05
2.21048e-05
2.23595e-05
2.27278e-05
2.22501e-05
2.23341e-05
2.27186e-05
2.3097e-05
2.23513e-05
2.27584e-05
2.32883e-05
2.23496e-05
2.28168e-05
2.33182e-05
2.65666e-05
2.58054e-05
2.59494e-05
2.60833e-05
2.59038e-05
2.55084e-05
2.5914e-05
2.58681e-05
2.49313e-05
2.56171e-05
2.59631e-05
2.60137e-05
2.52739e-05
2.58364e-05
2.61175e-05
2.62533e-05
2.56694e-05
2.60617e-05
2.62843e-05
2.63641e-05
2.59528e-05
2.62667e-05
2.64428e-05
2.57018e-05
2.61662e-05
2.65267e-05
2.6609e-05
2.58923e-05
2.63724e-05
2.66448e-05
2.67289e-05
2.62473e-05
2.65739e-05
2.67843e-05
2.5922e-05
2.64842e-05
2.68529e-05
2.69709e-05
2.63049e-05
2.67094e-05
2.69795e-05
2.74608e-05
2.66352e-05
2.70469e-05
2.71537e-05
2.64209e-05
2.68623e-05
2.71592e-05
2.68081e-05
2.67772e-05
2.72152e-05
2.73143e-05
2.66187e-05
2.70289e-05
2.73371e-05
2.64202e-05
2.69585e-05
2.73721e-05
2.69033e-05
2.68942e-05
2.74426e-05
2.75478e-05
2.67677e-05
2.7202e-05
2.75551e-05
2.66122e-05
2.71374e-05
2.75779e-05
2.80063e-05
2.71336e-05
2.7618e-05
2.75474e-05
2.70643e-05
2.76706e-05
2.77619e-05
2.7746e-05
2.6094e-05
2.61782e-05
2.63345e-05
2.76689e-05
2.57623e-05
2.61191e-05
2.61422e-05
2.6328e-05
2.58521e-05
2.61629e-05
2.63298e-05
2.58934e-05
2.60614e-05
2.63272e-05
2.67125e-05
2.60313e-05
2.62766e-05
2.65147e-05
2.74907e-05
2.6234e-05
2.6477e-05
2.67191e-05
2.71059e-05
2.64235e-05
2.67501e-05
2.70037e-05
2.64348e-05
2.66099e-05
2.68936e-05
2.77607e-05
2.65724e-05
2.68016e-05
2.71005e-05
2.72116e-05
2.67624e-05
2.71038e-05
2.75746e-05
2.67502e-05
2.69586e-05
2.72848e-05
2.80264e-05
2.69361e-05
2.73107e-05
2.77322e-05
2.69545e-05
2.71277e-05
2.74964e-05
2.81081e-05
2.71099e-05
2.75011e-05
2.80927e-05
2.71151e-05
2.73009e-05
2.77467e-05
2.76433e-05
2.72854e-05
2.77057e-05
2.87981e-05
2.73119e-05
2.77503e-05
2.82766e-05
2.7393e-05
2.75051e-05
2.80335e-05
2.77801e-05
2.74831e-05
2.79688e-05
2.86349e-05
2.75152e-05
2.79813e-05
2.89908e-05
2.75473e-05
2.80241e-05
2.88448e-05
2.37797e-05
2.04384e-05
1.99334e-05
1.98292e-05
2.50798e-05
1.95589e-05
1.93144e-05
1.91031e-05
2.25998e-05
1.90473e-05
1.87933e-05
1.89757e-05
1.99891e-05
1.8821e-05
1.86306e-05
1.9375e-05
1.90121e-05
1.84125e-05
1.8276e-05
2.13176e-05
1.86061e-05
1.835e-05
1.8336e-05
2.23866e-05
1.84477e-05
1.82249e-05
1.88217e-05
1.94441e-05
1.84857e-05
1.82982e-05
2.10949e-05
1.88775e-05
1.85956e-05
1.85765e-05
2.19529e-05
1.86393e-05
1.83491e-05
1.96424e-05
1.92511e-05
1.86276e-05
1.85645e-05
2.32195e-05
1.88035e-05
1.84643e-05
1.95834e-05
1.95422e-05
1.87459e-05
1.87528e-05
2.32198e-05
1.89871e-05
1.86231e-05
2.04201e-05
1.95071e-05
1.88334e-05
1.90081e-05
2.16385e-05
1.88477e-05
1.85404e-05
2.26021e-05
1.92439e-05
1.87731e-05
2.01078e-05
1.99389e-05
1.911e-05
1.93888e-05
2.16725e-05
1.92188e-05
1.91349e-05
2.35911e-05
1.94465e-05
1.90603e-05
2.32054e-05
1.97707e-05
1.9131e-05
2.18205e-05
4.2828e-05
4.09676e-05
4.23839e-05
3.93133e-05
3.95504e-05
4.07375e-05
3.77782e-05
4.09443e-05
3.65461e-05
3.97908e-05
3.60682e-05
4.00682e-05
3.58305e-05
3.9345e-05
3.55218e-05
3.95131e-05
3.53984e-05
3.91707e-05
3.95187e-05
3.86096e-05
3.86456e-05
3.90741e-05
3.93186e-05
3.43079e-05
3.86515e-05
3.92469e-05
3.90781e-05
3.41617e-05
3.86934e-05
3.91134e-05
3.83814e-05
3.82822e-05
3.8777e-05
3.90378e-05
3.40501e-05
3.84877e-05
3.90699e-05
3.87598e-05
3.80167e-05
3.86883e-05
3.9046e-05
3.5465e-05
3.84196e-05
3.90978e-05
3.8835e-05
3.79435e-05
3.87014e-05
3.90877e-05
3.57238e-05
3.84642e-05
3.91506e-05
3.87246e-05
3.81113e-05
3.87981e-05
3.91101e-05
3.31787e-05
3.86229e-05
3.92168e-05
3.305e-05
3.84391e-05
3.92928e-05
3.89494e-05
3.40199e-05
3.88999e-05
3.92095e-05
3.42426e-05
3.87375e-05
3.92939e-05
3.56151e-05
3.86021e-05
3.93453e-05
3.48229e-05
3.84634e-05
3.93793e-05
3.70853e-05
4.50117e-05
4.297e-05
4.28009e-05
4.30651e-05
4.26494e-05
4.12012e-05
4.1776e-05
4.14611e-05
4.03139e-05
4.01906e-05
4.06948e-05
4.06545e-05
3.92726e-05
3.96952e-05
4.01392e-05
4.03708e-05
3.91033e-05
3.9496e-05
3.98914e-05
4.01522e-05
3.90435e-05
3.93776e-05
3.97651e-05
3.9248e-05
3.90249e-05
3.95629e-05
3.97555e-05
3.85709e-05
3.90234e-05
3.94785e-05
3.97703e-05
3.87122e-05
3.90746e-05
3.95257e-05
3.88207e-05
3.886e-05
3.94127e-05
3.97217e-05
3.85775e-05
3.9007e-05
3.94994e-05
3.91349e-05
3.88322e-05
3.9447e-05
3.97388e-05
3.85983e-05
3.90324e-05
3.95733e-05
3.92974e-05
3.8895e-05
3.95295e-05
3.98292e-05
3.87152e-05
3.91282e-05
3.97189e-05
3.89274e-05
3.90241e-05
3.96704e-05
3.80651e-05
3.89366e-05
3.9693e-05
3.99658e-05
3.88696e-05
3.9266e-05
3.99206e-05
3.90335e-05
3.91592e-05
3.98577e-05
3.95206e-05
3.91054e-05
3.98459e-05
3.98941e-05
3.90175e-05
3.98563e-05
4.01181e-05
5.39738e-05
5.30852e-05
5.29858e-05
5.02786e-05
5.00938e-05
5.07218e-05
4.70805e-05
5.08731e-05
4.56109e-05
4.90671e-05
4.4267e-05
4.92854e-05
4.39152e-05
4.80756e-05
4.32801e-05
4.81706e-05
4.2987e-05
4.75313e-05
4.79932e-05
4.454e-05
4.20736e-05
4.71583e-05
4.74807e-05
4.13229e-05
4.64752e-05
4.54077e-05
4.69459e-05
4.05344e-05
4.6329e-05
4.68768e-05
4.32647e-05
4.56923e-05
4.62612e-05
4.65998e-05
4.02345e-05
4.57971e-05
4.65395e-05
4.60908e-05
4.06937e-05
4.59087e-05
4.63694e-05
4.0405e-05
4.55025e-05
4.63516e-05
4.59762e-05
4.03713e-05
4.57376e-05
4.62293e-05
4.0592e-05
4.53947e-05
4.62463e-05
4.46681e-05
4.49223e-05
4.57133e-05
4.61033e-05
3.91053e-05
4.54593e-05
4.61932e-05
3.80744e-05
4.51985e-05
4.62427e-05
4.17194e-05
3.94507e-05
4.56948e-05
4.6078e-05
4.00257e-05
4.54831e-05
4.61602e-05
4.05345e-05
4.52997e-05
4.61936e-05
4.06641e-05
4.12257e-05
4.62021e-05
4.10605e-05
5.62737e-05
5.38279e-05
5.35513e-05
5.39349e-05
5.32671e-05
5.13549e-05
5.20756e-05
5.15824e-05
5.01411e-05
4.96117e-05
5.02593e-05
5.00915e-05
4.82587e-05
4.85542e-05
4.91336e-05
4.93138e-05
4.76072e-05
4.79679e-05
4.85014e-05
4.86646e-05
4.72296e-05
4.75599e-05
4.80914e-05
4.74683e-05
4.69699e-05
4.76491e-05
4.78503e-05
4.63397e-05
4.67582e-05
4.73621e-05
4.68333e-05
4.62559e-05
4.66453e-05
4.725e-05
4.62687e-05
4.6276e-05
4.69836e-05
4.64208e-05
4.58736e-05
4.63129e-05
4.69627e-05
4.52963e-05
4.60228e-05
4.67965e-05
4.60299e-05
4.5724e-05
4.61519e-05
4.68555e-05
4.51782e-05
4.59294e-05
4.6724e-05
4.57882e-05
4.56964e-05
4.61203e-05
4.68782e-05
4.4479e-05
4.59564e-05
4.67672e-05
4.3152e-05
4.58165e-05
4.6738e-05
4.40935e-05
4.5765e-05
4.61377e-05
4.69614e-05
4.5617e-05
4.59973e-05
4.68656e-05
4.52536e-05
4.59054e-05
4.68148e-05
4.55508e-05
4.57932e-05
4.67844e-05
4.55446e-05
6.59874e-05
6.51328e-05
6.27328e-05
6.07017e-05
6.15344e-05
5.84668e-05
5.72446e-05
5.63999e-05
5.61838e-05
5.4164e-05
5.31631e-05
5.3719e-05
5.29309e-05
5.84424e-05
5.14418e-05
5.28786e-05
5.09243e-05
5.74401e-05
5.80327e-05
5.01306e-05
4.84139e-05
5.67207e-05
5.71078e-05
4.89018e-05
5.57011e-05
4.66703e-05
5.61596e-05
4.70629e-05
5.53341e-05
5.60355e-05
5.12531e-05
4.59787e-05
5.50753e-05
5.54647e-05
4.64696e-05
5.43654e-05
5.53194e-05
5.45808e-05
4.51017e-05
5.43566e-05
5.49146e-05
4.5274e-05
5.3737e-05
5.48229e-05
5.41962e-05
4.49824e-05
5.39093e-05
5.44982e-05
4.51555e-05
5.33923e-05
5.44698e-05
4.97835e-05
4.50766e-05
5.36897e-05
5.4117e-05
4.42666e-05
5.33072e-05
5.42046e-05
4.32107e-05
4.82044e-05
5.42183e-05
4.85106e-05
4.47437e-05
5.34587e-05
5.38654e-05
4.51443e-05
5.31593e-05
5.39559e-05
4.50178e-05
4.97065e-05
5.3972e-05
4.54278e-05
4.54619e-05
5.39521e-05
4.70845e-05
6.85075e-05
6.60183e-05
6.575e-05
6.62718e-05
6.52993e-05
6.31078e-05
6.40083e-05
6.33675e-05
6.14853e-05
6.07071e-05
6.15339e-05
6.12044e-05
5.88017e-05
5.90299e-05
5.97818e-05
5.97937e-05
5.76166e-05
5.79718e-05
5.86663e-05
5.85149e-05
5.68645e-05
5.72019e-05
5.78918e-05
5.69966e-05
5.63107e-05
5.71866e-05
5.66799e-05
5.54098e-05
5.58484e-05
5.66395e-05
5.49974e-05
5.50895e-05
5.44197e-05
5.62958e-05
5.44149e-05
5.49475e-05
5.58631e-05
5.34432e-05
5.43401e-05
5.32909e-05
5.56632e-05
5.27863e-05
5.43664e-05
5.53621e-05
5.22097e-05
5.39213e-05
5.28564e-05
5.52815e-05
5.21729e-05
5.40309e-05
5.50468e-05
5.13692e-05
5.36802e-05
5.416e-05
5.50794e-05
5.08541e-05
5.3887e-05
5.49094e-05
5.02009e-05
5.36505e-05
5.18338e-05
5.06033e-05
5.35571e-05
5.26322e-05
5.17203e-05
5.18638e-05
5.37548e-05
5.3557e-05
5.18924e-05
5.35961e-05
5.08948e-05
5.17806e-05
5.34324e-05
5.20895e-05
5.12181e-05
7.85976e-05
7.81176e-05
7.67586e-05
7.44695e-05
7.23861e-05
6.80268e-05
6.61613e-05
6.58466e-05
6.59681e-05
6.30239e-05
6.1859e-05
6.24749e-05
6.23186e-05
6.60885e-05
6.02028e-05
6.14996e-05
6.10194e-05
6.89808e-05
6.1747e-05
6.0445e-05
5.87045e-05
6.7864e-05
6.82642e-05
5.93086e-05
6.64361e-05
5.52207e-05
6.67821e-05
5.62408e-05
6.5837e-05
6.66986e-05
5.545e-05
5.3955e-05
6.53794e-05
6.57509e-05
5.53651e-05
6.43692e-05
6.55756e-05
6.43725e-05
5.35057e-05
6.42406e-05
6.48503e-05
5.28252e-05
6.33355e-05
6.47221e-05
6.36729e-05
5.24023e-05
6.34517e-05
6.40892e-05
5.21188e-05
6.26879e-05
6.4047e-05
6.27903e-05
5.18803e-05
6.29743e-05
6.3351e-05
5.15526e-05
5.85344e-05
6.34685e-05
5.05927e-05
5.10199e-05
6.34607e-05
6.2411e-05
5.20149e-05
6.24259e-05
6.27669e-05
5.29067e-05
6.0201e-05
6.28741e-05
5.15729e-05
5.17472e-05
6.28803e-05
5.20726e-05
5.25689e-05
6.28327e-05
5.21734e-05
8.10668e-05
7.88138e-05
7.8687e-05
7.93473e-05
7.82957e-05
7.58859e-05
7.6997e-05
7.62758e-05
7.39697e-05
7.31e-05
7.41355e-05
7.36305e-05
7.06697e-05
7.09057e-05
7.18719e-05
7.1581e-05
6.89876e-05
6.93784e-05
7.02693e-05
6.96668e-05
6.78528e-05
6.82103e-05
6.90521e-05
6.77938e-05
6.69654e-05
6.81206e-05
6.8044e-05
6.57483e-05
6.62459e-05
6.72598e-05
6.68766e-05
6.52147e-05
6.57151e-05
6.66283e-05
6.52452e-05
6.48813e-05
6.60653e-05
6.5977e-05
6.40405e-05
6.46063e-05
6.56292e-05
6.5798e-05
6.39362e-05
6.52082e-05
6.51725e-05
6.32926e-05
6.38343e-05
6.49166e-05
6.50802e-05
6.3306e-05
6.45934e-05
6.44567e-05
6.27882e-05
6.33463e-05
6.44008e-05
6.31063e-05
6.29256e-05
6.41848e-05
6.38838e-05
6.2563e-05
6.40044e-05
6.39487e-05
6.23658e-05
6.2831e-05
6.39118e-05
6.26252e-05
6.25182e-05
6.37718e-05
6.3941e-05
6.22898e-05
6.36272e-05
6.33245e-05
6.20339e-05
6.34975e-05
6.33608e-05
8.37517e-05
7.95823e-05
7.90559e-05
7.98987e-05
8.08295e-05
7.65345e-05
7.73598e-05
7.69424e-05
7.64379e-05
7.36371e-05
7.45045e-05
7.454e-05
7.26948e-05
7.13454e-05
7.22644e-05
7.30872e-05
7.02353e-05
6.97463e-05
7.07169e-05
7.2264e-05
6.86236e-05
6.85098e-05
6.96779e-05
6.98031e-05
6.75018e-05
6.8449e-05
6.91783e-05
6.73678e-05
6.66471e-05
6.76859e-05
6.79267e-05
6.60742e-05
6.60195e-05
6.6302e-05
6.67928e-05
6.54056e-05
6.64321e-05
6.72631e-05
6.5291e-05
6.49659e-05
6.62459e-05
6.68078e-05
6.4554e-05
6.55741e-05
6.5803e-05
6.46949e-05
6.42213e-05
6.52339e-05
6.60015e-05
6.39404e-05
6.5008e-05
6.39782e-05
6.40381e-05
6.37154e-05
6.35678e-05
6.28178e-05
6.34825e-05
6.2959e-05
6.22072e-05
6.34751e-05
6.44358e-05
6.39649e-05
6.37973e-05
6.32604e-05
6.43533e-05
6.40968e-05
6.30993e-05
6.35189e-05
6.48973e-05
6.30503e-05
6.30462e-05
6.21997e-05
6.30805e-05
6.40413e-05
6.26267e-05
9.3714e-05
9.19469e-05
9.10815e-05
8.74218e-05
9.15924e-05
8.65347e-05
8.36929e-05
8.10651e-05
8.6482e-05
8.06e-05
7.81091e-05
7.73511e-05
7.99107e-05
7.66721e-05
7.44147e-05
7.5632e-05
7.34756e-05
8.22758e-05
6.83382e-05
7.47238e-05
6.83223e-05
7.05025e-05
6.634e-05
7.12774e-05
7.91124e-05
6.44668e-05
8.01332e-05
6.6466e-05
7.81372e-05
6.28508e-05
7.05412e-05
6.39452e-05
7.25863e-05
6.71782e-05
6.65396e-05
7.62786e-05
6.02008e-05
7.58321e-05
6.20126e-05
7.0206e-05
5.97007e-05
6.63306e-05
7.24285e-05
5.81019e-05
7.43588e-05
6.13807e-05
6.63125e-05
5.87168e-05
7.16336e-05
7.4e-05
5.91126e-05
6.68833e-05
5.98673e-05
6.76257e-05
7.10822e-05
6.00489e-05
5.80986e-05
5.60141e-05
6.85648e-05
5.82018e-05
5.60121e-05
6.76136e-05
5.98762e-05
5.79988e-05
6.87994e-05
6.11981e-05
5.75955e-05
5.64304e-05
6.49537e-05
5.73743e-05
5.57597e-05
6.26757e-05
5.88438e-05
5.60272e-05
6.13348e-05
9.63502e-05
9.309e-05
9.28324e-05
9.38316e-05
9.37302e-05
9.0442e-05
9.14945e-05
9.11299e-05
8.99363e-05
8.75277e-05
8.86223e-05
8.85888e-05
8.61989e-05
8.49692e-05
8.61208e-05
8.66656e-05
8.34613e-05
8.28575e-05
8.42233e-05
8.25855e-05
8.15004e-05
7.84967e-05
7.87396e-05
8.21441e-05
7.75438e-05
8.12798e-05
7.85036e-05
7.83174e-05
7.59413e-05
8.02112e-05
7.76951e-05
7.80284e-05
7.50212e-05
7.50469e-05
7.74333e-05
7.71736e-05
7.85114e-05
7.41501e-05
7.68259e-05
7.24768e-05
7.22408e-05
7.64744e-05
7.59424e-05
7.731e-05
7.18894e-05
7.58986e-05
7.1401e-05
7.07864e-05
7.47633e-05
7.50175e-05
7.64426e-05
6.9903e-05
7.49594e-05
7.04558e-05
6.84564e-05
7.03821e-05
7.43234e-05
6.79689e-05
7.02364e-05
7.41641e-05
6.82508e-05
6.89666e-05
7.35969e-05
6.8889e-05
6.86942e-05
7.04633e-05
7.36023e-05
6.77044e-05
7.12171e-05
7.34377e-05
6.70181e-05
6.91684e-05
7.33719e-05
6.83411e-05
6.81313e-05
0.000106231
0.000105276
0.000105873
0.00010308
0.00010451
9.93813e-05
9.74341e-05
9.56325e-05
9.9339e-05
9.33909e-05
9.17968e-05
9.21611e-05
9.41906e-05
8.99108e-05
8.79041e-05
9.07319e-05
8.7747e-05
8.6377e-05
7.93449e-05
8.6054e-05
7.98503e-05
7.74322e-05
7.66161e-05
8.11217e-05
8.38592e-05
7.40957e-05
8.25454e-05
7.84329e-05
8.73859e-05
7.26746e-05
7.94644e-05
7.49238e-05
7.93894e-05
7.59046e-05
7.57974e-05
8.33619e-05
6.89996e-05
7.67526e-05
7.19951e-05
7.74132e-05
6.86254e-05
7.33028e-05
7.25248e-05
6.66888e-05
7.77615e-05
7.04474e-05
7.34307e-05
6.89313e-05
7.19969e-05
7.50852e-05
6.60366e-05
7.63541e-05
6.80882e-05
7.68689e-05
7.60026e-05
6.81554e-05
6.50295e-05
6.39468e-05
6.9375e-05
6.63106e-05
6.35326e-05
7.19446e-05
6.81709e-05
6.55682e-05
7.04613e-05
6.88185e-05
6.48893e-05
6.37115e-05
6.70631e-05
6.41388e-05
6.17087e-05
6.67334e-05
6.48891e-05
6.16009e-05
6.59173e-05
0.000108554
0.000106401
0.000106569
0.000107662
0.000106967
0.000104547
0.000105366
0.000105568
0.000103947
0.000102042
0.000103226
0.000103191
0.000100393
9.95883e-05
0.000100981
0.000100952
9.77193e-05
9.67262e-05
9.37944e-05
9.79827e-05
9.35737e-05
9.17755e-05
9.23623e-05
9.60621e-05
8.88179e-05
9.16367e-05
9.14481e-05
9.19834e-05
8.80387e-05
8.70446e-05
9.09661e-05
8.7576e-05
8.63324e-05
8.7287e-05
9.1693e-05
8.38257e-05
8.7569e-05
8.48059e-05
8.59851e-05
8.18142e-05
8.24746e-05
8.92988e-05
8.24426e-05
7.9831e-05
8.23714e-05
8.28548e-05
8.05306e-05
8.11616e-05
8.79284e-05
8.12182e-05
7.94318e-05
8.06217e-05
8.5124e-05
7.81511e-05
7.84243e-05
8.24644e-05
7.75867e-05
7.76671e-05
8.3093e-05
7.87853e-05
7.75278e-05
7.93309e-05
7.99606e-05
7.82867e-05
7.86122e-05
8.26179e-05
7.85152e-05
7.80744e-05
8.47225e-05
7.76799e-05
7.51991e-05
7.91875e-05
7.61392e-05
7.5338e-05
7.69544e-05
0.0001119
0.000107687
0.000107787
0.000108346
0.000107769
0.000100636
9.82846e-05
0.000100278
0.000101951
9.64255e-05
9.60556e-05
0.000100305
0.000100391
9.4749e-05
9.45785e-05
0.000100026
9.76024e-05
9.52303e-05
9.35114e-05
9.7104e-05
9.32258e-05
9.11266e-05
9.20766e-05
9.49606e-05
8.94132e-05
8.61858e-05
9.04644e-05
9.07719e-05
9.1122e-05
8.46958e-05
8.90626e-05
8.58596e-05
9.13227e-05
9.16693e-05
8.91499e-05
8.44103e-05
8.10364e-05
8.59574e-05
8.50619e-05
8.90206e-05
8.92144e-05
8.13802e-05
8.19618e-05
7.85254e-05
8.3172e-05
8.34635e-05
8.47181e-05
8.95965e-05
8.21252e-05
8.03422e-05
7.67731e-05
8.09891e-05
8.08656e-05
9.1076e-05
8.80696e-05
8.03613e-05
7.69368e-05
7.60678e-05
7.88565e-05
7.85836e-05
7.5697e-05
7.95209e-05
8.01751e-05
7.62782e-05
7.9367e-05
8.09259e-05
7.73929e-05
7.84579e-05
7.87811e-05
0.000120226
0.000118978
0.000119659
0.000120762
0.000120273
0.000118172
0.000119791
0.000119502
0.000117711
0.000116414
0.000118023
0.000117548
0.000114589
0.000114431
0.000116027
0.000115332
0.000112322
0.000112632
0.000114167
0.000113062
0.000110519
0.000110939
0.000112341
0.000110847
0.000108966
0.000110975
0.000110422
0.000107515
0.00010759
0.000109411
0.000108433
0.000105937
0.000106476
0.00010799
0.000106349
0.000104992
0.000107105
0.000106421
0.000103864
0.000104268
0.00010603
0.000106114
0.000103091
0.000105328
0.000104751
0.000102366
0.000102629
0.000104456
0.000103915
0.000101674
0.000103936
0.000103281
0.000101064
0.000101458
0.000103111
0.00010172
0.000100663
0.000102799
0.000102352
0.000100072
0.000102424
0.000101887
9.99005e-05
0.000100029
0.000101674
0.000100331
9.94107e-05
0.000101417
0.000121592
0.000118819
0.00011563
0.000113439
0.000119229
0.000115606
0.000110755
0.000111432
0.000118135
0.000112993
0.000108292
0.000111606
0.000116726
0.00011217
0.000107805
0.000112254
0.000112641
0.000108646
0.000107114
0.000109401
0.000107343
0.000103975
0.000104604
0.000110323
0.000104795
0.000101498
0.000104025
0.000104686
0.000101459
0.000100619
0.000102297
0.000103168
9.91312e-05
0.000100395
0.000104952
0.000101404
9.99184e-05
0.000102423
0.000102851
9.98013e-05
0.000100321
0.000107069
0.000100537
9.77511e-05
9.98021e-05
0.000101621
9.84735e-05
9.92122e-05
0.000104821
9.95968e-05
9.63937e-05
9.73291e-05
9.91256e-05
9.57658e-05
9.60911e-05
9.9481e-05
9.5834e-05
9.53849e-05
9.77892e-05
9.78114e-05
9.57547e-05
9.67164e-05
9.94146e-05
9.70301e-05
9.69722e-05
9.85863e-05
9.44044e-05
0.000131353
0.000128407
0.000128666
0.000125022
0.000132139
0.000124301
0.000121136
0.000120755
0.000129107
0.000122422
0.000119054
0.000121507
0.000126234
0.000120709
0.000116434
0.000123929
0.000119505
0.000111545
0.000106425
0.000118679
0.000108669
0.000103496
0.000103188
0.000111098
0.00010294
9.8749e-05
0.000105371
0.00010622
9.96716e-05
9.7165e-05
0.000108718
0.000101051
9.58443e-05
9.68897e-05
0.000101868
9.54071e-05
9.17284e-05
0.000100796
9.79244e-05
9.25133e-05
9.28106e-05
0.000100566
9.37901e-05
8.90718e-05
9.73537e-05
9.64149e-05
9.0893e-05
9.16236e-05
9.94365e-05
9.24897e-05
8.75173e-05
9.61922e-05
9.3638e-05
8.77252e-05
9.01024e-05
9.35161e-05
8.87325e-05
8.73178e-05
9.61376e-05
9.16116e-05
8.68104e-05
9.47361e-05
9.36412e-05
8.83136e-05
9.21186e-05
9.45972e-05
0.000126856
0.000122428
0.000122409
0.000125965
0.000134022
0.000124065
0.000121811
0.000128797
0.000133158
0.000128806
0.000129842
0.000133333
0.000131207
0.000130207
0.000131401
0.000132019
0.00012926
0.000127377
0.000125759
0.000130178
0.000124673
0.000122055
0.000123957
0.000128196
0.000119189
0.00011767
0.000122568
0.000124804
0.000116436
0.000116033
0.000123041
0.000116187
0.000112548
0.00011467
0.000123465
0.00010932
0.000106716
0.000111611
0.000111922
0.0001062
0.000107858
0.000119659
0.000107495
0.000104413
0.000108698
0.00011143
0.000105012
0.000106868
0.000118793
0.000107017
0.000103297
0.000107583
0.000108309
0.000102014
0.000103806
0.000112329
0.000102883
0.000102863
0.000112427
0.000106478
0.000103352
0.000106888
0.000110097
0.000103615
0.000105979
0.000115536
0.000118422
0.000114826
0.000112951
0.000114243
0.000118265
0.00011504
0.000110279
0.000116444
0.000119569
0.000115467
0.000114951
0.000124049
0.00012349
0.000115996
0.0001171
0.000126728
0.000122277
0.000117585
0.00011879
0.000123734
0.000118733
0.000115598
0.000120038
0.000120814
0.000114956
0.000111706
0.000119932
0.000118692
0.000111475
0.000111018
0.000116594
0.000113326
0.000109041
0.000113685
0.00011589
0.000110093
0.000104981
0.000111881
0.000111859
0.000105623
0.000106862
0.000107855
0.000107465
0.000102258
0.000108605
0.000110178
0.000104081
0.000105847
0.000107138
0.000106301
0.000101014
0.00010581
0.000107097
0.000100576
0.00010321
0.000105163
0.000101648
0.00010109
0.000103273
0.000105299
0.000100793
0.000105336
0.000107459
0.000101955
0.000105167
0.00010633
0.00014393
0.00014358
0.000144955
0.000146298
0.00014639
0.000145088
0.00014701
0.000147196
0.00014619
0.000145288
0.000147211
0.000146973
0.000144923
0.000144869
0.00014678
0.000146125
0.000143818
0.000144257
0.00014607
0.000145148
0.000142833
0.000143453
0.000145008
0.000143821
0.000141894
0.00014432
0.000143561
0.000141116
0.000140979
0.000143167
0.000142174
0.000139625
0.000140195
0.000141872
0.000140486
0.000138775
0.00014137
0.000140411
0.000137963
0.000138172
0.000140222
0.000139668
0.000136993
0.000139757
0.000138862
0.000136571
0.000136545
0.000138674
0.000138132
0.000135577
0.000138327
0.000137449
0.000135171
0.000135331
0.000137205
0.000136003
0.000134497
0.000137022
0.000136647
0.000133994
0.000136744
0.00013597
0.000134004
0.000133824
0.000135689
0.000134542
0.00012541
0.000126224
0.000124043
0.000127039
0.000138906
0.000132698
0.000127936
0.000132278
0.000140984
0.000131841
0.00012741
0.000133191
0.000140355
0.000132423
0.000129065
0.000135607
0.000138133
0.000130616
0.000130109
0.000135332
0.000132853
0.000127209
0.000129748
0.000139062
0.000129823
0.000125512
0.000129443
0.000133307
0.000126392
0.000125996
0.000129829
0.000129226
0.000123877
0.00012691
0.000135582
0.000128243
0.000125652
0.000128928
0.000132378
0.000125643
0.000127028
0.000136257
0.000127809
0.000123302
0.000126035
0.000131642
0.000124829
0.000126109
0.000135901
0.000127378
0.000122314
0.000123806
0.000128335
0.000121116
0.000121823
0.00012914
0.000122237
0.000120957
0.000127121
0.000126845
0.000122113
0.000123215
0.000130137
0.000123796
0.000124095
0.000131517
0.000126146
0.000120403
0.000118016
0.0001183
0.000129209
0.000123164
0.000118627
0.000126161
0.000130779
0.000126626
0.000124141
0.000134316
0.000133718
0.00012761
0.000126754
0.000141045
0.000136518
0.000130254
0.000130007
0.000142302
0.000133593
0.000128289
0.000132919
0.000135953
0.00013003
0.000124973
0.00013647
0.000133728
0.000126162
0.000124901
0.00013621
0.000129697
0.000123001
0.000127679
0.000129039
0.000124786
0.000119503
0.000129966
0.00012743
0.000120847
0.000122693
0.000125489
0.000123395
0.000116859
0.00012645
0.000125569
0.000119677
0.000122069
0.000124813
0.000122425
0.000115955
0.000123882
0.000122314
0.000115685
0.000119608
0.000119432
0.000116926
0.000116048
0.000121855
0.00012116
0.000115455
0.000123043
0.000122674
0.000118158
0.00012288
0.000121546
0.000156372
0.000156254
0.000157628
0.000159368
0.000159698
0.000158803
0.00016068
0.000161416
0.000160995
0.000159941
0.000161911
0.000162257
0.000160912
0.000160346
0.000162424
0.000162353
0.000160533
0.000160445
0.000162581
0.000162004
0.000160018
0.000160258
0.000162326
0.00016155
0.000159464
0.000161853
0.000161615
0.000159756
0.000158903
0.000161353
0.000160646
0.000158442
0.000158436
0.000160674
0.000159721
0.000157633
0.000160253
0.0001597
0.000157679
0.00015712
0.000159617
0.000159468
0.000156552
0.000159195
0.00015867
0.000156819
0.000155995
0.000158548
0.000158131
0.000155547
0.000158215
0.000157591
0.00015571
0.00015508
0.000157466
0.000156616
0.000154641
0.000157291
0.000156768
0.000154573
0.000157025
0.000156476
0.000154912
0.000153982
0.000156279
0.000155468
0.00012873
0.00013425
0.000132955
0.00013632
0.000140024
0.000146176
0.000138413
0.000139939
0.000144848
0.000145996
0.000137765
0.000142607
0.000150704
0.000146999
0.000139694
0.000144143
0.00014933
0.00014307
0.000140656
0.000142022
0.00014673
0.000139865
0.000141897
0.000145179
0.000144107
0.000138806
0.000143024
0.000146551
0.000141406
0.000140432
0.000140554
0.000144787
0.000139876
0.000143593
0.000146624
0.000145172
0.000142078
0.000143015
0.000148019
0.00014212
0.000143042
0.000144516
0.000144747
0.000139696
0.000140261
0.000146836
0.000141777
0.000142236
0.000144042
0.000144632
0.0001389
0.000136918
0.000143694
0.000137596
0.000136894
0.000139865
0.000138411
0.000135993
0.000135377
0.000142984
0.000137529