/*--------------------------------*- C++ -*----------------------------------*\
| =========                 |                                                 |
| \\      /  F ield         | OpenFOAM: The Open Source CFD Toolbox           |
|  \\    /   O peration     | Version:  v2012                                 |
|   \\  /    A nd           | Website:  www.openfoam.com                      |
|    \\/     M anipulation  |                                                 |
\*---------------------------------------------------------------------------*/
FoamFile
{
    version     2.0;
    format      ascii;
    class       volScalarField;
    location    "1e-06";
    object      omega;
}
// * * * * * * * * * * * * * * * * * * * * * * * * * * * * * * * * * * * * * //

dimensions      [0 0 -1 0 0 0 0];


internalField   nonuniform List<scalar> 
10193
(
117401
125493
134145
128848
136038
132721
139089
132772
135315
138598
142509
136206
137621
145355
146226
139676
144448
153362
150219
143698
151837
161214
153128
158752
159526
163206
155432
158388
167381
165289
157887
166120
176368
167085
170289
174775
176600
167532
173791
183871
177007
217217
182951
186136
176552
181987
192464
185453
226002
192245
194205
184009
191412
202731
192035
195413
201970
199492
197019
201566
206715
195292
202325
213888
202507
206410
213943
208455
253283
215185
214139
209588
215031
219022
207177
91015.2
95553.4
94649.6
95330.3
98618.9
100343
97382.5
99910.3
111222
103847
101616
104107
110889
107445
106063
108168
113577
111386
110922
112260
116784
114711
115243
129480
119949
117173
119383
126502
122821
121601
123093
128222
125745
126042
139834
130777
127981
129513
136561
132932
132253
122225
137534
134075
135862
143776
139546
138480
153425
144356
140468
141937
149673
145441
144635
159496
149819
146680
150030
154024
148414
149806
159398
154015
152600
167629
157698
154505
143576
160466
156198
159748
164318
157810
158970
55218.1
57463.2
57614.7
57840.8
63027.8
61368
60112.8
61531
68846.2
64315.2
63322.6
64615.4
68737.3
67008.5
66331.6
67509.4
70575.6
69711
69386.4
71454.7
72885.8
72195.7
72258.2
81858.7
75220.3
73862.1
75049.5
79209.6
77361.5
76660.6
78627.9
80496.6
79495.2
79426
88201.5
82379.6
80940
82109.7
85807.3
84135.2
83616.8
94969.5
87026.9
85057.2
86244.9
90561.5
88439.6
87726.2
100507
91290.5
89173.9
90604.9
94414.6
92332.3
91748
100912
94897
93170.8
98097.8
97469.4
94480
95770.9
100692
97922.6
97061.1
106156
100225
98414.4
110701
102402
99630.6
104483
104464
100864
102899
52246.2
56549.5
56863.3
56956.9
55004.4
60390.7
59230
60516.6
63027.9
63312.1
62336.8
63387.1
66578.7
65978.8
65242.5
65746.3
69046.4
68608.3
68171
66750.8
71473
71028.6
70852.3
72625.1
73791.8
72530.5
73185
76848.1
75983.5
75177.4
73795.1
78725.2
78073.7
77657.8
80679
80692
79310.8
79147.6
83500.2
82516
81727.9
79049.4
84958.3
83257.5
83204.2
87780.9
86630.2
85600.5
82907.6
88970.8
87163.3
86379.4
91606.5
90376.5
89188
93245.2
92639.9
90855.1
87530.8
94739.4
92214.5
91531
97071
95676
94010
98724.8
97701.7
95664.9
92844.3
99311
96958
93677.9
101159
98203.9
95931.6
35304.8
37843.8
38333.8
38374.6
39092.4
41100.6
40476.7
41415.2
44332.4
43634.8
43086.4
43808.9
46306.1
45808.1
45368.6
45785.7
48021.4
47815.1
47506.5
47536
49847.9
49712.8
49517.5
52257.1
51629.3
50858.3
51325
53978.6
53332.3
52797.7
52732.6
55257
54941.3
54588.9
57898.3
56741.4
55861.7
55989.2
58780.1
58165.7
57598
56461.6
59857.3
58783.3
58925.2
61977.6
61163
60441.3
59269
62770.5
61607.7
61535.1
64714
63894.3
63082.4
66954.7
65476.8
64277.1
64355.8
66984.5
65300.9
65206
68729.9
67670.7
66594.6
70785.7
69201.2
67832.2
66563.9
70385
68815.8
68861.3
71835.1
69790.2
69311.5
25149.4
26456.7
26890.6
26924.9
28945.9
29114.5
28720.2
29476.6
32669.9
31301.9
30946.7
31543.4
33657.8
33124.3
32828.8
33320
34885.1
34708.2
34482.1
35494.7
36285.4
36219.5
36066.8
39637.7
37673
37123
37581
39630.4
39004.4
38617.3
39527.4
40491.6
40259.9
40014.4
43583.3
41604.2
40965
41440.7
43220.7
42690.2
42288.3
45666.8
44019.2
43186.5
43626.8
45689.5
44946.6
44444.8
48163.4
46225.7
45303.7
45898
47700.9
46995.3
46496.5
50286.3
48170.5
47305.5
49142.8
49358.3
48074.1
48574.3
50798
49803.3
49175.9
53028.8
50966.1
50012.2
53592.4
52024.7
50760.5
52575
53112.3
51522.1
52373.5
23818.9
26042.1
26570
26536.3
26397.5
28687.5
28333.9
29038.3
30211
30866.9
30514.7
31000.6
32610.2
32684.8
32355.9
32504.5
34182.4
34239.6
33960.4
33433.6
35658.7
35722.1
35457.1
36201.8
37057.7
36554.9
36741.7
38521.1
38418.1
37984.8
37385.3
39705.2
39655.7
39244.3
40446
40876.2
40272.3
40072.2
42168.4
42002.5
41472.7
41282.4
43149.7
42421.4
42233.7
44406.9
44176.3
43528
43390.9
45257
44449.4
43969.4
46424.9
46158.9
45366.9
46986.1
47193.7
46312.2
45372.1
48161.9
47111
46639.6
49131
48837.8
47817.1
49755.8
49864.5
48812.2
48661.6
50724.2
49612
48619.5
51640.4
50382
49365.9
17807.6
19011.3
19398
19400.8
20147.9
21120.8
20868.6
21446.1
23204.2
22978.1
22735.1
23166
24721.2
24542.4
24319.3
24593.9
25889.2
25858.3
25660.6
26033.2
27068.3
27100.4
26909
28503
28208.3
27815.8
28061.6
29607.6
29316.5
28996.7
29285.1
30427.3
30341.2
30053.4
31903.6
31341.3
30867
31009.7
32503.1
32235.3
31858
31722.2
33178.2
32604.3
32723.1
34370.2
33985.2
33511.4
34640.9
34893.2
34231.2
34353.9
35940.6
35568.4
35038.8
37134.2
36415.7
35727.7
36273.2
37260.5
36354.9
36423.5
38212.1
37695.6
37032.6
39268.2
38541.3
37753
37577.7
39263.5
38377.6
38913
40119.4
39001.6
39122.3
16914.1
18720.3
19178.4
19125.2
18509.8
20816.7
20601.3
21140.5
21571
22666.2
22434
22780.3
23864.5
24232.6
23989
24013.5
25343.6
25535.6
25293.9
24570.7
26608.6
26760.3
26486.9
26490
27777.2
27424.3
27475.4
28715.1
28908.3
28556.6
27776
29844.3
29928.2
29521.2
29832
30828.7
30388.9
30056.1
31684.6
31761.6
31287.1
30631.5
32589.9
32077.8
31756.3
33357.1
33449.9
32882.1
32372.4
34220.8
33642.2
33018.3
34953.2
34988.8
34261.1
34855.4
35725.3
35047
33628.2
36373.4
35692.2
35090.6
36905
37016.6
36098.3
36952.4
37750.5
36916.1
36163.5
38378.7
37580.3
36132.4
39009
38207.3
37023.3
13039.9
13976.9
14274.5
14244.5
14653.3
15559.4
15371.1
15812.1
16840.2
17061.9
16871.1
17204.3
18359.5
18371.7
18184.6
18366.3
19436.7
19475.4
19289
19440
20429.9
20500.1
20306
21136
21382.3
21067.3
21217.7
22416.7
22307.2
22022.8
22100.5
23168.3
23152.7
22865.9
23918.2
23935.1
23545.4
23567.6
24795.9
24671.4
24313.7
24381.3
25401.5
24933.6
24937.9
26246.9
26057.5
25628.4
25697.4
26736.1
26213.3
26181.5
27501.9
27305.3
26806.9
28049
27946.1
27371.1
27564.4
28563.4
27866.2
27795
29204.3
28936
28327.3
29701.4
29567.2
28894.3
28961.9
30128.3
29402.7
29585.7
30751.2
29900.1
29816.2
10385.9
10709.8
10871.1
10854.2
11814.4
11823.3
11648
12009.8
13457.8
12974.8
12802.2
13148.9
14238.6
14018
13861.4
14230.9
14986
14910
14773.3
15515
15752.2
15744.8
15635.9
17297.2
16506.7
16220.3
16516.4
17563.9
17246.7
17020.7
17738.1
18044.8
17942.7
17788.1
19491.5
18627.9
18279.3
18693.5
19483.1
19205.2
18968.2
20616.9
19873.6
19426
19802.5
20739.7
20349.7
20068.4
21805.7
20978.9
20482.6
21010.1
21730.2
21363.4
21121
22868.7
21928.7
21464.3
22551.1
22515.3
21831.7
22286.8
23208.5
22695.7
22424.7
24144.7
23229
22746.1
24464.8
23760.9
23101.7
24182.2
24318.4
23481.4
24178.7
9904.79
10550.9
10744.6
10699.7
10986
11650.3
11502.8
11816.2
12494.3
12789.4
12635.2
12884.4
13756.6
13829
13668
13804.1
14660.5
14717.4
14545.5
14674.1
15473.1
15541.3
15355.2
15932.4
16244.1
15978.6
16089.5
17033.7
17003.4
16743.6
16819.6
17685.2
17693
17423.7
18171.3
18317.7
17981.8
17997.2
18989.3
18921.5
18592.4
18822.4
19495
19099.3
19096.6
20135.8
20030.7
19643.1
19885.8
20559.2
20115.4
20095.8
21137.1
21019.2
20573.1
21464.5
21513.2
21019.9
21228.4
21986.9
21420.6
21364
22446
22296.6
21762.3
22739.8
22759.7
22185.4
22444.5
23189.1
22584.1
22782.7
23666
22981.7
22942.8
8200.4
8405.38
8489.53
8460.96
9062.33
9137.07
8993.12
9249.26
10240.8
9970.3
9825.95
10093.7
10928.8
10770.2
10634.4
10936.7
11531.5
11470.9
11353.1
11909.5
12136.1
12128.3
12032.4
13194.6
12739.2
12495.5
12742
13581.3
13334.1
13137.4
13697.3
13986.5
13899.2
13764.1
15019.6
14462.7
14162.1
14512.7
15158.6
14935.9
14727.5
15861.7
15484.1
15100.1
15421.5
16183.7
15874.3
15628.1
16824.9
16388.2
15963.1
16398
17001.2
16702.6
16492.5
17795.5
17163.8
16763.7
17545.7
17639.8
17057.8
17431.3
18179.2
17773.4
17541.7
18820.6
18190.8
17779.7
18936.9
18610.3
18056.7
18834
19052.1
18358.1
18892.4
7857.63
8278.45
8388.2
8338.43
8525.37
8997.52
8878.14
9089.52
9546.55
9818.69
9691.58
9872.61
10526.8
10611.1
10476.8
10582.9
11256.1
11307.5
11159.3
11280.1
11903.3
11955.4
11791.3
12205.9
12516
12295.6
12372.3
13121.2
13123.6
12898.4
12986.2
13680.1
13686.2
13445.8
13998.3
14194.5
13904.9
13925.6
14728.5
14691
14398.8
14608.9
15158.9
14817.5
14820.7
15655.6
15598.4
15255.3
15480.1
16028
15644.3
15647.4
16483.7
16405.4
16012.7
16678.9
16803.5
16376.2
16569.2
17184.8
16701.2
16665.3
17514.5
17427.2
16966.4
17688.2
17783.8
17291
17523.8
18126
17606.6
17795.7
18493
17921.1
17929.5
6700.97
6799.54
6822.89
6790.25
7212.79
7235.65
7115.37
7286.62
7996.39
7795.91
7675.14
7876.93
8511.65
8376.24
8259.9
8514.23
8963.55
8901
8801.8
9253.46
9416.5
9397.31
9321.3
10203.4
9874.59
9660.96
9882.48
10539.9
10327.4
10160.9
10631.4
10847.7
10763.5
10660.8
11640
11219.5
10959.3
11282.7
11787.8
11589.9
11420
12318.8
12040.8
11705.3
12009.5
12613.5
12344.7
12144.3
13091.6
12769.5
12399.8
12798.1
13272
13011.3
12854.3
13882.5
13393.5
13052.3
13707.2
13781.9
13279
13625.9
14219.9
13871.6
13703
14702.5
14207.4
13871.7
14784.2
14542.2
14079.2
14723.5
14897.9
14310.5
14771.7
6459.13
6705.58
6749.55
6699.3
6823.04
7132.94
7032.49
7165.59
7489.63
7683.81
7576.56
7703.89
8195.08
8255.48
8142.09
8234.55
8746.2
8775.78
8652.27
8790.76
9235.78
9264.95
9127.79
9453.92
9700.3
9511.25
9579.64
10164.9
10162.2
9970.38
10097.8
10604.7
10598.4
10398.4
10837.2
11006.4
10754.1
10810.6
11433
11396.5
11148.2
11315.7
11777.2
11478.5
11519.9
12174.1
12125.1
11833.2
12014.8
12476.2
12140.6
12203.1
12843.6
12775.7
12451
12984.3
13103.8
12731.8
12939.1
13412.7
12991.1
13013.7
13665.6
13594.9
13223.3
13788.1
13879.5
13464.5
13649.4
14153
13707.3
13913.7
14440.3
13949.2
14031.1
5656.19
5671.5
5651.01
5619.76
5946.5
5893.47
5790.03
5899.51
6431.52
6237.12
6134.77
6286.88
6761.4
6628.32
6530.41
6750.02
7071.93
7000.53
6918.54
7309.75
7393.45
7359.85
7308.3
8027.36
7725.1
7541.54
7746.06
8248.61
8053.08
7917.48
8332.18
8460.23
8370.5
8306.79
9103.79
8729.5
8508.78
8813.5
9187.32
9000.03
8876.05
9653.42
9365.27
9076.01
9370.38
9833.32
9584.57
9438.47
10257.4
9933.97
9617.23
9993.52
10347.2
10104.7
10010.5
10857.6
10417.2
10140.3
10745.2
10739.3
10304.1
10645.8
11106.4
10789.2
10690.5
11508.3
11063.8
10805
11607
11334.5
10952.9
11545.6
11622.1
11124.3
11554.6
5490.57
5619.66
5617.67
5569.54
5635.87
5837.94
5750.84
5827.52
6057.95
6178.29
6086.21
6173.38
6536.98
6567.22
6468.86
6554.42
6928.85
6938.81
6835.24
6974.19
7284.47
7296.54
7186.58
7443.04
7627.1
7463.08
7534.4
7980.98
7967.04
7808.07
7944.9
8307.46
8289.47
8133.15
8475.45
8607.53
8394.25
8477.99
8941.57
8899.87
8699.76
8787.83
9205.63
8947.72
9020.79
9516.42
9467.43
9231.2
9326.39
9753.9
9464.26
9565.96
10044
9979.94
9727.65
10141.4
10244.1
9933.82
10107.2
10494.6
10131.8
10207
10699.2
10638.2
10351.6
10786.2
10868.2
10527.5
10620.8
11082.1
10710.1
10888.7
11309.8
10895.1
11006.8
5326.93
5569.15
5593.82
5533.25
5458.8
5787.1
5724.06
5774.03
5839.41
6126.95
6052.29
6085.17
6317.56
6516.55
6425.03
6385.04
6770.78
6888.71
6775.73
6644.51
7169.49
7249.51
7096.51
7144.31
7535.82
7407.14
7357.44
7706.84
7891.59
7730.33
7558.06
8140.46
8224.92
7999.74
8106.05
8491.02
8314.24
8160.53
8673.71
8813.57
8568.12
8539.29
9051.77
8857.62
8693.67
9185.99
9362.76
9073.5
9066.28
9578.56
9352.03
9137.63
9718.69
9867.11
9494.26
9687.08
10077.9
9780.06
9594
10228.8
10004.9
9771.61
10293.6
10497.3
10056.8
10302.2
10677.9
10308
10288.4
10833
10523.7
10335.4
10973.2
10721
10451.6
4792.04
4843.18
4809.2
4765.47
4805.65
4916.73
4839.04
4877.84
5049.83
5099.65
5019.2
5079.76
5346.83
5339.53
5255.76
5338.28
5600.47
5586.02
5499.88
5631.5
5840.3
5832.36
5749.74
5972.53
6080.36
5937.42
6018.74
6356.32
6320.67
6187.9
6329.96
6581.34
6549.23
6436.09
6721.54
6792.06
6608.99
6720.21
7053.83
6997.64
6843.82
7021.16
7237.53
7012.38
7118.39
7483.74
7418.97
7239.59
7438.86
7649.68
7398.81
7529.43
7879.67
7803.77
7628.79
7961.33
8012.79
7760.44
7909.02
8216.75
7903.08
8019.16
8389.8
8313.67
8119.38
8464.69
8500.63
8236.62
8411.9
8676.87
8366.16
8517.47
8853.28
8500.25
8627.55
4670.67
4786.44
4772.04
4717.18
4696.02
4857.02
4797.3
4811.74
4879.21
5035.74
4968.2
4981.01
5159.83
5272.28
5192.73
5176.33
5449.33
5515.97
5420.57
5401.8
5719
5762.14
5639.92
5737.14
5973.36
5856.62
5836.18
6110.72
6221.21
6084.37
6049.4
6410.47
6455.71
6279.87
6421.03
6656.39
6499.19
6441.08
6801.04
6881.81
6684.03
6766.14
7067.74
6888.63
6821.73
7178.56
7283.92
7051.64
7152.11
7456.12
7249.52
7178.57
7570.92
7656.69
7375.26
7577.13
7822.78
7569.16
7574.96
7948.97
7735.02
7646.71
8014.27
8138.96
7814.3
8047.32
8284.56
7983.19
8089.51
8411.93
8138.59
8145.36
8524.87
8281.97
8209.67
4263.2
4255.47
4198.04
4160.52
4211.32
4228.41
4156.68
4172.72
4320.07
4295.29
4223.95
4269.71
4468.12
4418.55
4348
4430.05
4603.16
4560.24
4494
4624.97
4742.46
4712.17
4660.72
4884.09
4891.73
4769.83
4861.2
5118.36
5048.57
4945.65
5097.03
5252.21
5199.6
5134.43
5404.87
5384.65
5232.78
5363.46
5598.42
5515.54
5413.35
5635.62
5702.01
5512.89
5642.11
5909.36
5812.7
5694.75
5930.87
5993.81
5786.95
5937.62
6185.79
6082.46
5984.78
6285.58
6247.42
6055.58
6234.06
6413.69
6143.34
6287.37
6567.78
6454.72
6347.42
6653.03
6605.81
6418.85
6644.06
6749.87
6501.96
6678.65
6890.51
6591.12
6738.9
4177.76
4212.48
4170.85
4121.79
4114.4
4184
4125.98
4119.31
4172.56
4248.11
4185.78
4189.75
4323.31
4369.12
4299.56
4306.81
4488.09
4509.08
4430.79
4468.59
4650.45
4660.67
4569.97
4664.65
4811.64
4706.81
4717.22
4924.79
4974.47
4861.83
4904.28
5121.8
5130.28
5004.72
5137.48
5282.72
5144.72
5160.25
5402
5429.3
5279.85
5375.79
5573.11
5414.07
5424.3
5669.92
5711.52
5538.36
5643.13
5846.94
5666.51
5692.1
5944.08
5971.68
5782.44
5948.95
6101.5
5897.07
5975.03
6206.75
6006.32
6022.18
6268.03
6321.52
6109.83
6290.78
6438.22
6209.86
6319.12
6540.44
6312.67
6394.88
6632.34
6409.81
6447.28
3857.97
3805.01
3731.77
3700.88
3770.21
3713.37
3645.44
3649.69
3788.97
3701.53
3637.5
3675.03
3825.53
3741.2
3682.51
3761.25
3868.98
3804.25
3756.21
3894.86
3930.23
3883.51
3859.6
4088.57
4008.02
3905.72
4000.89
4196.94
4098.01
4023.1
4188.29
4256.25
4189.48
4165.15
4433.17
4327.76
4206.77
4346.98
4507.54
4404.79
4348.2
4604.89
4549.84
4394.06
4535.08
4729.64
4607.85
4543.01
4811.98
4749.18
4583.96
4748.31
4913.16
4789.06
4752.79
5042.26
4916.17
4781.33
5003.23
5051.57
4827.94
4985.19
5191.13
5047.75
5008.43
5296.93
5164.97
5046.15
5312.64
3786.71
3777.13
3717.79
3674.18
3655.76
3685.94
3628.65
3611.72
3649.76
3674.04
3615.87
3617.73
3714.31
3714.02
3653.23
3674.58
3790.16
3777.47
3714.53
3761.94
3871.55
3857.41
3795.44
3870.03
3959.93
3867.41
3899.43
4051.48
4057.22
3966.88
4028.99
4169.97
4153.67
4073.39
4180.52
4266.5
4149.35
4201.73
4366.99
4357.77
4253.99
4278.58
4466.85
4329.85
4381.12
4552.59
4551.33
4433.4
4497.08
4655.1
4503.95
4566.72
4739.04
4728.09
4612.79
4736.5
4825.8
4671.36
4731.66
4910.85
4736.09
4794
4965.19
4971.29
4845.12
4974.74
5060.51
4901.7
3716.72
3746.19
3705.97
3653.18
3598.69
3656.96
3616.5
3580.74
3580.1
3646.27
3600.05
3567.34
3626.44
3687.34
3631.35
3589.63
3709.92
3752.79
3682.48
3651.03
3807.45
3834.95
3742.71
3777.01
3910.18
3839.3
3803.68
3930.2
4017.16
3923.18
3890.83
4077.34
4121.43
3994.71
4058.22
4202.62
4105.6
4057.04
4235.27
4311.43
4174.9
4208.2
4381.3
4280.32
4227.8
4400.76
4493.7
4339.15
4383.29
4557.39
4440.98
4391.46
4582.53
4667.08
4482.58
4578.7
4731.18
4578.48
4575.2
4770.05
4662.66
4606.99
4784.62
4890.74
4687.21
4800.09
4951.84
3454.45
3419.19
3347.37
3309.43
3306.51
3292.2
3233.32
3214.72
3256.61
3232.7
3176.78
3181.19
3255.71
3218.62
3165.04
3193.36
3266.91
3228.04
3179.32
3227.88
3288.53
3255.43
3218.47
3302.02
3322.69
3241.16
3284.68
3400.06
3368.66
3300.22
3365.15
3455.74
3418.51
3375.59
3483.65
3502.31
3405.2
3470.08
3589.81
3549.99
3485.12
3573.87
3636.98
3519.13
3585.23
3715.63
3677.82
3604.44
3697.35
3761.68
3636.52
3708.19
3836.92
3792.94
3731.73
3850.46
3870.26
3757.45
3828.61
3941.6
3790.77
3859.14
3993.45
3957.98
3889.85
4009.63
3400.18
3386.16
3330.58
3281.53
3255.02
3261.1
3215.13
3177.63
3183.84
3202.18
3154.15
3129.01
3173.58
3188.31
3135.77
3122.26
3193.74
3198.26
3139.75
3151.09
3228.36
3226.43
3161.05
3201.25
3272.33
3204.07
3200.65
3289.39
3324.73
3248.07
3270.32
3371.01
3379.34
3296.49
3356.63
3438.59
3351.61
3361.99
3470.47
3498.83
3402.9
3453.38
3554.19
3458.84
3468.6
3576.86
3616.53
3509.83
3564.77
3668.4
3563.22
3583.65
3694.87
3727.72
3615.85
3689.77
3778.38
3660.21
3704.61
3813.3
3706.59
3723.59
3827.84
3875.86
3757.85
3834.88
3153.11
3090.65
3009.01
2979.17
3011.77
2948.27
2885.29
2873.39
2937.68
2862.68
2807.78
2819.67
2888.16
2815.15
2768.45
2805.38
2850.31
2789.06
2754.06
2822.07
2828.57
2780.25
2765.29
2871.46
2822.94
2751.98
2803.21
2897.93
2830.75
2782.64
2867.62
2899.64
2845.52
2833.13
2959.86
2906.83
2829.12
2905.59
2988.2
2920.34
2888.27
3013.42
2989.71
2892.03
2970.09
3070.52
2997.23
2960.69
3090.68
3066.3
2965.97
3054.43
3141.07
3065.94
3047.13
3184.02
3128.39
3050.51
3162
3192.53
3062.1
3146.18
3250.83
3172.9
3150.95
3285.36
3094.07
3064.01
2998.21
2954.06
2931.87
2925
2872.22
2841.53
2847.49
2841.65
2791.34
2777.75
2811.23
2795.9
2746.6
2749.88
2793.02
2771.28
2723.68
2740.43
2786.19
2763.85
2721.65
2749.53
2789.82
2725.61
2741.16
2803.61
2804.09
2743.96
2772.27
2839.25
2823.4
2775.37
2818.54
2865.42
2790.39
2820.59
2894.5
2890.31
2828.71
2854.02
2933.46
2848.78
2880.47
2956.32
2960.54
2893.05
2920.5
3002.47
2913.29
2948.37
3028.01
3027.21
2964.92
3014.14
3067.83
2981.59
3005.46
3098.22
3002.48
3036.25
3111.6
3123.05
3057.26
3107.74
3038.35
3033.1
2987.44
2932.07
2890.81
2898.31
2861.91
2812.1
2804.06
2818.09
2778.36
2736.31
2757.41
2774.86
2728.97
2693.49
2739.95
2752.56
2697.92
2683.27
2740.91
2747.4
2681.43
2701.18
2753.54
2704.57
2679.43
2735.2
2775.02
2710.91
2705.16
2779.05
2800.43
2720.37
2757.57
2820.5
2757.95
2742.48
2817.55
2857.35
2773.01
2802.29
2875.19
2812.46
2797.09
2871.7
2920.04
2828.8
2863.48
2937.84
2867.67
2860.83
2939.51
2984.8
2884.44
2936.46
3004.98
2917.72
2936.04
3013.74
2950.85
2942.14
3015.62
3069.03
2966.27
3022.29
2784.39
2748.07
2673.67
2638.34
2643.71
2612.45
2550.63
2533.93
2559.82
2521.51
2467.83
2468.45
2505.26
2460.83
2414.53
2430.21
2461.51
2417.49
2380.5
2408
2427.56
2389.14
2366.23
2410.93
2405.05
2344.75
2370.31
2424.82
2393.61
2348.37
2384.93
2424.06
2388.86
2366.37
2422.13
2420.51
2357.08
2394.09
2452.05
2419.85
2384.01
2434.83
2456.03
2381.73
2420.11
2484.25
2456.18
2416.64
2469.52
2492.59
2417.36
2457.73
2521.2
2490.54
2459.72
2520.81
2524.86
2461.7
2505.28
2554.59
2467.22
2505.88
2572.4
2549.03
2514.5
2575.82
2735.88
2715.16
2661.86
2610.88
2595.54
2585.26
2537.51
2501.12
2500.9
2498.39
2451.94
2428.65
2445.31
2440.8
2393.97
2384.29
2409.68
2399.97
2352.65
2358.76
2386.52
2373.79
2328.03
2342.26
2372.89
2321.78
2321.23
2355.94
2368.21
2315.23
2329.42
2370.68
2368.63
2319.38
2342.1
2381.87
2324.39
2336.55
2380.05
2391.83
2335.88
2346.88
2405.58
2345.9
2359.29
2402.75
2422.24
2363.41
2380.17
2436.77
2374.53
2392.42
2438.41
2455.19
2398.59
2424.6
2471.55
2407.65
2426.69
2479.68
2419.92
2437.05
2478.88
2504.49
2447.96
2474.54
2663.23
2679.15
2648.89
2586.59
2532.2
2554.72
2526.76
2470.01
2450.31
2472.11
2438.87
2386.46
2397.25
2418.02
2376.89
2327.63
2363.72
2380.37
2328.63
2295.74
2345.57
2357
2291.46
2292.56
2338.71
2303.31
2265.28
2303.45
2340.42
2286.57
2262.04
2321.52
2346.56
2271.94
2289.09
2342.1
2297.12
2266.36
2322.72
2361.45
2288.98
2296.69
2357.09
2315.95
2286.22
2341.54
2386.06
2309.97
2323.11
2384.17
2337.31
2314.12
2374.52
2417.64
2331.49
2363.47
2419.93
2355.59
2353.61
2416.16
2378.58
2355.13
2411.08
2458.74
2372.41
2409.58
2403.27
2389.41
2327.82
2288
2283.74
2275.52
2215.11
2199.03
2208.71
2193.9
2140.85
2137.44
2157.81
2134.29
2087.82
2094.15
2115.63
2087.07
2048.46
2058.93
2079.85
2051.51
2023.74
2041.31
2051.5
1999.52
2011.92
2042.08
2031.25
1989.16
2004.33
2036.93
2016.38
1989.36
2012.66
2028.04
1976.55
1994.42
2030.84
2019.75
1984.59
2003.15
2033.42
1977.97
1996.79
2034.38
2029.67
1992.65
2011.91
2043.99
1989.4
2007.53
2048.01
2041.41
2009.27
2035.1
2056.39
2008.33
2022.78
2065.32
2009.23
2026.81
2065.59
2067.07
2033.29
2060.15
2356.14
2348.34
2311.21
2254.68
2245.84
2241.27
2198.19
2161.15
2166.06
2164.6
2120.92
2094.49
2108.4
2108.88
2063.51
2049.27
2067.56
2064.98
2017.88
2020.48
2038.1
2032.2
1985.06
2000.08
2016.92
1974.69
1966.98
1990.2
2002.8
1955.87
1964.05
1989.17
1993.09
1946.09
1965.79
1989.63
1944.57
1948.58
1975.75
1989.78
1941.1
1959.88
1987.51
1943.9
1948.96
1976.2
1994.93
1946.05
1965.68
1994.79
1950.18
1960.19
1988.01
2005.69
1958.69
1980.03
2008.46
1961.31
1978.13
2006.64
1967.03
1976.65
2002.53
2024.43
1980.2
2001.48
2084.88
2054.32
1981.34
1959.03
1999.31
1958.99
1887.02
1893.86
1941.05
1888.69
1831.51
1848.92
1890.69
1834.55
1791.62
1817.84
1841.54
1789.19
1761.68
1798.17
1797.17
1752.63
1742.86
1788.26
1760.58
1708.72
1734.71
1773.52
1731.99
1700.53
1737.41
1748.75
1708.96
1701.21
1747.52
1724.21
1678
1710.18
1741.57
1703.76
1685.53
1730.2
1722.15
1669.36
1700.92
1737.33
1703.02
1683.19
1727.63
1721.47
1671.31
1705.09
1736.38
1702.51
1691.18
1735.61
1719.44
1682.04
1720.97
1734.53
1676.3
1707.73
1743.37
1714.81
1701.94
1744.23
2014.62
2014.37
1968.49
1926.18
1919.59
1927.09
1870.12
1857.92
1862.09
1863
1811.77
1809.21
1822.4
1813.75
1768.14
1772.4
1788.14
1772.25
1733.51
1739.15
1757.64
1738.73
1709.13
1716.2
1731.43
1686.24
1693.62
1711.04
1710.33
1671.92
1679.92
1703.47
1692.66
1665.21
1675.08
1693.08
1651.16
1661.53
1683.41
1682.25
1650.5
1656.37
1683.23
1641.59
1652.42
1673.75
1677.83
1646.16
1652.06
1679.85
1640.35
1650.15
1674.17
1676.94
1649.13
1659.67
1680.94
1645.74
1649.74
1680.14
1643.68
1653.27
1674.84
1683.34
1656.14
1667.46
1969.31
1972.86
1952.55
1892.88
1885.78
1892.02
1855.22
1820.16
1827.65
1833.46
1793.84
1767.41
1782.53
1789.04
1745.91
1730.13
1747.54
1751.77
1705.35
1705.11
1720.97
1721.92
1674.04
1687.01
1700.72
1665.32
1654.21
1673.2
1685.54
1643.39
1647.1
1665.84
1673.36
1628.71
1645.01
1661.56
1625.18
1624.49
1644.52
1657.86
1615.18
1629.75
1648
1614.97
1615.12
1635.1
1650.62
1609.65
1624.94
1643.64
1610.42
1615.11
1634.75
1649.87
1610.81
1627.87
1646.15
1610.47
1622.09
1640.7
1612.92
1617.39
1636.01
1652.61
1617.55
1634.31
1696.68
1689.19
1631.28
1606.99
1631.41
1618.5
1552.2
1559.78
1591.09
1567.4
1513.53
1527.96
1559.42
1527.44
1485.9
1504.28
1527.75
1492.5
1464.14
1486.76
1496.69
1463.09
1449.06
1476.75
1468.67
1422.46
1439.77
1467.51
1444.96
1414.6
1436.09
1451.77
1424.54
1411.79
1438.82
1433.25
1393.65
1412.52
1436.62
1415.63
1395.62
1420.15
1424.61
1382.59
1400.69
1425.96
1409.53
1388.81
1412.74
1418.2
1379.43
1397.83
1420.82
1404.36
1389.2
1413.76
1412.79
1382.51
1402.63
1417.77
1377.49
1394.32
1417.66
1406.57
1390.74
1413.88
1638.69
1645.22
1616.61
1573.76
1565.12
1582.24
1534.62
1524.05
1524.73
1537.86
1493.22
1490.01
1499.43
1503.62
1462.12
1463.94
1476.95
1473.37
1436.33
1439.47
1456.35
1447.79
1417.23
1419.65
1437.76
1400.54
1404.08
1415.23
1421.74
1387.66
1392.25
1409.65
1407.23
1380
1384.12
1402.1
1368.85
1374.65
1388.49
1393.54
1365.18
1365.75
1388.43
1357.73
1363.74
1376.39
1384.76
1357.9
1358.36
1381.05
1352.8
1358.31
1372.79
1379.95
1356.29
1360.45
1378.62
1352.89
1353.62
1374.29
1350.57
1355.94
1368.03
1378.24
1356.62
1361.14
1590.46
1604.06
1598.62
1540.2
1529.52
1546.26
1519.41
1486.03
1491.13
1506.82
1475.06
1447.95
1463.09
1477.27
1439.79
1420.99
1440.09
1451.36
1408.37
1403.31
1422.04
1429.71
1382.8
1391.68
1408.01
1380.25
1365.51
1382.76
1397.09
1360.39
1358.66
1376.86
1387.67
1345.47
1357.4
1373.29
1344.66
1339.02
1356.66
1370.35
1332.73
1341.95
1358.27
1333.69
1328.99
1345.87
1360.15
1325.21
1335.27
1351.17
1326.5
1326.03
1342.44
1356.1
1322.54
1335.31
1350.16
1322.46
1328.69
1343.96
1324.4
1324.01
1339.08
1352.72
1323.38
1335.88
1341.18
1348.9
1311.22
1285.75
1293.61
1300.53
1249.23
1253.22
1268.42
1267.89
1224.27
1232.7
1252.42
1242.96
1207.24
1216.84
1236.57
1220.44
1193.56
1203.67
1219.87
1200.92
1183.72
1197.28
1203.46
1166.97
1176.48
1194.58
1188.54
1161.66
1171.3
1188.21
1174.82
1159.02
1172.5
1178.56
1147.81
1156.85
1174.51
1167.76
1148.25
1159.39
1170.5
1140.28
1149.01
1165.87
1162.65
1143.5
1154.4
1165.31
1138.06
1146.34
1162.59
1158.61
1142.84
1155.03
1161.68
1139.21
1147.64
1161.57
1136.1
1143.57
1158.34
1157.71
1142.36
1153.94
1300.07
1306.97
1295.52
1254.52
1252.21
1264.88
1232.94
1219.93
1223.65
1237.93
1205.33
1198.24
1207.21
1218.19
1184.87
1183.21
1194.39
1200.29
1167.37
1171.24
1183.49
1184.79
1154.29
1160.2
1173.83
1146.66
1146.1
1155.33
1165.35
1136.8
1141.62
1152.83
1157.29
1130.9
1137.12
1150.05
1125.37
1128.68
1138.13
1146.51
1121.69
1127.37
1139.85
1118.38
1121.82
1130.46
1139.96
1117.44
1122.95
1135.06
1115.21
1119.82
1128.45
1136.85
1116.89
1122.29
1133.77
1114.68
1119.92
1129.54
1113.76
1117.91
1125.12
1134.08
1117
1121.85
1238.66
1269.19
1277.37
1224.71
1198.12
1231.42
1219.9
1184.62
1178.15
1208.61
1189.77
1156.02
1167.31
1192.86
1165.48
1135.01
1158.68
1178.8
1142.27
1122.94
1151.7
1166.95
1121.21
1120
1146.32
1129.18
1104.53
1121.2
1142.31
1112.26
1097.64
1122.63
1138.66
1096.75
1101.22
1124.08
1104.22
1087.27
1107.41
1125.39
1090.68
1090.89
1113.13
1097.57
1082.46
1100.31
1118.17
1085.95
1088.21
1108.93
1092.07
1081.27
1099.58
1115.93
1082.43
1090.7
1109.23
1086.39
1083.81
1102.46
1090.72
1080.91
1096.36
1112.19
1082.31
1091.38
1047.84
1060.24
1044.22
1018.2
1012.58
1031.04
998.965
997.36
998.745
1013.28
983.426
985.325
993.637
1000.77
973.434
976.428
988.863
989.329
965.52
966.728
983.383
979.31
960.229
962.239
977.534
952.82
956.632
965.612
971.893
950.101
952.152
966.913
966.285
949.419
952.631
965.826
944.748
948.343
959.039
963.06
945.715
947.084
961.729
942.685
946.443
955.68
961.329
945.194
946.792
960.306
943.144
946.107
955.971
960.296
946.147
949.469
960.011
944.719
945.541
957.729
943.504
946.251
954.061
959.668
946.899
950.217
1016.32
1027.34
1028.24
991.194
987.955
1001.68
984.918
967.897
973.606
987.269
967.051
953.891
965.306
978.098
953.961
945.778
959.416
969.955
942.261
941.94
955.445
963.112
933.245
940.557
952.786
935.009
928.408
940.101
951.013
927.805
928.91
940.969
949.43
923.36
931.858
942.599
924.822
923.46
934.635
944.041
921.289
928.152
938.303
923.346
922.303
932.73
941.824
921.193
928.231
937.575
922.789
923.819
933.461
941.677
922.238
930.206
938.621
922.447
926.98
935.46
923.786
924.439
932.967
940.557
923.956
931.276
853.502
862.131
843.412
828.284
833.836
842.557
812.481
817.288
827.116
831.399
805.457
812.299
825.256
823.939
802.385
809.377
823.288
817.213
800.757
807.557
820.257
811.52
800.731
809.524
816.664
794.698
801.577
813.672
813.201
796.755
803.188
815.408
809.73
799.733
808.364
814.587
796.154
802.287
813.98
812.294
800.198
807.229
815.726
797.795
803.568
814.249
814.245
802.348
808.965
816.795
800.563
805.714
815.798
814.926
804.995
812.183
817.304
803.851
808.79
817.554
802.731
807.193
815.917
816.627
807.167
813.745
827.154
833.547
831.055
806.397
808.013
817.615
800.172
794.337
799.378
809.798
791.294
788.694
796.183
805.447
785.893
786.495
795.092
801.656
781.776
785.865
794.924
798.656
779.788
785.677
795.152
779.379
780.384
787.737
795.693
778.552
783.138
791.084
795.965
779.691
785.806
794.05
779.545
782.908
789.843
796.225
781.146
786.979
794.253
781.622
784.819
791.069
797.401
783.686
789.171
795.723
783.843
787.639
793.315
798.823
786.663
791.636
797.778
786.247
790.85
796.076
786.556
789.734
794.509
799.74
789.518
793.793
703.895
705.832
686.53
679.051
693.827
693.349
666.655
675.079
692.093
687.008
665.325
675.721
692.335
683.284
666.804
678.36
691.404
680.022
669.268
682.385
689.275
677.509
673.015
687.584
686.882
667.809
678.002
691.764
684.843
672.784
684.517
692.538
682.889
678.557
691.666
691.074
674.954
684.95
695.834
688.787
681.124
692.881
695.582
678.617
687.748
698.438
692.876
684.913
695.753
698.273
682.887
691.677
700.707
694.883
689.352
699.514
699.375
687.668
696.6
702.093
686.49
694.047
702.641
698.647
692.983
701.832
673.718
681.982
678.077
662.021
659.936
673.14
657.023
656.884
658.568
670.095
654.25
656.103
661.53
669.283
653.902
656.823
664.383
668.602
654.361
656.952
666.878
668.322
656.108
658.015
669.074
655.699
658.899
664.614
671.14
658.266
661.308
669.815
672.551
661.693
664.197
673.522
661.612
665
671.183
675.996
665.194
665.472
676.078
665.464
668.648
673.799
678.973
668.973
669.902
678.808
669.124
671.902
677.187
681.436
672.677
674.575
681.616
672.748
673.939
680.757
672.987
675.386
679.377
683.861
676.275
677.973
650.198
662.356
668.051
645.267
641.682
655.363
649.031
638.017
641.126
654.155
644.702
635.051
643.444
655.195
642.119
634.888
646.373
656.428
639.653
637.452
649.828
658.081
638.1
642.251
653.715
644.737
638.628
647.978
657.923
643.695
642.527
653.517
661.718
643.382
648.814
658.818
648.632
645.606
655.204
663.727
647.991
651.607
661.112
652.638
649.691
658.266
666.318
651.682
655.483
664.145
655.223
653.815
662.032
669.308
654.755
660.062
667.74
656.835
658.43
666.112
659.373
657.828
664.78
671.445
658.802
663.839
555.778
564.208
559.592
549.273
549.593
559.985
545.718
548.203
551.417
559.963
546.629
550.216
556.157
561.371
549.246
552.73
560.592
562.648
552.267
554.678
564.31
564.029
555.901
558.901
567.447
555.953
559.581
565.637
570.057
560.075
562.482
571.063
571.926
564.354
567.463
574.802
564.734
567.584
574.179
577.068
568.933
570.966
578.729
569.376
572.015
577.65
581.066
573.309
575.165
582.253
573.79
575.806
581.605
584.206
577.362
579.877
585.431
577.955
579.08
585.47
578.402
580.136
584.732
587.761
581.543
583.927
541.196
547.779
551.051
535.361
536.994
544.861
538.021
533.301
538.319
546.256
537.642
534.548