/*--------------------------------*- C++ -*----------------------------------*\
| =========                 |                                                 |
| \\      /  F ield         | OpenFOAM: The Open Source CFD Toolbox           |
|  \\    /   O peration     | Version:  v2012                                 |
|   \\  /    A nd           | Website:  www.openfoam.com                      |
|    \\/     M anipulation  |                                                 |
\*---------------------------------------------------------------------------*/
FoamFile
{
    version     2.0;
    format      ascii;
    class       volScalarField;
    location    "1e-06";
    object      p;
}
// * * * * * * * * * * * * * * * * * * * * * * * * * * * * * * * * * * * * * //

dimensions      [1 -1 -2 0 0 0 0];


internalField   nonuniform List<scalar> 
10193
(
101489
100922
103319
103280
99646.6
102233
101040
100501
99038.1
98977.3
99216.7
98203.7
97127.5
96762.1
96751.9
95611.8
94413.9
94361.8
94365.3
93250
92578.1
91875.2
92975.2
90804.8
90595.9
90358.2
90171.5
89304.9
88288
88127.5
87697.5
87115.3
85595
86891.6
85255.9
84304.1
84164.8
83927.7
83375.2
81709.3
82595
81331
80680.2
80046.9
79878.6
79348.5
77433.8
78529.4
77191.9
76102
75753.3
75628.5
74944.7
73282.1
74013.3
72695.3
71303.1
71861.6
71259.2
70448.1
68640.9
68864.5
68196.4
66326.4
66429.7
65774.5
63599.4
64170.1
63406.3
61941.2
61237.2
61068.2
60118.7
58491.7
58244
101498
100938
103331
103288
99651.1
102232
101040
100481
99024.3
98966.9
99205.2
98180.7
97104.4
96753.1
96744
95613.1
94418.1
94367.7
94370.6
93251.8
92579.1
91879.4
92981.3
90806
90592.7
90355.5
90172.1
89291.6
88281.6
88123.6
87693.1
87099
85594.9
86891.5
85238.3
84298.7
84160.6
83927.8
83356.4
81709.6
82569.3
81331.1
80686.3
80039.4
79878.8
79328.6
77434.5
78516.7
77192.1
76108.4
75755.4
75632.5
74948.8
73285.8
74019.9
72695.5
71296.6
71818.6
71222.1
70407.6
68615.4
68836.2
68143.3
66291.4
66422
65735
63592.5
64115.8
63367.5
61942
61204
61044.6
60083.8
58471.8
58252.5
101470
100920
103316
103279
99643.4
102226
101041
100470
99035
98984.3
99212.8
98182.4
97112.3
96763.6
96744.4
95599.4
94413.5
94363.9
94367.5
93234.6
92565.7
91874.6
92974.5
90796.3
90592.6
90352.7
90165.1
89278.9
88283.8
88124.4
87685.7
87080.5
85598.3
86889.1
85221.1
84299.7
84157.2
83920.6
83337.1
81719.1
82594.3
81332.5
80650.5
80032.9
79871.6
79307.4
77451.2
78516
77193.6
76084.5
75747.5
75617.1
74921.6
73281
74004.2
72669
71305.7
71828.7
71231.1
70411.3
68635.4
68845.4
68160.9
66308
66434
65739.1
63616.2
64190.6
63369.9
61897.7
61206.7
61044.7
60049.6
58472.5
58222.7
101473
100927
103319
103279
99644.7
102229
101041
100450
99027.7
98985.6
99210.1
98169.9
97095.2
96761.7
96741.6
95599.4
94413.7
94364.9
94365.5
93235.5
92566.1
91876.3
92971.9
90796.8
90594.2
90349.9
90162.2
89263.7
88283.9
88119
87686.5
87060.3
85601.7
86883.9
85216.7
84300.7
84152.2
83920.6
83314.6
81727
82556.6
81333.6
80657.8
80025.8
79872.3
79282.3
77462.9
78490.5
77195.2
76088.5
75742.4
75617.2
74922.5
73281.2
73999.7
72671.1
71311.9
71800.6
71214.2
70382.5
68630.2
68844.5
68131.3
66292.8
66436.7
65702.4
63630.4
64101.9
63369.9
61906.5
61189.1
61044.6
60050.9
58455.1
58222.7
101475
100926
103323
103289
99644.9
102224
101048
100439
99027.8
98992.4
99214
98172.1
97086.9
96768.9
96743.8
95601.1
94414
94369.4
94370.9
93236.9
92555
91882.1
92975
90796.9
90590
90351.6
90163.4
89264.5
88286.2
88122.4
87687.1
87039.9
85611
86888.7
85217.8
84301.7
84153.4
83923.2
83293.2
81740.6
82557.8
81335.6
80646
80026.9
79875.1
79257
77481.9
78471.7
77197.3
76088.4
75743
75617.4
74899.9
73284.4
73995.5
72673.1
71325.4
71795.7
71215.6
70348.3
68637.7
68848
68132
66287.8
66451.9
65668.4
63649.9
64112.4
63371.2
61909.1
61191.7
61044.5
60007.7
58457.2
58222.7
101461
100915
103318
103288
99639.4
102214
101051
100414
99018.3
98992.1
99209.8
98154.7
97068.4
96768
96739.3
95584.5
94407.7
94366.4
94371.8
93224
92536.3
91882.3
92973.5
90788.2
90581.5
90347.8
90155.4
89241.3
88279.1
88124.3
87677.7
87005.5
85616.2
86882.7
85194.1
84294.2
84148.4
83915.7
83257.5
81751.3
82551.4
81335.8
80624.8
80018.7
79870.6
79219.2
77499.1
78472.1
77200.8
76069
75736.9
75610.1
74867.8
73284
73987.8
72674.4
71334.1
71776.2
71193.4
70304.5
68639.6
68842.4
68091.9
66273.1
66455.3
65626.6
63666.9
64091.7
63341.6
61874.9
61181.7
61031.4
59959.5
58442
58206.1
101461
100923
103318
103286
99637.2
102214
101059
100390
99012.5
99003
99210.9
98140.6
97053.7
96774.6
96737.8
95584.8
94407.9
94370.1
94370.2
93225.7
92537.5
91886
92961.1
90789.2
90584.2
90349.1
90149.5
89225
88281.4
88125.8
87678.8
87006.8
85627.4
86867.3
85194.1
84297.8
84144.3
83916.4
83235.8
81769
82525.8
81337.8
80627.6
80012.2
79872
79193.3
77523
78435.8
77205.1
76073.1
75731.3
75604.1
74870.6
73286
73970.8
72677.3
71359.1
71751.9
71171.7
70297.5
68647.5
68839
68062.9
66267
66453.9
65588.7
63694.8
64060.4
63341.7
61881.9
61170
61020
59962.9
58425.3
58188.4
101450
100914
103317
103290
99632.5
102202
101068
100367
99004.7
99008.5
99211.5
98125.2
97036.7
96779.2
96738.2
95569.1
94403
94372.7
94374.5
93213.6
92514
91890.2
92972.4
90782.1
90576.7
90350.8
90142.2
89203.7
88282.3
88131.9
87674.4
86962.9
85639.5
86873.1
85171.7
84295.2
84145.1
83916.5
83201.8
81786.4
82518.4
81338.3
80618.1
80006.4
79872.2
79157.9
77544.6
78434.2
77209.4
76072.8
75731.8
75595.6
74833.2
73287.8
73975.6
72678.8
71363.6
71741.9
71148
70251.9
68661.7
68835.3
68023.6
66265.1
66460.3
65548.8
63715.5
64036.9
63340.5
61884.4
61173.5
61008.8
59911.9
58431.2
58172.9
101450
100911
103316
103288
99627.8
102198
101079
100332
98995.9
99021.2
99213.6
98105.6
97019.6
96786.5
96736
95551.5
94399.2
94376.2
94369.7
93200.7
92503.5
91894.6
92946.1
90775.3
90579.4
90352.5
90131
89182.1
88284.4
88133.2
87664.6
86937.1
85653.2
86849.8
85147.9
84300.9
84140.2
83907.5
83171.7
81805.6
82498
81333.5
80619.5
79997.9
79865.4
79126.9
77567.4
78397.8
77210.6
76077.8
75722.6
75585.3
74833.6
73287.4
73951.1
72682.6
71386
71719.5
71121.1
70219
68678.2
68828.1
67986.1
66269.7
66454.9
65508.9
63745.5
64011.9
63308.4
61888.3
61154.1
60994.7
59915.6
58414.8
58154.4
101453
100916
103326
103306
99628.3
102193
101102
100315
98989.9
99036
99224.5
98108.1
97005.9
96798.3
96742.6
95555.7
94405.1
94389
94380.3
93203.5
92489.5
91910.8
92959.4
90777.4
90580.7
90360.4
90133.4
89164.6
88289.4
88146.4
87667
86906.2
85676.4
86851.9
85148.7
84304.6
84145.5
83911.1
83142.6
81830.8
82493.7
81335.5
80620.9
80001.9
79868.9
79096.4
77595.7
78386
77212.6
76080.4
75725.3
75586.5
74801.4
73295.4
73955.7
72691.1
71399.7
71722.1
71099.6
70170.8
68707.5
68828.6
67945.5
66281.1
66467.7
65500.9
63769.4
64004.7
63311.2
61889.6
61162.8
60984.4
59860.6
58422.7
58155.9
101432
100891
103312
103300
99617.2
102170
101107
100275
98973.7
99035.5
99218.8
98080.2
96979.2
96795.8
96735.6
95530.6
94385.9
94384.9
94379.3
93186.4
92452.4
91911.4
92946.6
90764.9
90568.2
90361.3
90113.3
89131.5
88280.6
88150.1
87651.4
86854.5
85686.2
86835.7
85117.4
84295
84140.8
83896.7
83096.8
81841.2
82480.2
81313.2
80594.6
79994
79858.3
79051.6
77609
78365.2
77185.8
76058.3
75718.6
75572.9
74754.4
73293.3
73938.3
72692
71404.2
71705.4
71067.7
70111.4
68722.4
68812.8
67887
66276
66462.7
65452.9
63780.9
63987.6
63275.2
61841.3
61148.5
60964.5
59795.9
58412.1
58132.5
101437
100888
103312
103302
99612.9
102165
101124
100237
98963.6
99053.5
99222.8
98056.3
96960.9
96805.3
96736.3
95511
94395.9
94392.8
94376
93188.5
92461.1
91920.5
92930.2
90764.8
90573.5
90365.4
90097.3
89109.2
88282.9
88153.7
87638.9
86829
85705.3
86813.4
85091.6
84303.6
84140.9
83885.8
83068.3
81861.2
82453.7
81313.5
80601.2
79987.1
79850.9
79023
77630.4
78329.4
77187.3
76067.9
75711.6
75560.8
74755.9
73294.1
73913.4
72693.5
71429.4
71684.8
71038.7
70070.8
68741.5
68799.1
67844.6
66281.7
66448.3
65453.8
63809.6
63955.3
63245.8
61852.2
61132.2
60943
59799.2
58388.2
58103
101442
100877
103309
103307
99607
102150
101138
100202
98951.5
99063.7
99225.9
98032.1
96939
96811.5
96738.3
95490.4
94381.1
94399.7
94377.9
93189
92415.1
91932.7
92926.1
90756.7
90566.6
90370.8
90079
89081.1
88285.3
88165.6
87624.6
86783.1
85725.3
86801.9
85064.1
84305.8
84143.3
83871.9
83029.5
81880.6
82446.9
81291.9
80581.6
79989.1
79842.5
78985.5
77651.5
78316.3
77188
76069.4
75714.1
75549.5
74712.2
73297.8
73907.6
72695.1
71438.8
71671.9
71009.5
70022
68766.6
68786.3
67796.2
66293.2
66448.3
65450.6
63831.8
63944.5
63246
61831.5
61137.9
60921.6
59745
58397.1
58083.1
101447
100871
103307
103309
99601.8
102144
101154
100157
98940.1
99083.7
99229.5
98003.5
96919
96821.9
96739.2
95468.4
94378.6
94408.6
94373.3
93189.9
92417.3
91946.3
92903.6
90756.6
90574
90376
90056
89056.1
88288.8
88170.4
87609
86753.7
85746.9
86771.4
85037.6
84317.5
84144.2
83854.7
83000.9
81900.3
82419.2
81289.8
80588.6
79981.8
79830.3
78957.1
77673.8
78279.9
77188.9
76080.4
75705.5
75535.1
74712.8
73302.9
73872.1
72699
71467.3
71647.3
70977.8
70022.7
68785.5
68767.4
67796.8
66304
66432.1
65451.8
63865.8
63915
63246.1
61842.7
61119.5
60897.8
59749
58399.7
58052.4
101453
100858
103301
103317
99595.1
102129
101169
100115
98926.3
99095.4
99232.7
97974.4
96898.1
96828.2
96740.9
95445.4
94367.3
94417.1
94374.2
93175.8
92386
91961.2
92893.5
90748.6
90566.8
90383
90032.2
89026.2
88291
88182.9
87589
86711
85771.1
86752.7
85009.5
84320.8
84148.3
83834.8
82963.8
81920
82409.5
81266.4
80569.6
79984.6
79817.8
78919.5
77695.8
78263.4
77174
76083.5
75708.4
75519.9
74667.2
73310.5
73862.1
72699.2
71481.5
71628
70943
69979.8
68809.5
68748.7
67749.2
66317.3
66429.8
65420.7
63887.5
63902.9
63217.5
61844.4
61124.6
60870.9
59694.1
58404.9
58032.7
101460
100850
103298
103320
99589.6
102124
101186
100067
98913.4
99118.4
99236.3
97941.9
96879.3
96840.8
96742.2
95421.9
94360.8
94428.1
94369.7
93177.2
92367.4
91977.1
92865.7
90748.5
90575.9
90389.9
90002.8
89000.3
88296.4
88188
87567.5
86682.2
85796.7
86714.1
85009.8
84333.5
84150.5
83812.2
82937.1
81940.5
82378.9
81248
80577.7
79978.7
79801.2
78919.8
77718.8
78223.8
77156.3
76096.2
75697.7
75502.4
74669.1
73319.1
73823
72703.3
71513.5
71599
70905.1
69983.8
68822.3
68721.7
67751.3
66330.6
66409
65422.8
63923.4
63870.1
63217.2
61853.9
61111.1
60841.8
59702.9
58408
57997.5
101469
100839
103294
103333
99584.5
102112
101202
100027
98899.3
99134.4
99241.7
97911.5
96859.8
96850.1
96745.2
95399.3
94351.2
94438.7
94374.6
93177.6
92338.2
91997.5
92858
90748.5
90574.2
90398.4
89976.7
88969.5
88301.3
88202.5
87542.4
86641.9
85826.8
86693.2
85010
84337.9
84153.8
83787.7
82902.5
81960.1
82372.5
81244.4
80559.8
79980.5
79785
78882.9
77741.3
78211.3
77147
76099.7
75699.3
75484.2
74624.3
73333.5
73812.8
72664.1
71530.5
71581.1
70865.9
69944.3
68839.5
68697.4
67703
66347
66405.9
65423.7
63946.5
63858.4
63173.4
61842.3
61116.7
60810.8
59648
58419.3
57974.9
101476
100804
103257
103308
99566
102083
101204
99952.1
98873.6
99140.1
99223.1
97856.6
96828.5
96845.9
96723.4
95358.4
94327.2
94430.9
94352.3
93147.5
92297.8
91995.1
92803.9
90731.3
90568.8
90386.1
89925.4
88929.3
88290.9
88189.9
87506.5
86594.7
85833.7
86631.8
84974.9
84342.4
84134.6
83746.6
82863
81960.2
82321.4
81212.1
80564.1
79952.5
79751.3
78841.5
77746.5
78153.8
77108.5
76107.2
75668.1
75450.6
74577.3
73327.4
73758.8
72619.4
71552.4
71531.1
70818
69904.7
68824.1
68655.2
67651.8
66347
66371
65371.9
63969.6
63800.2
63124.2
61851.8
61069.8
60770.2
59650.6
58363.7
57928.7
101503
100830
103282
103344
99575.5
102103
101243
99925.9
98869.4
99184.7
99247.5
97857.6
96822.5
96880.7
96741.1
95364.1
94340.7
94464.3
94369.1
93153.1
92304.4
92039.5
92797.4
90734.6
90592.2
90412.6
89904.2
88932
88318.2
88211.4
87487.9
86600.3
85882.5
86610
84978.5
84366
84149.4
83726.7
82869.4
81999.2
82315.2
81212.9
80577.1
79963.3
79737.6
78848
77788.5
78140
77108.7
76125.1
75675.9
75432.1
74583.2
73360.1
73739.4
72623.8
71602.2
71514.1
70779.4
69920
68842.7
68626.4
67660.5
66385.2
66361.1
65375.2
64014.7
63779.7
63111.5
61867.9
61077.7
60731.5
59660.3
58374.5
57889.3
101515
100812
103266
103352
99568.7
102083
101255
99878.6
98849.8
99196
99247.5
97820.6
96797.7
96885.3
96743.4
95335
94323.9
94466.2
94372.7
93128.2
92262.6
92059.8
92775.8
90720.5
90594.1
90418.6
89872.3
88894.1
88320.6
88222.1
87457.2
86554.2
85909.5
86579
84942.8
84369
84154
83699.8
82828.5
82015.8
82299.7
81179.4
80555.8
79967.3
79716.8
78802.7
77808
78120.6
77068.2
76130.4
75679.7
75407.7
74526.4
73376.6
73716.7
72577
71612.5
71497.8
70734.6
69871.7
68857.8
68595.7
67599
66405.6
66352.2
65314.3
64028
63776.8
63059.6
61868
61086.7
60687.2
59590.5
58387.8
57889.1
101532
100807
103256
103358
99570.2
102075
101268
99828.1
98834.3
99216.8
99249.3
97779.3
96777.7
96899.4
96745.1
95303.5
94317.1
94479.9
94373.8
93105
92243.6
92083.4
92747.3
90709.9
90609.5
90423.9
89831.3
88864.5
88332.5
88225.7
87425.1
86528.1
85939.1
86538.6
84917.4
84381.5
84155.3
83666.5
82823.8
82038.7
82276.6
81165.1
80563.4
79970.2
79684.6
78804.3
77835
78090.9
77040.1
76140.2
75665.4
75373.3
74528
73396.2
73677.6
72580.3
71633.7
71464.4
70691.4
69876.4
68864
68551.3
67602.6
66426.2
66324
65316.8
64049.3
63741
63059
61877.9
61090.8
60641.8
59598.7
58395
57842.3
101552
100795
103242
103369
99573.1
102055
101280
99784.5
98819.2
99224.7
99249.8
97743.7
96755.4
96902.2
96748.7
95275.1
94301.7
94485.4
94380.8
93078.1
92212.1
92104.4
92727.6
90697.7
90612.9
90429.6
89796.7
88829.2
88335.8
88236.1
87392.3
86482.9
85965.5
86510.3
84883.5
84387.8
84160.1
83637.7
82784.1
82053.5
82263.2
81133.8
80564.9
79976.6
79657.5
78760.8
77854.7
78072
77001.8
76146.1
75671
75343.1
74473.9
73415.4
73653.6
72534.5
71640.8
71439.3
70648.1
69832.5
68876.9
68515.8
67544.3
66439.9
66309.1
65257.6
64065
63740.7
63007.2
61885
61103.6
60599
59601.1
58407.4
57844.8
101575
100795
103231
103371
99582.4
102045
101294
99733.4
98807.5
99242.4
99249
97701
96739.4
96914.3
96749.9
95243.8
94295.3
94497.2
94383.5
93052.4
92196.2
92127.8
92695.3
90686
90633.6
90435.5
89752.3
88801
88349.4
88239.3
87358.8
86454.1
85990.9
86468.3
84851.6
84407.3
84161.3
83601.3
82761.8
82073.9
82238.2
81101.7
80573.6
79980.7
79619.2
78761.9
77881.2
78040.8
76980.6
76158.2
75671.8
75303.5
74457.9
73437.1
73615.1
72535.2
71656.5
71400.8
70600.9
69838.8
68885
68466
67546.3
66455.9
66271.8
65259.3
64085.8
63701.1
62951.4
61892.9
61109.5
60548.1
59613.9
58419.4
57844.2
101601
100794
103221
103385
99601.9
102026
101310
99697.6
98800.8
99248.8
99251.5
97669
96722.7
96918
96755.9
95244.9
94282.6
94503.7
94398.7
93054.3
92172.1
92154.5
92683.1
90676.8
90641.9
90444.5
89718.7
88767.7
88355.3
88253.7
87327.9
86416.7
86018.9
86447.6
84820.7
84413
84169.6
83572.2
82726.2
82089.8
82233.4
81070.6
80574.1
79989.7
79591.2
78720.4
77900.5
78031.2
76942.3
76163
75678.9
75271.7
74405.5
73455.8
73600.9
72488.3
71662
71374.8
70557.5
69795.6
68897.9
68428.4
67488.9
66467.4
66272.1
65199.4
64102.1
63703.4
62901.9
101607
100748
103147
103323
99589.1
101970
101251
99600.5
98767.1
99226.5
99200.7
97589.8
96684.5
96889.9
96707.2
95185.4
94247.5
94469.5
94357.9
93003.1
92125.5
92135.1
92608.4
90645.1
90632.4
90400.4
89642.4
88716.2
88331.5
88213.7
87269.9
86361
86005.4
86368.3
84773.2
84400.7
84122.5
83508.4
82676.1
82075.3
82167.2
81015.3
80547.7
79945.1
79524.3
78667
77893.5
77963.4
76883.2
76164.7
75630.9
75204.1
74343.3
73446.4
73528.6
72425.5
71655.3
71296.6
70485.4
69743.7
68847.2
68349.7
67424.4
66463
66199.4
65127.4
64118.2
63633.9
101655
100815
103194
103373
99639.5
102007
101294
99615.4
98783.1
99282.1
99236.1
97600.8
96697.8
96940
96738.3
95200.7
94277.9
94522.3
94398.9
93017.9
92153.8
92202.3
92615.8
90658.3
90691.4
90434.2
89646.1
88725.7
88383.2
88246.1
87277.9
86375.7
86069.5
86361.9
84784
84450.7
84147.1
83513.4
82691.1
82130.4
82179
81023.2
80570.6
79969.3
79527.3
78681.4
77951.5
77967.6
76893.3
76190.8
75649.9
75207
74357.1
73502.7
73524.1
72438.2
71682.5
71306.2
70490.3
69762.6
68870.6
68351.3
67440.5
66495.8
66202.4
65139.7
64161.7
101677
100810
103164
103368
99655
101975
101296
99572.6
98771
99273.8
99220.6
97562.1
96677.9
96928.9
96738.9
95201.1
94256.8
94510.7
94404.9
92986.5
92121.6
92215.8
92592.8
90642.8
90694.4
90439.6
89604.5
88685.1
88383.8
88251.1
87238.3
86330.3
86083.1
86333.3
84752.1
84454.8
84153.6
83477.8
82647.2
82136.4
82167.7
80981.8
80547.3
79977.3
79491.1
78632.8
77962.3
77954.2
76847.2
76195.1
75659
75167.1
74296.2
73517.2
73506.9
72384.6
71687.8
71306.8
70438.1
69715.8
68884
68305.8
67379.4
66510
66175.6
65074.3
101702
100834
103151
103356
99679.5
101966
101299
99521.1
98765.2
99285.3
99205.6
97513.8
96669.8
96937.9
96724.5
95177.7
94256
94516.8
94405.6
92988.4
92115.4
92237.7
92557.7
90633.1
90719.3
90442.7
89552.4
88660
88397.8
88251.8
87198.1
86312.6
86103.2
86291.1
84726.9
84473.5
84156.3
83434.4
82648.4
82157.3
82145.1
80942.7
80556.7
79984.7
79444
78634.8
77986.5
77926.6
76804.9
76208.5
75663.6
75118.3
74297.2
73539.9
73472
72384.7
71701.7
71264.4
70383.3
69724
68896.6
68247
67384.8
66528.9
66124.9
65079.2
101732
100851
103143
103367
99720.6
101947
101311
99524.7
98770.4
99283.3
99205.8
97517.2
96663
96934.8
96729.6
95181.3
94248.1
94518.6
94422.6
92993.7
92098.7
92264.9
92548.6
90629.5
90730.5
90452.9
89519.3
88631.6
88403.5
88262.5
87200.5
86285.6
86125.5
86277.4
84706.2
84479.9
84168.6
83434.8
82612.3
82170
82146.7
80942.6
80557.4
79999.7
79431.2
78592.7
77998.3
77927.5
76807
76214.2
75676.8
75090.7
74243.6
73553.3
73468
72361.5
71705.3
71270.2
70380.1
69724.9
68913.4
68248.3
67330.6
66546.2
66135.7
65080.4
101671
100800
103032
103255
99695.5
101874
101201
99402.9
98723.4
99236.3
99114.8
97413.7
96618.9
96881.9
96645
95101.1
94204
94459.6
94351.3
92923.2
92045.3
92218.2
92450.4
90583.9
90703.3
90374.8
89421.2
88573.6
88360.7
88189.4
87120
86230.9
86081.8
86180.1
84650.7
84449.3
84095
83346.5
82549.8
82128.9
82063
80865
80512
79932.7
79337.9
78526
77961.8
77839.6
76724.6
76170.8
75604.8
74995.7
74169.1
73513.7
73373.6
72276
71652.8
71169.7
70283.9
69657.6
68841.5
68139.6
67253.7
66496.3
66031.7
64990.2
101730
100917
103117
103313
99770
101938
101257
99426.3
98757.1
99312
99161.7
97435.1
96655.6
96954.8
96685.9
95124.4
94257.2
94536.8
94403.6
92949.3
92101.5
92305.9
92472.4
90615.5
90780.8
90419.7
89434.2
88597.9
88437.1
88230.1
87138.4
86274
86163.3
86194.4
84671.2
84517.2
84137.1
83362.1
82573.4
82197.6
82089.1
80878.6
80551.7
79975.7
79350.5
78547.1
78025.1
77856.8
76742
76208.5
75638.6
75010.3
74192.4
73574.3
73387.2
72296.2
71687.4
71195.6
70301.1
69688.3
68884.5
68155.2
67279.6
66544.2
66056.2
65016.7
101755
100936
103100
103308
99801.5
101912
101262
99433
98749.6
99303.9
99143.2
97438.9
96640.5
96946.5
96690.1
95131.4
94241.9
94531.2
94410.3
92954.2
92082.2
92320.2
92455
90604.2
90785.5
90429.6
89395.2
88570.1
88439.9
88236.8
87131.7
86249.5
86173.9
86177.7
84653
84521.3
84149.3
83349.9
82534
82202.4
82076.1
80840.5
80551.8
79989.4
79313.4
78502.5
78031.8
77834.9
76694.5
76213.3
75651
74965.1
74139.1
73584.8
73357.1
72241.3
71693.2
71201.3
70263.4
69691
68902.8
68156.7
67280.6
66561
66062.8
65018.6
101676
100873
102971
103170
99763
101819
101128
99302.1
98679.9
99240.3
99025.6
97321.1
96574.8
96880.1
96583
95035
94184.3
94459.9
94319.9
92868.8
92018
92253.4
92347.3
90543.1
90736.1
90329.2
89286.1
88502
88381.2
88144.1
87037.5
86185.3
86108.9
86075.3
84586.6
84469.2
84059.7
83249.3
82456.8
82139.2
81980.7
80754.8
80487.4
79904.8
79208
78420.7
77969.8
77732.4
76597.8
76149
75562.9
74857
74050.2
73518.6
73245.1
72138.6
71619.8
71091.9
70155
69605.7
68816.8
68036.7
67186.7
66494.9
65952.2
64913
101747
101015
103082
103230
99854.9
101899
101200
99337.6
98723.4
99332.6
99084.5
97349.3
96617
96968.2
96636.7
95063.5
94249
94558.2
94380.6
92901.5
92093.2
92358.1
92381.7
90590.3
90828.2
90389.8
89309.7
88545.7
88474.9
88190.3
87064.5
86249.7
86204.9
86101.7
84628.9
84553.7
84114.1
83270.1
82491.6
82218.7
82010.4
80778.2
80545.3
79958
79228.8
78450.9
78040.9
77755.7
76623.5
76203.9
75604.5
74879.6
74083.1
73585.4
73266.9
72167.4
71667
71125.1
70180.9
69647
68867.4
68063.9
67228
66552.2
65984.2
64946.6
101763
101010
103049
103212
99869.5
101848
101152
99340.3
98690.2
99302.9
99048.6
97353
96578.6
96938.6
96637.5
95065
94212.8
94535.2
94383.3
92861.4
92053.8
92350.3
92364.1
90560.4
90807.7
90394.4
89293.9
88504.6
88459.7
88194.2
87010.8
86210.7
86201.6
86075.7
84596.8
84540.9
84122
83221.6
82438.7
82215.2
81983.8
80726.5
80511.9
79968.6
79178.6
78392.8
78043.7
77741.2
76556.6
76171.8
75616.2
74821.9
74018.5
73592.2
73247.3
72094.6
71669.5
71131.4
70113.5
69618.3
68886.6
68034.9
67164.7
66573.5
65996.9
64894.1
101783
101043
103040
103168
99893.2
101840
101158
99292.5
98670.7
99309.4
99008.8
97304
96559.2
96941.3
96608.3
95068
94209
94541.6
94364.2
92865.5
92051.4
92357.2
92334.2
90548.7
90816.5
90399.8
89243.2
88488.2
88473.9
88195
87011.6
86204.6
86212.2
86038.4
84580.5
84559.9
84131.1
83171.2
82439.4
82225.7
81949
80691.1
80519.7
79980.8
79125.7
78393.2
78055.4
77696.3
76505.9
76181.7
75626.4
74782.1
74019.7
73606.4
73221.6
72094.1
71679.1
71140.5
70109.3
69626.8
68906.8
68036.8
67173.4
66597.2
66009
64903.3
101823
101065
103040
103183
99946.8
101813
101178
99322.3
98681
99302
99018.5
97328.6
96549.7
96930.9
96623.7
95086.8
94201.8
94545.4
94381.9
92888.7
92038
92375.8
92347.4
90556.8
90816.1
90418.7
89256.4
88473.8
88481.4
88214
87028
86184.4
86228.3
86049.4
84581.8
84567
84154.3
83185.7
82410.7
82234.2
81964.6
80694.7
80521.6
80002
79138.2
78370.6
78063.5
77711.6
76513.5
76188.3
75646.6
74794.5
74005.3
73618.1
73240.2
72100.9
71684.7
71157
70120.7
69635.9
68931.3
68053.2
67184.1
66623.3
66045
64924.1
101694
100971
102862
102975
99858.3
101691
100986
99132.3
98572.2
99207.3
98844.1
97169.7
96452
96827.1
96468.6
94945.2
94115.2
94434.1
94235.5
92758.1
91950.5
92256.8
92198.4
90457.8
90732.4
90274.3
89106.7
88383.6
88385.1
88071.5
86890.2
86100.3
86113.1
85899.9
84482.2
84486.7
84014.9
83034.2
82310.2
82128
81813.3
80572.3
80431.9
79872.1
78981.6
78259.7
77957.6
77551.5
76377.8
76096.3
75513.3
74634.9
73890.7
73505.6
73073.3
71955.7
71578
71002.3
69960.7
69527.5
68801.3
67883.3
67060.1
66514.3
65887.7
64780.7
101800
101139
103030
103069
99965.3
101800
101105
99189.4
98633.3
99325.8
98924.6
97214.5
96514
96950.3
96545.6
94992.1
94205.7
94570.4
94317.2
92809.8
92050.7
92393.5
92267
90527.9
90845.5
90362.4
89153.8
88458.4
88511.3
88149
86936.3
86191.2
86244.2
85963.9
84553.9
84599.7
84104.4
83080.9
82371.8
82240.8
81878.6
80622.3
80515.5
79960.8
79027.6
78307.1
78056.8
77608.2
76417.1
76171.9
75593.9
74683.1
73937.5
73604
73126.1
71996.2
71651.1
71066
70002.8
69584.3
68880.4
67942.7
67115.5
66607.2
65962.2
64843
101833
101150
103015
103062
99988.5
101765
101121
99199.1
98630.6
99316.1
98928.9
97222.2
96490.6
96941.8
96552.5
95001.9
94188.2
94569
94321.2
92822.4
92031.8
92395
92248.4
90512.8
90844.9
90375.4
89157.3
88434.4
88511.5
88157.2
86945.1
86163.3
86242.9
85965.8
84540.2
84601.6
84121.5
83088.7
82346.6
82243.1
81888.6
80602.9
80516.1
79978.8
79035.8
78306.9
78061.6
77620.3
76420.8
76177.7
75610.1
74691.1
73937.8
73610.6
73141.3
72002.3
71656.9
71084.9
70014.6
69596.1
68904.4
67959
67129.4
66629
65990.7
64863.9
101670
101029
102812
102825
99846.8
101623
100907
98974.8
98483.2
99203.9
98729.9
97021.3
96357.2
96826.5
96361.6
94819.6
94073
94443.9
94137
92652.5
91926.3
92250.8
92069.5
90374.2
90742.5
90202.2
88973.7
88311.2
88393.9
87979.2
86772.4
86053.5
86098.9
85779.4
84405.3
84490.1
83957.6
82909.7
82220.7
82109.5
81708.8
80453.9
80403.8
79822.9
78850.8
78164.4
77925.3
77436.9
76260.1
76055.9
75451.9
74503.2
73792.1
73466.7
72952.1
71827.3
71518.4
70906.8
69823.5
69456.6
68745.4
67763.1
66972.6
66487.5
65809.5
64688.6
101796
101212
103010
102934
99957.6
101754
101048
99037.6
98556.5
99339.6
98830.3
97071.4
96435.9
96975.8
96448.1
94873
94181
94608
94221.1
92711.2
92050.8
92410
92150.5
90459.6
90878.5
90310.6
89028.5
88407.9
88542.6
88065.6
86832.5
86170
86249.7
85852.8
84502.2
84614.2
84061.5
82970.3
82311.5
82239.3
81787.2
80536.9
80511.6
79925
78911.2
78240.1
78036.8
77510.2
76333.2
76150.4
75546.8
74567.3
73869
73579.4
73025.7
71894.7
71610.9
70988.2
69887.2
69541.8
68841.5
67840.2
67053.6
66600.2
65902
64771.3
101818
101210
102999
102922
99935.1
101731
101074
99042.3
98527.8
99334.8
98841.1
97062.5
96396.1
96974.3
96460.9
94833.9
94151.3
94615.6
94227
92705.1
92030.4
92413
92114.8
90414.9
90877
90329.2
88997.7
88368.6
88546.1
88076.4
86797.5
86135.9
86249.2
85859.8
84465.3
84617.9
84083.5
82975.2
82279.4
82244
81799.7
80497.7
80512.9
79946.7
78915.2
78207.3
78043.4
77523.2
76295.9
76157.6
75567.5
74573.7
73869
73588.2
73037.3
71894.6
71619.9
71006.3
69890.3
69555.1
68870.3
67857.1
67068.9
66626.3
65933.9
64793.8
101631
101046
102770
102661
99741.2
101555
100831
98801
98349.2
99192.8
98610.7
96835.8
96227.2
96826.1
96240.6
94632.8
93997.5
94463.1
94018.1
92512.8
91883.2
92241.6
91915.1
90247.1
90730.7
90122.9
88795.6
88208.6
88392.5
87871.3
86604.8
85981.1
86067.5
85655.8
84298.6
84466.3
83891.9
82781
82118.6
82079.8
81604
80334.2
80359.7
79758.6
78714.7
78038.6
77872.5
77329.3
76127.8
75998.5
75382.2
74370.9
73688.1
73408.6
72836
71703.1
71441.5
70811.1
69689.4
69375.4
68682.4
67648.3
66881.4
66451.5
65745
64600.8
101758
101257
103010
102783
99841.1
101707
100997
98875.9
98428.3
99354
98735.5
96893.1
96323.7
96997
96351.9
94692.5
94121.8
94655.5
94115.7
92577
92034.4
92433.7
91998.8
90353.7
90901.2
90253.3
88860.5
88333.7
88569.7
87969.4
86681.8
86128.7
86243.4
85738.7
84416.4
84621.9
84007.2
82853
82245.6
82238.5
81687.2
80450.9
80504.6
79870.1
78788.1
78156.9
78013.8
77412.7
76246.1
76143.9
75487.7
74450.3
73809.2
73544.7
72923.2
71815.8
71569.1
70907.4
69788.6
69507.7
68799.1
67744.4
67010
66600.3
65857.2
64723
101704
101215
102978
102753
99766.3
101639
101005
98823.9
98335.9
99305
98739.7
96814.8
96234.7
96958.4
96361.1
94604.8
94041
94629.7
94123.1
92474.7
91964.9
92417.1
91975.2
90264.8
90857.8
90265
88783.1
88255
88544.1
87978.5
86590.5
86062
86230
85742.3
84346.9
84594.4
84022.4
82770.3
82182.9
82227.2
81696.6
80385.8
80475.1
79885.2
78726.2
78094.5
78007.8
77422.7
76185.4
76114.7
75504.3
74413
73744.5
73548.9
72931.3
71750.8
71570.8
70926.5
69755.5
69509.2
68830.5
67760.2
67014.7
66634.1
65894
64736.4
101714
101208
102968
102700
99730.2
101614
101020
98800.7
98288.3
99285.6
98746.7
96746.9
96187.2
96952.9
96372.2
94571.3
94006.1
94636.8
94132.5
92460.1
91934.6
92422.4
91977.9
90227.7
90845.1
90276.8
88783.8
88223.9
88543.9
87987.5
86595.1
86042.5
86236.8
85751.5
84333.6
84596.4
84037
82781
82178.6
82234.6
81711.8
80380.3
80475.8
79901.2
78735.3
78093.6
78012.4
77440.8
76186
76118.9
75526.9
74429.3
73754.7
73562.2
72951
71759.6
71578.9
70953.9
69774.5
69528.4
68866.8
67794.2
67045
66677.2
65958
64792.8
101724
101191
102967
102707
99690.6
101577
101037
98816.1
98249.3
99252.2
98761.8
96755.4
96137.1
96933.3
96396.5
94577.2
93962.5
94633.5
94153.4
92461.5
91892.8
92431
91993.8
90187.1
90828.4
90302
88789.8
88184.2
88540.5
88008.2
86596.4
86007.3
86251.1
85768.4
84309.9
84599.2
84059.9
82787.6
82165.6
82246.2
81731.8
80364.3
80482.1
79926.5
78745.4
78093.2
78023
77460.2
76185.4
76129
75549.3
74439.9
73758.4
73578.2
72971.8
71765.3
71592.8
70975.4
69782.2
69546.4
68899.7
67819
67062.9
66707.4
65996.8
64825
101668
101171
102950
102650
99635.3
101546
101041
98748.8
98200.6
99237.4
98770.1
96714.8
96088.8
96924.4
96408.4
94564
93926.2
94633.2
94166.6
92462.6
91861.1
92433
92003.3
90149.4
90815.2
90318.9
88792.8
88148.6
88537.8
88025.1
86596.5
85974.7
86258.2
85778.4
84279
84599.3
84082
82791.8
82150.6
82256.6
81749.7
80344.3
80483.1
79952.5
78754.2
78078.1
78033.7
77481.6
76170.9
76134.6
75578.5
74454.1
73761.9
73594.6
72993.3
71767.9
71605.4
71003.7
69787
69554.6
68929.4
67839
67072.8
66732.9
66031.1
64843.7
101701
101182
102979
102676
99640.7
101528
101074
98775.5
98197.6
99234.2
98803.9
96741.1
96087.7
96934.1
96446.4
94586.4
93925.9
94650.5
94201.8
92491.1
91853.7
92458.8
92038.9
90158.1
90823.4
90354.8
88820.4
88151.1
88551.4
88062
86622.8
85960.4
86280.6
85823.2
84286.6
84617.9
84118.4
82821.6
82156.7
82285.6
81788
80358.7
80508
79989.4
78786.7
78092
78065.7
77526.1
76193.8
76170.6
75623.4
74497.1
73787.3
73626.8
73044.8
71798.6
71638.3
71054.6
69826.6
69596.3
68982.4
67896.9
67119
66786.8
66110.1
64908.4
101470
100978
102715
102409
99414.7
101296
100797
98504.4
97978.1
99036.7
98539.9
96474.8
95889.6
96740.9
96202.8
94336.8
93747.4
94450.8
93961.8
92253.8
91673.2
92241.2
91811.9
89961.8
90646.1
90110
88583.8
87970.6
88353
87824.4
86394
85780.2
86056.1
85601.7
84081.3
84432.1
83880.3
82581.8
81971
82087
81547.1
80158
80327.4
79754.4
78543.4
77906
77868.7
77291.1
76001.2
75991.8
75398.1
74261.8
73597.8
73427.6
72814.4
71602.3
71453.8
70832.2
69622
69413.8
68768.8
67670.5
66930.5
66602.7
65900.3
64717.2
101624
101175
102976
102576
99561.1
101440
101008
98629.5
98078.1
99207.2
98710.9
96565.7
96000.7
96933.1
96354.3
94419.6
93893.4
94664.7
94099.3
92350.3
91838.1
92462
91949.4
90096.3
90835.8
90265.1
88700.7
88133.1
88557.8
87969
86520.4
85955.3
86266.8
85762
84240.5
84615.7
84033.7
82704.8
82136.5
82289.9
81693.8
80321.9
80506
79911.9
78668.8
78076.6
78064.9
77443
76175.9
76172.8
75555.9
74397.2
73766.1
73626.5
72970.8
71775.1
71638.7
70992.9
69796.6
69596.1
68939.5
67826.7
67114.6
66813.9
66089.2
64917.7
101551
101126
102921
102515
99494.7
101355
100995
98595.6
97989.6
99151.9
98701.2
96472.7
95919.4
96892.5
96356.8
94317.8
93825.7
94635.6
94085.1
92241
91782
92432.6
91862.2
90011.1
90798
90244.1
88603.1
88067.5
88524.8
87965.3
86422.6
85905.2
86233.5
85767.5
84183.2
84589.3
84042.9
82666.3
82088.8
82274.5
81702.5
80269.8
80487.3
79927.4
78670.2
78039.6
78063.6
77457.9
76136
76167.6
75576.9
74406.4
73765.4
73638
72989.8
71773.7
71648.1
71014
69794.3
69599
68955.7
67831.4
67111.2
66820.1
66098
64919.9
101556
101102
102902
102462
99468.1
101322
100999
98604.4
97941.8
99128.8
98708
96476.6
95877.7
96883.1
96368.8
94322.1
93796.5
94637.7
94098
92244.2
91759.3
92440.6
91876.1
89984.6
90793.9
90258.9
88613.2
88043.8
88527.1
87978.5
86437.1
85904.4
86236.8
85789.6
84187.4
84593.3
84064.7
82685.9
82095
82286.2
81729
80282.7
80494.9
79955.5
78694.9
78057.1
78081.5
77493.2
76161.4
76185.6
75613.4
74439.3
73782.8
73659.8
73028.7
71795