/*--------------------------------*- C++ -*----------------------------------*\
| =========                 |                                                 |
| \\      /  F ield         | OpenFOAM: The Open Source CFD Toolbox           |
|  \\    /   O peration     | Version:  v2012                                 |
|   \\  /    A nd           | Website:  www.openfoam.com                      |
|    \\/     M anipulation  |                                                 |
\*---------------------------------------------------------------------------*/
FoamFile
{
    version     2.0;
    format      ascii;
    class       volScalarField;
    location    "1e-06";
    object      p_rgh;
}
// * * * * * * * * * * * * * * * * * * * * * * * * * * * * * * * * * * * * * //

dimensions      [1 -1 -2 0 0 0 0];


internalField   nonuniform List<scalar> 
10193
(
101824
101249
103639
103592
99952.3
102531
101332
100787
99316.9
99249.7
99482.9
98463.6
97381.3
97010
96994
95848.1
94644.5
94586.9
94584.9
93464.2
92787.1
92079
93173.9
90998.6
90784.7
90542.2
90350.7
89479.6
88458
88293.1
87858.6
87272.1
85747.6
87040
85400.2
84444.4
84301.1
84060.1
83503.8
81834.1
82716.1
81448.6
80794.2
80157.4
79985.6
79452.2
77534.1
78626.5
77285.8
76192.8
75840.9
75713.1
75026.4
73360.8
74089.1
72768.3
71373.3
71929.1
71324.1
70510.3
68700.5
68921.6
68251
66378.6
66479.5
65821.9
63644.4
64212.9
63446.9
61979.6
61273.3
61102.3
60150.7
58521.6
58271.9
101832
101265
103650
103600
99956.8
102531
101332
100766
99303.1
99239.3
99471.3
98440.6
97358.2
97001
96986.1
95849.4
94648.7
94592.8
94590.2
93466.1
92788.1
92083.2
93180.1
90999.7
90781.5
90539.5
90351.3
89466.2
88451.6
88289.1
87854.3
87255.9
85747.4
87039.9
85382.6
84439
84296.9
84060.2
83485
81834.4
82690.4
81448.6
80800.2
80149.9
79985.8
79432.3
77534.8
78613.7
77286
76199.1
75843.1
75717.1
75030.5
73364.5
74095.7
72768.5
71366.8
71886.1
71287
70469.8
68675
68893.3
68197.9
66343.5
66471.7
65782.4
63637.6
64158.5
63408
61980.4
61240.1
61078.7
60115.7
58501.7
58280.4
101805
101247
103635
103592
99949
102525
101333
100755
99313.8
99256.7
99478.9
98442.4
97366.2
97011.5
96986.5
95835.7
94644.2
94589
94587.2
93448.9
92774.7
92078.4
93173.3
90990.1
90781.5
90536.7
90344.3
89453.5
88453.9
88290
87846.9
87237.3
85750.9
87037.5
85365.4
84439.9
84293.5
84053
83465.7
81843.9
82715.4
81450
80764.4
80143.3
79978.6
79411.1
77551.6
78613
77287.5
76175.2
75835.1
75701.7
75003.2
73359.7
74080
72742
71375.9
71896.2
71295.9
70473.5
68695
68902.4
68215.5
66360.1
66483.8
65786.5
63661.3
64233.3
63410.4
61936
61242.8
61078.7
60081.5
58502.4
58250.6
101808
101255
103639
103592
99950.4
102527
101333
100735
99306.6
99258
99476.3
98429.9
97349.1
97009.7
96983.7
95835.7
94644.3
94590
94585.1
93449.8
92775.1
92080.2
93170.6
90990.6
90783
90534
90341.4
89438.3
88453.9
88284.5
87847.6
87217.2
85754.2
87032.3
85361
84441
84288.5
84053
83443.2
81851.8
82677.8
81451.1
80771.7
80136.3
79979.3
79385.9
77563.3
78587.6
77289
76179.2
75830
75701.8
75004.1
73359.9
74075.5
72744
71382.1
71868.1
71279
70444.7
68689.8
68901.6
68185.9
66345
66486.4
65749.8
63675.4
64144.7
63410.4
61944.9
61225.2
61078.6
60082.8
58485
58250.6
101810
101253
103643
103601
99950.5
102523
101340
100725
99306.7
99264.8
99480.2
98432.1
97340.7
97016.8
96985.9
95837.4
94644.6
94594.5
94590.5
93451.1
92764
92085.9
93173.8
90990.6
90778.8
90535.6
90342.7
89439.1
88456.2
88288
87848.2
87196.7
85763.5
87037.1
85362.1
84442
84289.7
84055.6
83421.8
81865.5
82678.9
81453.1
80760
80137.3
79982.1
79360.6
77582.2
78568.7
77291.2
76179.1
75830.6
75702
74981.5
73363.1
74071.3
72746
71395.6
71863.2
71280.5
70410.5
68697.3
68905
68186.5
66340
66501.6
65715.7
63694.9
64155.1
63411.7
61947.4
61227.8
61078.5
60039.6
58487.1
58250.6
101795
101242
103638
103600
99945
102512
101343
100699
99297.1
99264.5
99476
98414.6
97322.2
97015.9
96981.4
95820.8
94638.3
94591.5
94591.4
93438.2
92745.3
92086.1
93172.2
90981.9
90770.4
90531.9
90334.7
89415.9
88449.2
88289.9
87838.9
87162.4
85768.8
87031.1
85338.4
84434.5
84284.7
84048.1
83386.1
81876.1
82672.5
81453.3
80738.8
80129.2
79977.6
79322.9
77599.4
78569.1
77294.6
76159.7
75824.6
75694.7
74949.4
73362.7
74063.6
72747.4
71404.3
71843.7
71258.2
70366.7
68699.2
68899.4
68146.4
66325.2
66505
65673.9
63711.9
64134.5
63382.1
61913.2
61217.8
61065.4
59991.4
58471.8
58233.9
101796
101250
103638
103599
99942.8
102513
101351
100675
99291.3
99275.4
99477
98400.6
97307.6
97022.5
96979.9
95821.1
94638.6
94595.1
94589.8
93439.9
92746.5
92089.8
93159.9
90982.9
90773
90533.1
90328.7
89399.6
88451.5
88291.4
87839.9
87163.6
85780
87015.7
85338.4
84438
84280.6
84048.8
83364.4
81893.8
82647
81455.3
80741.5
80122.7
79979
79296.9
77623.3
78532.9
77299
76163.8
75818.9
75688.7
74952.3
73364.7
74046.6
72750.3
71429.3
71819.4
71236.5
70359.7
68707.1
68896.1
68117.5
66319.1
66503.6
65636.1
63739.8
64103.1
63382.2
61920.2
61206.2
61054
59994.9
58455.2
58216.3
101784
101241
103637
103603
99938.2
102501
101360
100652
99283.5
99280.9
99477.6
98385.1
97290.6
97027.1
96980.2
95805.4
94633.7
94597.7
94594.2
93427.8
92723
92094.1
93171.1
90975.8
90765.5
90534.8
90321.5
89378.3
88452.3
88297.5
87835.5
87119.7
85792.1
87021.5
85316
84435.4
84281.4
84048.9
83330.4
81911.2
82639.5
81455.8
80732.1
80116.8
79979.2
79261.5
77644.9
78531.2
77303.2
76163.5
75819.4
75680.2
74914.8
73366.5
74051.4
72751.8
71433.8
71809.3
71212.8
70314.1
68721.3
68892.3
68078.1
66317.3
66510
65596.2
63760.5
64079.6
63381
61922.7
61209.6
61042.8
59943.9
58461
58200.7
101785
101238
103636
103600
99933.4
102497
101371
100618
99274.7
99293.6
99479.8
98365.5
97273.5
97034.4
96978
95787.8
94629.8
94601.3
94589.3
93415
92712.4
92098.4
93144.8
90969
90768.3
90536.5
90310.3
89356.7
88454.4
88298.8
87825.7
87093.9
85805.8
86998.2
85292.2
84441.2
84276.5
84039.9
83300.2
81930.5
82619.1
81451
80733.5
80108.3
79972.4
79230.6
77667.7
78494.9
77304.4
76168.5
75810.2
75669.8
74915.2
73366
74026.9
72755.6
71456.2
71787
71185.9
70281.2
68737.7
68885.2
68040.6
66321.8
66504.6
65556.2
63790.5
64054.6
63348.9
61926.6
61190.2
61028.7
59947.5
58444.6
58182.3
101788
101243
103646
103619
99933.9
102491
101394
100601
99268.8
99308.5
99490.7
98368.1
97259.8
97046.2
96984.6
95791.9
94635.7
94614.1
94599.9
93417.7
92698.5
92114.6
93158.1
90971.1
90769.5
90544.4
90312.6
89339.2
88459.4
88311.9
87828.1
87063
85829
87000.2
85293
84444.8
84281.8
84043.4
83271.2
81955.6
82614.8
81453
80734.9
80112.3
79975.9
79200
77696
78483
77306.5
76171.1
75812.9
75671
74883
73374.1
74031.4
72764.1
71469.9
71789.5
71164.4
70232.9
68767.1
68885.6
68000
66333.2
66517.4
65548.2
63814.4
64047.4
63351.7
61927.9
61199
61018.4
59892.5
58452.6
58183.7
101766
101218
103632
103612
99922.8
102469
101399
100561
99252.5
99307.9
99484.9
98340.2
97233.1
97043.7
96977.7
95766.8
94616.5
94609.9
94598.9
93400.6
92661.3
92115.2
93145.4
90958.6
90757
90545.3
90292.6
89306.1
88450.6
88315.6
87812.6
87011.3
85838.8
86984.1
85261.7
84435.2
84277
84029.1
83225.3
81966
82601.3
81430.7
80708.5
80104.4
79965.2
79155.2
77709.3
78462.3
77279.6
76149
75806.2
75657.4
74836
73371.9
74014.1
72765
71474.4
71772.8
71132.5
70173.5
68782
68869.8
67941.6
66328.1
66512.4
65500.3
63825.9
64030.4
63315.7
61879.6
61184.7
60998.5
59827.8
58442
58160.4
101771
101215
103632
103614
99918.5
102464
101416
100523
99242.4
99325.9
99488.9
98316.3
97214.8
97053.2
96978.3
95747.3
94626.5
94617.8
94595.6
93402.8
92670.1
92124.3
93128.9
90958.5
90762.3
90549.3
90276.5
89283.8
88452.9
88319.3
87800
86985.8
85857.8
86961.7
85235.8
84443.8
84277.2
84018.2
83196.8
81986
82574.8
81430.9
80715.1
80097.5
79957.9
79126.6
77730.7
78426.5
77281.1
76158.6
75799.2
75645.3
74837.5
73372.8
73989.2
72766.5
71499.6
71752.2
71103.5
70132.9
68801.1
68856.1
67899.1
66333.8
66498
65501.1
63854.5
63998.1
63286.3
61890.5
61168.3
60977
59831.1
58418
58130.8
101776
101204
103629
103620
99912.7
102449
101430
100487
99230.3
99336.2
99492
98292
97192.9
97059.4
96980.3
95726.7
94611.7
94624.7
94597.5
93403.2
92624
92136.5
93124.8
90950.4
90755.5
90554.8
90258.3
89255.7
88455.3
88331.1
87785.7
86939.9
85877.8
86950.3
85208.3
84446
84279.5
84004.3
83158
82005.3
82568
81409.4
80695.5
80099.5
79949.5
79089.1
77751.7
78413.3
77281.9
76160
75801.7
75634.1
74793.8
73376.5
73983.4
72768.1
71509
71739.3
71074.3
70084.1
68826.2
68843.3
67850.7
66345.2
66498
65497.9
63876.8
63987.2
63286.5
61869.8
61174
60955.6
59776.9
58427
58110.9
101782
101198
103626
103622
99907.4
102443
101446
100442
99219
99356.1
99495.6
98263.4
97172.9
97069.8
96981.2
95704.7
94609.3
94633.7
94592.9
93404.1
92626.2
92150.1
93102.3
90950.4
90762.8
90560
90235.3
89230.7
88458.9
88336
87770.1
86910.5
85899.5
86919.8
85181.9
84457.8
84280.5
83987.1
83129.4
82025.1
82540.3
81407.2
80702.5
80092.2
79937.3
79060.7
77774.1
78376.9
77282.7
76171.1
75793.1
75619.6
74794.3
73381.6
73947.9
72771.9
71537.5
71714.7
71042.6
70084.9
68845.1
68824.4
67851.3
66356.1
66481.7
65499.1
63910.8
63957.7
63286.6
61881
61155.6
60931.7
59780.9
58429.5
58080.2
101788
101185
103621
103629
99900.8
102428
101461
100400
99205.1
99367.8
99498.8
98234.4
97152
97076.2
96982.9
95681.7
94597.9
94642.2
94593.8
93390
92594.9
92165
93092.2
90942.3
90755.6
90566.9
90211.4
89200.8
88461
88348.4
87750.1
86867.8
85923.7
86901.1
85153.8
84461
84284.6
83967.2
83092.3
82044.8
82530.6
81383.8
80683.5
80095
79924.8
79023.1
77796
78360.4
77267.8
76174.2
75796
75604.5
74748.7
73389.1
73937.9
72772.1
71551.7
71695.4
71007.8
70041.9
68869
68805.7
67803.7
66369.4
66479.5
65468
63932.5
63945.6
63257.9
61882.6
61160.7
60904.8
59725.9
58434.7
58060.5
101795
101177
103617
103633
99895.2
102423
101478
100353
99192.2
99390.9
99502.5
98201.9
97133.2
97088.7
96984.2
95658.1
94591.4
94653.2
94589.3
93391.5
92576.4
92180.9
93064.4
90942.2
90764.7
90573.9
90182
89174.8
88466.4
88353.6
87728.7
86839
85949.2
86862.4
85154.1
84473.7
84286.7
83944.5
83065.6
82065.2
82499.9
81365.4
80691.6
80089.1
79908.2
79023.4
77819
78320.8
77250.1
76186.9
75785.2
75587
74750.6
73397.7
73898.8
72776.2
71583.6
71666.4
70969.9
70045.9
68881.9
68778.7
67805.8
66382.6
66458.7
65470.1
63968.3
63912.8
63257.7
61892.2
61147.2
60875.8
59734.8
58437.9
58025.3
101803
101166
103613
103646
99890.2
102411
101494
100312
99178.2
99406.9
99507.8
98171.4
97113.6
97098
96987.3
95635.6
94581.8
94663.7
94594.2
93391.8
92547.1
92201.3
93056.7
90942.3
90763
90582.4
90156
89144.1
88471.3
88368
87703.5
86798.6
85979.3
86841.6
85154.2
84478.1
84290.1
83920.1
83031
82084.9
82493.6
81361.8
80673.7
80090.8
79891.9
78986.4
77841.5
78308.3
77240.8
76190.3
75786.9
75568.8
74705.9
73412.1
73888.5
72737
71600.6
71648.5
70930.6
70006.4
68899
68754.4
67757.5
66399
66455.5
65471
63991.4
63901.1
63213.8
61880.5
61152.7
60844.8
59679.9
58449.1
58002.7
101811
101131
103577
103620
99871.7
102382
101496
100237
99152.4
99412.5
99489.2
98116.6
97082.4
97093.8
96965.4
95594.7
94557.8
94656
94571.9
93361.8
92506.7
92198.9
93002.6
90925
90757.6
90570
90104.7
89103.8
88460.9
88355.5
87667.6
86751.5
85986.2
86780.1
85119.1
84482.6
84270.8
83878.9
82991.5
82085
82442.4
81329.6
80677.9
80062.9
79858.2
78945.1
77846.7
78250.8
77202.3
76197.8
75755.6
75535.1
74658.9
73406
73834.5
72692.3
71622.6
71598.5
70882.7
69966.8
68883.6
68712.2
67706.3
66399
66420.7
65419.1
64014.6
63842.9
63164.6
61890
61105.8
60804.1
59682.5
58393.5
57956.5
101838
101157
103602
103656
99881.2
102401
101535
100211
99148.2
99457.1
99513.6
98117.5
97076.3
97128.6
96983.1
95600.4
94571.3
94689.4
94588.7
93367.4
92513.4
92243.3
92996.1
90928.3
90781
90596.6
90083.5
89106.6
88488.2
88376.9
87649
86757.1
86035
86758.3
85122.8
84506.2
84285.6
83859.1
82998
82123.9
82436.3
81330.4
80691
80073.7
79844.5
78951.6
77888.8
78237
77202.4
76215.7
75763.5
75516.6
74664.7
73438.7
73815.1
72696.7
71672.3
71581.5
70844.1
69982.1
68902.2
68683.4
67715
66437.2
66410.7
65422.4
64059.7
63822.4
63151.9
61906.1
61113.8
60765.4
59692.1
58404.2
57917
101850
101139
103586
103665
99874.3
102382
101547
100164
99128.6
99468.4
99513.6
98080.5
97051.5
97133.2
96985.4
95571.3
94554.5
94691.3
94592.3
93342.4
92471.6
92263.6
92974.5
90914.2
90782.9
90602.6
90051.5
89068.6
88490.6
88387.6
87618.3
86711
86062.1
86727.3
85087
84509.2
84290.3
83832.1
82957
82140.5
82420.7
81296.9
80669.7
80077.6
79823.7
78906.3
77908.2
78217.5
77162
76221.1
75767.2
75492.2
74607.9
73455.2
73792.5
72649.9
71682.6
71565.2
70799.3
69933.8
68917.3
68652.6
67653.5
66457.6
66401.8
65361.6
64073
63819.4
63100
61906.2
61122.8
60721.1
59622.3
58417.6
57916.9
101867
101134
103576
103671
99875.9
102374
101560
100113
99113.2
99489.2
99515.4
98039.2
97031.6
97147.3
96987.1
95539.7
94547.7
94704.9
94593.4
93319.2
92452.6
92287.2
92945.9
90903.6
90798.3
90607.9
90010.6
89039
88502.5
88391.2
87586.1
86684.9
86091.6
86686.9
85061.6
84521.7
84291.5
83798.8
82952.3
82163.4
82397.6
81282.5
80677.3
80080.6
79791.5
78907.9
77935.3
78187.9
77133.9
76230.9
75752.9
75457.8
74609.5
73474.7
73753.3
72653.2
71703.8
71531.8
70756.1
69938.5
68923.5
68608.3
67657.1
66478.2
66373.6
65364
64094.2
63783.6
63099.4
61916.1
61126.9
60675.7
59630.5
58424.8
57870
101886
101122
103562
103681
99878.8
102354
101572
100070
99098.1
99497.1
99516
98003.6
97009.3
97150.1
96990.7
95511.4
94532.3
94710.4
94600.4
93292.3
92421.1
92308.1
92926.3
90891.4
90801.7
90613.6
89975.9
89003.8
88505.8
88401.6
87553.4
86639.7
86118
86658.7
85027.7
84527.9
84296.3
83770
82912.6
82178.2
82384.2
81251.2
80678.8
80087
79764.4
78864.3
77954.9
78168.9
77095.5
76236.8
75758.5
75427.5
74555.4
73494
73729.3
72607.3
71710.9
71506.7
70712.7
69894.6
68936.3
68572.7
67598.8
66491.9
66358.7
65304.8
64109.9
63783.3
63047.6
61923.1
61139.6
60632.9
59632.9
58437.2
57872.6
101909
101122
103551
103684
99888.1
102344
101586
100019
99086.3
99514.8
99515.1
97960.9
96993.3
97162.2
96991.9
95480.1
94525.9
94722.2
94603.1
93266.6
92405.1
92331.5
92894
90879.7
90822.4
90619.4
89931.5
88975.6
88519.3
88404.8
87519.9
86610.8
86143.4
86616.6
84995.8
84547.4
84297.5
83733.6
82890.3
82198.6
82359.2
81219.1
80687.4
80091
79726.1
78865.4
77981.4
78137.8
77074.3
76248.8
75759.3
75388
74539.4
73515.6
73690.8
72608.1
71726.6
71468.2
70665.6
69900.8
68944.5
68522.9
67600.7
66507.9
66321.4
65306.6
64130.6
63743.7
62991.8
61931.1
61145.5
60582
59645.6
58449.1
57871.9
101935
101121
103541
103698
99907.6
102325
101602
99983
99079.7
99521.3
99517.7
97929
96976.5
97165.9
96997.9
95481.2
94513.2
94728.7
94618.2
93268.5
92381.1
92358.2
92881.7
90870.5
90830.7
90628.4
89897.9
88942.3
88525.2
88419.2
87489
86573.4
86171.4
86595.9
84964.9
84553.2
84305.8
83704.5
82854.6
82214.6
82354.4
81188
80687.9
80100
79698.1
78823.9
78000.7
78128.1
77036
76253.6
75766.4
75356.2
74487
73534.4
73676.6
72561.1
71732.1
71442.1
70622.1
69857.6
68957.4
68485.3
67543.3
66519.4
66321.6
65246.6
64146.9
63746
62942.3
101941
101075
103467
103636
99894.7
102269
101543
99885.9
99045.9
99498.9
99466.8
97849.8
96938.4
97137.8
96949.2
95421.6
94478.1
94694.5
94577.4
93217.3
92334.5
92338.8
92807.1
90838.8
90821.2
90584.4
89821.6
88890.7
88501.4
88379.2
87430.9
86517.8
86157.9
86516.6
84917.4
84540.9
84258.7
83640.7
82804.6
82200
82288.2
81132.7
80661.5
80055.4
79631.2
78770.5
77993.7
78060.3
76977
76255.3
75718.4
75288.6
74424.7
73524.9
73604.3
72498.4
71725.3
71363.9
70550.1
69805.7
68906.7
68406.6
67478.9
66514.9
66248.9
65174.6
64163.1
63676.5
101989
101142
103514
103686
99945.2
102306
101586
99900.7
99062
99554.5
99502.2
97860.8
96951.7
97187.9
96980.3
95436.9
94508.5
94747.4
94618.5
93232.1
92362.7
92406
92814.4
90851.9
90880.2
90618.1
89825.3
88900.3
88553.2
88411.5
87438.9
86532.4
86222
86510.2
84928.2
84590.8
84283.2
83645.7
82819.5
82255.1
82300
81140.6
80684.4
80079.6
79634.2
78784.9
78051.7
78064.5
76987
76281.4
75737.4
75291.5
74438.5
73581.3
73599.8
72511
71752.5
71373.5
70554.9
69824.6
68930.1
68408.2
67494.9
66547.8
66251.9
65186.9
64206.6
102011
101137
103484
103681
99960.7
102273
101588
99858
99049.8
99546.2
99486.7
97822
96931.7
97176.8
96980.9
95437.4
94487.4
94735.7
94624.4
93200.7
92330.5
92419.6
92791.4
90836.5
90883.2
90623.5
89783.6
88859.7
88553.7
88416.6
87399.4
86487
86235.5
86481.6
84896.3
84595
84289.8
83610.1
82775.6
82261.1
82288.7
81099.2
80661.1
80087.6
79598
78736.3
78062.5
78051.1
76940.9
76285.6
75746.5
75251.6
74377.6
73595.7
73582.6
72457.4
71757.8
71374.1
70502.7
69777.8
68943.4
68362.7
67433.8
66562
66225.1
65121.5
102037
101161
103471
103668
99985.1
102265
101591
99806.5
99044
99557.7
99471.7
97773.7
96923.7
97185.8
96966.5
95414
94486.5
94741.8
94625.1
93202.6
92324.3
92441.5
92756.4
90826.7
90908
90626.6
89731.6
88834.5
88567.8
88417.3
87359.2
86469.3
86255.6
86439.4
84871
84613.6
84292.5
83566.7
82776.8
82282
82266.1
81060.1
80670.5
80095
79550.9
78738.3
78086.6
78023.5
76898.6
76299
75751
75202.7
74378.6
73618.4
73547.7
72457.5
71771.7
71331.7
70447.9
69786
68956
68303.9
67439.2
66580.8
66174.4
65126.3
102067
101178
103462
103680
100026
102246
101603
99810.1
99049.3
99555.7
99471.9
97777.1
96916.9
97182.7
96971.6
95417.5
94478.6
94743.6
94642.2
93207.9
92307.6
92468.7
92747.3
90823.2
90919.2
90636.8
89698.5
88806.1
88573.5
88427.9
87361.6
86442.3
86277.9
86425.7
84850.3
84620
84304.8
83567
82740.7
82294.6
82267.7
81060
80671.2
80109.9
79538.1
78696.2
78098.5
78024.4
76900.7
76304.8
75764.2
75175.1
74325
73631.8
73543.6
72434.3
71775.3
71337.5
70444.7
69786.8
68972.8
68305.2
67384.9
66598.1
66185.2
65127.5
102006
101127
103352
103567
100001
102173
101493
99688.3
99002.2
99508.7
99380.9
97673.6
96872.7
97129.8
96887
95337.3
94434.6
94684.6
94570.9
93137.4
92254.2
92422
92649.1
90777.5
90892
90558.7
89600.4
88748.2
88530.7
88354.8
87281
86387.6
86234.3
86328.4
84794.8
84589.4
84231.2
83478.7
82678.2
82253.5
82184
80982.3
80625.7
80042.9
79444.7
78629.4
78062
77936.5
76818.3
76261.3
75692.2
75080.1
74250.5
73592.2
73449.2
72348.7
71722.7
71237
70348.5
69719.5
68900.9
68196.4
67308
66548.2
66081.2
65037.4
102064
101244
103437
103626
100076
102237
101549
99711.7
99035.9
99584.4
99427.8
97695
96909.4
97202.7
96927.9
95360.7
94487.8
94761.8
94623.1
93163.5
92310.4
92509.7
92671.1
90809.1
90969.5
90603.6
89613.4
88772.4
88607.1
88395.5
87299.4
86430.7
86315.7
86342.6
84815.3
84657.3
84273.2
83494.4
82701.8
82322.3
82210.1
80995.9
80665.5
80086
79457.3
78650.6
78125.2
77953.6
76835.6
76299
75726
75094.7
74273.8
73652.8
73462.8
72368.9
71757.4
71262.9
70365.6
69750.2
68943.8
68212
67334
66596
66105.7
65063.8
102090
101263
103420
103621
100107
102211
101554
99718.3
99028.4
99576.3
99409.3
97698.8
96894.3
97194.4
96932.1
95367.6
94472.4
94756.2
94629.8
93168.4
92291.1
92523.9
92653.6
90797.9
90974.3
90613.5
89574.3
88744.6
88609.9
88402.2
87292.7
86406.2
86326.3
86325.9
84797.1
84661.4
84285.4
83482.2
82662.4
82327.1
82197
80957.8
80665.6
80099.6
79420.2
78605.9
78131.9
77931.7
76788.1
76303.8
75738.4
75049.5
74220.5
73663.3
73432.7
72314.1
71763.1
71268.6
70327.9
69752.9
68962.1
68213.5
67334.9
66612.8
66112.3
65065.7
102011
101200
103291
103483
100069
102118
101420
99587.5
98958.7
99512.7
99291.7
97581
96828.6
97128
96825
95271.2
94414.9
94684.9
94539.5
93082.9
92226.8
92457.1
92545.9
90736.7
90924.8
90513.1
89465.2
88676.5
88551.1
88309.5
87198.5
86341.9
86261.3
86223.5
84730.7
84609.3
84195.8
83381.5
82585.2
82263.8
82101.6
80872.1
80601.1
80015
79314.8
78524.1
78069.9
77829.2
76691.4
76239.5
75650.2
74941.3
74131.5
73597
73320.6
72211.3
71689.7
71159.1
70219.5
69667.6
68876.1
68093.5
67241
66546.8
66001.6
64960.1
102081
101342
103402
103543
100161
102197
101492
99623
99002.2
99605.1
99350.6
97609.2
96870.8
97216
96878.7
95299.7
94479.6
94783.2
94600.1
93115.6
92302.1
92561.8
92580.3
90783.9
91016.9
90573.7
89488.8
88720.2
88644.8
88355.7
87225.4
86406.3
86357.2
86249.9
84773
84693.7
84250.2
83402.3
82619.9
82343.3
82131.3
80895.5
80659
80068.2
79335.6
78554.3
78140.9
77852.5
76717.1
76294.4
75691.9
74963.9
74164.5
73663.8
73342.5
72240.1
71736.9
71192.3
70245.4
69708.9
68926.7
68120.7
67282.3
66604
66033.6
64993.7
102097
101337
103369
103524
100175
102147
101444
99625.7
98969
99575.3
99314.7
97612.9
96832.5
97186.4
96879.5
95301.2
94443.4
94760.2
94602.9
93075.5
92262.7
92554
92562.7
90754
90996.4
90578.3
89473
88679.1
88629.6
88359.6
87171.8
86367.3
86354
86223.9
84740.9
84680.9
84258.1
83353.7
82567.1
82339.8
82104.7
80843.8
80625.6
80078.8
79285.4
78496.1
78143.7
77838
76650.2
76262.2
75703.6
74906.2
74099.8
73670.6
73322.8
72167.3
71739.4
71198.6
70178
69680.2
68945.9
68091.6
67218.9
66625.3
66046.3
64941.1
102118
101370
103360
103481
100199
102139
101450
99577.8
98949.5
99581.9
99274.9
97563.9
96813
97189.2
96850.3
95304.2
94439.6
94766.6
94583.7
93079.7
92260.3
92560.8
92532.8
90742.3
91005.2
90583.7
89422.3
88662.7
88643.8
88360.4
87172.6
86361.3
86364.6
86186.5
84724.6
84700
84267.2
83303.4
82567.7
82350.2
82069.9
80808.3
80633.4
80091
79232.4
78496.5
78155.5
77793
76599.5
76272.2
75713.8
74866.4
74101
73684.8
73297.1
72166.8
71749
71207.7
70173.7
69688.7
68966.1
68093.5
67227.6
66649
66058.4
64950.3
102158
101392
103360
103495
100252
102112
101470
99607.6
98959.8
99574.4
99284.6
97588.5
96803.5
97178.8
96865.7
95323
94432.3
94770.3
94601.4
93102.8
92246.9
92579.4
92546
90750.3
91004.7
90602.5
89435.5
88648.3
88651.2
88379.4
87189
86341
86380.7
86197.5
84725.9
84707
84290.3
83317.8
82539
82358.7
82085.5
80811.9
80635.3
80112.2
79244.9
78473.9
78163.5
77808.3
76607.1
76278.7
75733.9
74878.8
74086.6
73696.4
73315.6
72173.6
71754.6
71224.2
70185.2
69697.7
68990.6
68109.9
67238.3
66675
66094.3
64971.1
102028
101299
103182
103288
100164
101990
101278
99417.6
98851
99479.7
99110.2
97429.6
96705.8
97075
96710.5
95181.4
94345.8
94659
94455
92972.3
92159.3
92460.5
92397
90651.4
90921
90458.1
89285.8
88558
88554.9
88236.8
87051.2
86256.9
86265.4
86048
84626.3
84626.7
84150.9
83166.3
82438.5
82252.6
81934.2
80689.5
80545.5
79982.3
79088.3
78363
78057.6
77648.2
76471.4
76186.7
75600.6
74719.1
73971.9
73584
73148.7
72028.3
71647.9
71069.4
70025.1
69589.3
68860.5
67940
67114.3
66566.1
65937
64827.7
102135
101466
103350
103382
100271
102099
101397
99474.8
98912.1
99598.2
99190.7
97474.4
96767.8
97198.2
96787.6
95228.3
94436.3
94795.3
94536.7
93023.9
92259.5
92597.1
92465.6
90721.4
91034.2
90546.3
89332.8
88632.8
88681.2
88314.3
87097.3
86347.8
86396.6
86112.1
84698
84739.7
84240.4
83213
82500.1
82365.3
81999.4
80739.5
80629.1
80070.9
79134.3
78410.4
78156.8
77705
76510.6
76262.3
75681.2
74767.3
74018.7
73682.3
73201.5
72068.8
71721
71133.1
70067.2
69646.1
68939.6
67999.3
67169.7
66658.9
66011.5
64889.9
102168
101477
103335
103374
100294
102064
101413
99484.4
98909.4
99588.5
99195
97482.1
96744.4
97189.7
96794.4
95238.1
94418.7
94794
94540.7
93036.5
92240.6
92598.7
92446.9
90706.4
91033.5
90559.2
89336.4
88608.8
88681.3
88322.6
87106.1
86319.9
86395.2
86114
84684.2
84741.6
84257.5
83220.8
82474.9
82367.6
82009.4
80720
80629.7
80088.9
79142.4
78410.2
78161.6
77717
76514.3
76268.1
75697.4
74775.3
74019.1
73688.9
73216.7
72074.9
71726.7
71152
70079
69657.8
68963.6
68015.6
67183.5
66680.7
66040
64910.8
102005
101356
103132
103137
100152
101922
101199
99260.1
98762
99476.3
98996
97281.1
96611
97074.4
96603.6
95055.8
94303.5
94668.8
94356.5
92866.6
92135.1
92454.4
92268
90567.8
90931.2
90386
89152.8
88485.6
88563.7
88144.5
86933.3
86210.1
86251.2
85927.5
84549.3
84630.1
84093.6
83041.8
82348.9
82234
81829.6
80571.1
80517.4
79933
78957.5
78267.7
78025.3
77533.6
76353.6
76146.2
75539.2
74587.4
73873.3
73545
73027.5
71899.8
71588.1
70973.9
69887.8
69518.3
68804.6
67819.7
67026.7
66539.2
65858.8
64735.4
102131
101539
103330
103247
100263
102053
101340
99322.9
98835.3
99612
99096.4
97331.3
96689.7
97223.6
96690
95109.2
94411.5
94832.9
94440.6
92925.3
92259.6
92613.7
92349
90653.2
91067.1
90494.4
89207.6
88582.3
88712.4
88230.9
86993.4
86326.6
86402
86000.9
84646.2
84754.1
84197.5
83102.3
82439.7
82363.8
81908
80654.1
80625.2
80035
79017.9
78343.4
78136.7
77606.8
76426.7
76240.7
75634
74651.5
73950.2
73657.7
73101.1
71967.2
71680.6
71055.2
69951.6
69603.6
68900.7
67896.8
67107.7
66651.8
65951.2
64818.1
102153
101537
103319
103234
100241
102030
101366
99327.6
98806.6
99607.2
99107.2
97322.4
96649.9
97222.1
96702.8
95070.1
94381.8
94840.5
94446.5
92919.2
92239.2
92616.6
92313.3
90608.4
91065.6
90513
89176.8
88543
88715.9
88241.7
86958.4
86292.4
86401.5
86007.9
84609.3
84757.8
84219.5
83107.2
82407.6
82368.4
81920.5
80614.9
80626.5
80056.8
79021.8
78310.6
78143.3
77619.9
76389.3
76247.8
75654.7
74657.9
73950.2
73666.4
73112.6
71967.2
71689.7
71073.3
69954.6
69616.8
68929.4
67913.7
67123
66677.9
65983.1
64840.7
101966
101374
103089
102974
100047
101853
101123
99086.3
98628
99465.2
98876.8
97095.7
96481
97073.9
96482.6
94868.9
94228
94688
94237.6
92726.8
92092
92445.2
92113.6
90440.6
90919.3
90306.7
88974.6
88382.9
88562.3
88036.5
86765.6
86137.7
86219.8
85803.9
84442.5
84606.2
84027.8
82913
82246.8
82204.3
81724.7
80451.3
80473.2
79868.6
78821.2
78141.8
77972.4
77425.9
76221.2
76088.8
75469.4
74455
73769.2
73486.8
72911.3
71775.6
71511.2
70878.1
69753.7
69437.1
68741.5
67704.8
66935.4
66503
65794.2
64647.6
102092
101584
103330
103096
100147
102006
101289
99161.3
98707.1
99626.4
99001.5
97152.9
96577.5
97244.8
96593.8
94928.7
94352.3
94880.4
94335.1
92791.1
92243.2
92637.3
92197.3
90547.2
91089.8
90437
89039.5
88508.1
88739.5
88134.6
86842.6
86285.2
86395.6
85886.7
84560.4
84761.7
84143.1
82985
82373.8
82362.9
81807.9
80568
80618.1
79980.1
78894.6
78260.1
78113.6
77509.3
76339.5
76234.1
75574.9
74534.4
73890.3
73622.9
72998.5
71888.2
71638.8
70974.3
69852.9
69569.3
68858.1
67800.9
67064
66651.9
65906.4
64769.8
102039
101542
103298
103066
100072
101938
101297
99109.2
98614.7
99577.4
99005.8
97074.7
96488.5
97206.2
96603
94841
94271.5
94854.6
94342.5
92688.8
92173.6
92620.7
92173.7
90458.2
91046.4
90448.8
88962.1
88429.4
88713.8
88143.8
86751.4
86218.5
86382.2
85890.4
84490.8
84734.2
84158.3
82902.3
82311.1
82351.6
81817.3
80502.9
80588.6
79995.2
78832.7
78197.6
78107.6
77519.2
76278.8
76204.9
75591.4
74497
73825.5
73627.1
73006.5
71823.3
71640.5
70993.4
69819.8
69570.8
68889.5
67816.6
67068.6
66685.6
65943.1
64783.2
102049
101535
103288
103013
100036
101913
101312
99086
98567.1
99557.9
99012.8
97006.8
96440.9
97200.7
96614.1
94807.4
94236.5
94861.7
94351.9
92674.2
92143.4
92625.9
92176.4
90421.2
91033.7
90460.5
88962.8
88398.2
88713.6
88152.7
86756
86199
86389
85899.5
84477.5
84736.2
84172.9
82913
82306.7
82359
81832.5
80497.3
80589.2
80011.1
78841.8
78196.8
78112.2
77537.3
76279.4
76209.1
75614
74513.3
73835.7
73640.3
73026.2
71832
71648.6
71020.7
69838.7
69590
68925.7
67850.6
67099
66728.7
66007.1
64839.5
102059
101518
103287
103020
99996.3
101875
101329
99101.4
98528.1
99524.6
99027.9
97015.2
96390.9
97181
96638.4
94813.3
94192.9
94858.4
94372.8
92675.5
92101.6
92634.6
92192.3
90380.5
91017
90485.7
88968.8
88358.5
88710.2
88173.4
86757.2
86163.8
86403.3
85916.4
84453.8
84739.1
84195.8
82919.6
82293.7
82370.6
81852.4
80481.3
80595.5
80036.5
78851.9
78196.3
78122.8
77556.7
76278.7
76219.2
75636.3
74523.9
73839.5
73656.3
73047
71837.7
71662.3
71042.3
69846.3
69608
68958.6
67875.4
67116.8
66758.8
66045.8
64871.6
102002
101498
103270
102963
99941
101845
101333
99034.1
98479.4
99509.8
99036.2
96974.6
96342.6
97172.2
96650.3
94800.1
94156.7
94858.1
94386
92676.6
92069.8
92636.5
92201.8
90342.8
91003.7
90502.6
88971.8
88322.9
88707.5
88190.3
86757.2
86131.1
86410.3
85926.4
84422.8
84739.1
84217.8
82923.7
82278.7
82381
81870.4
80461.3
80596.6
80062.4
78860.7
78181.2
78133.4
77578.1
76264.2
76224.7
75665.5
74538.1
73842.9
73672.7
73068.5
71840.3
71675
71070.5
69851.1
69616.1
68988.4
67895.3
67126.7
66784.3
66080.1
64890.4
102036
101509
103299
102989
99946.4
101827
101366
99060.9
98476.4
99506.6
99069.9
97001
96341.4
97181.9
96688.3
94822.6
94156.4
94875.4
94421.2
92705.1
92062.4
92662.4
92237.3
90351.5
91011.9
90538.5
88999.4
88325.4
88721.1
88227.2
86783.6
86116.8
86432.7
85971.2
84430.5
84757.7
84254.2
82953.5
82284.7
82409.9
81908.6
80475.7
80621.4
80099.3
78893.1
78195
78165.4
77622.5
76287.1
76260.7
75710.4
74581
73868.3
73704.8
73119.9
71871
71707.8
71121.4
69890.7
69657.8
69041.3
67953.2
67172.8
66838.2
66159.1
64955
101805
101305
103035
102722
99720.4
101595
101089
98789.7
98256.9
99309.1
98806
96734.7
96143.3
96988.7
96444.7
94572.9
93977.8
94675.7
94181.2
92467.8
91882
92444.7
92010.3
90155.2
90834.6
90293.7
88762.7
88144.8
88522.7
87989.5
86554.8
85936.5
86208.2
85749.6
84225.1
84571.8
84016.1
82713.7
82099.1
82211.3
81667.7
80274.9
80440.7
79864.2
78649.8
78009
77968.4
77387.5
76094.5
76081.9
75485
74345.7
73678.8
73505.6
72889.6
71674.5
71523.2
70899
69686.1
69475.2
68827.7
67726.8
66984.3
66654.1
65949.2
64763.8
101959
101503
103296
102888
99866.8
101739
101300
98914.8
98356.9
99479.6
98976.9
96825.5
96254.4
97180.8
96596.2
94655.7
94123.8
94889.6
94318.7
92564.3
92046.8
92665.5
92147.8
90289.7
91024.3
90448.7
88879.6
88307.3
88727.5
88134.1
86681.1
86111.7
86418.9
85909.9
84384.3
84755.5
84169.5
82836.7
82264.5
82414.2
81814.3
80438.8
80619.4
80021.7
78775.2
78179.6
78164.6
77539.5
76269.1
76262.8
75642.8
74481.1
73847
73704.5
73045.9
71847.3
71708.2
71059.7
69860.6
69657.5
68998.3
67883
67168.3
66865.2
66138.1
64964.3
101886
101453
103241
102828
99800.4
101653
101287
98880.9
98268.4
99424.3
98967.3
96732.5
96173.1
97140.3
96598.7
94553.9
94056.1
94860.5
94304.5
92455
91990.6
92636.1
92060.6
90204.5
90986.4
90427.7
88782
88241.7
88694.4
88130.4
86583.2
86061.6
86385.6
85915.4
84327
84729.1
84178.7
82798.1
82216.8
82398.7
81823
80386.7
80600.6
80037.2
78776.6
78142.6
78163.3
77554.2
76229.2
76257.6
75663.8
74490.3
73846.3
73715.9
73064.9
71845.9
71717.6
71080.7
69858.3
69660.4
69014.4
67887.6
67164.9
66871.4
66146.9
64966.4
101891
101429
103222
102774
99773.8
101620
101291
98889.7
98220.6
99401.1
98974
96736.4
96131.4
97130.8
96610.6
94558.2
94026.9
94862.6
94317.3
92458.2
91968
92644.1
92074.5
90178
90982.3
90442.5
88792
88217.9
88696.7
88143.6
86597.7
86060.7
86388.9
85937.5
84331.1
84733
84200.4
82817.7
82223
82410.4
81849.5
80399.6
80608.2
80065.3
78801.3
78160.1
78181.1
77589.5
76254.5
76275.5
75700.2
74523.2
73863.7
73737.7
73103.7
71867.2
71739.8
71124.1
69888
69692.3
69064.7
67941.3