/*--------------------------------*- C++ -*----------------------------------*\
| =========                 |                                                 |
| \\      /  F ield         | OpenFOAM: The Open Source CFD Toolbox           |
|  \\    /   O peration     | Version:  v2012                                 |
|   \\  /    A nd           | Website:  www.openfoam.com                      |
|    \\/     M anipulation  |                                                 |
\*---------------------------------------------------------------------------*/
FoamFile
{
    version     2.0;
    format      ascii;
    class       surfaceScalarField;
    location    "1e-06";
    object      phi;
}
// * * * * * * * * * * * * * * * * * * * * * * * * * * * * * * * * * * * * * //

dimensions      [0 3 -1 0 0 0 0];
oriented        oriented;


internalField   nonuniform List<scalar> 
20151
(
1.38818e-06
-8.96167e-09
1.37115e-06
1.70383e-08
1.37713e-06
-5.98649e-09
1.3878e-06
-1.06638e-08
1.39244e-06
-4.63926e-09
1.39683e-06
-4.39576e-09
1.40274e-06
-5.91304e-09
1.43102e-06
-2.82725e-08
1.43772e-06
-6.70838e-09
1.43234e-06
5.38369e-09
1.44847e-06
-1.61324e-08
1.47487e-06
-2.63927e-08
1.47555e-06
-6.80148e-10
1.46605e-06
9.49399e-09
1.48273e-06
-1.66729e-08
1.49575e-06
-1.3027e-08
1.48069e-06
1.506e-08
1.47324e-06
7.45751e-09
1.49346e-06
-2.02247e-08
1.4997e-06
-6.24161e-09
1.48097e-06
1.87316e-08
1.48187e-06
-9.00222e-10
1.49671e-06
-1.48393e-08
1.49525e-06
1.45704e-09
1.49116e-06
4.08888e-09
1.50071e-06
-9.5431e-09
1.51849e-06
-1.77861e-08
1.51158e-06
6.91357e-09
1.50283e-06
8.75378e-09
1.51917e-06
-1.63455e-08
1.52786e-06
-8.69074e-09
1.51388e-06
1.39836e-08
1.51337e-06
5.13356e-10
1.53273e-06
-1.93651e-08
1.53094e-06
1.78912e-09
1.52308e-06
7.86261e-09
1.53621e-06
-1.31304e-08
1.54999e-06
-1.37772e-08
1.53943e-06
1.05567e-08
1.53398e-06
5.45109e-09
1.50623e-06
2.77508e-08
1.5096e-06
-3.36905e-09
1.55203e-06
-4.24373e-08
1.56481e-06
-1.27742e-08
1.58033e-06
-1.55203e-08
1.57103e-06
9.29572e-09
1.56583e-06
5.20627e-09
1.54241e-06
2.34193e-08
1.54463e-06
-2.21938e-09
1.58678e-06
-4.2152e-08
1.60184e-06
-1.50557e-08
1.61733e-06
-1.54938e-08
1.60505e-06
1.22795e-08
1.60561e-06
-5.56994e-10
1.62192e-06
-1.63184e-08
1.60933e-06
1.25938e-08
1.59869e-06
1.06435e-08
1.6206e-06
-2.1914e-08
1.63865e-06
-1.80442e-08
1.64301e-06
-4.36164e-09
1.65644e-06
-1.34333e-08
1.67928e-06
-2.28336e-08
1.68051e-06
-1.23679e-09
1.6942e-06
-1.36883e-08
1.71014e-06
-1.59376e-08
1.70588e-06
4.261e-09
1.70017e-06
5.70379e-09
1.67908e-06
2.10957e-08
1.69075e-06
-1.1674e-08
1.73564e-06
-4.48859e-08
1.75374e-06
-1.81009e-08
1.77098e-06
-1.72427e-08
1.77549e-06
-4.51355e-09
1.79554e-06
-2.00411e-08
-2.56776e-08
1.59414e-06
-1.23826e-08
1.59832e-06
1.28577e-08
1.61e-06
-1.76674e-08
1.61445e-06
-1.51186e-08
1.61656e-06
-6.74475e-09
1.62892e-06
-1.67591e-08
1.63371e-06
-1.06973e-08
1.62739e-06
-2.19528e-08
1.63517e-06
-1.44955e-08
1.65917e-06
-1.86119e-08
1.67194e-06
-2.8906e-08
1.67516e-06
-2.96062e-08
1.68404e-06
-9.56135e-09
1.69748e-06
-3.95056e-09
1.70732e-06
-2.65101e-08
1.70712e-06
-1.28257e-08
1.70604e-06
1.61386e-08
1.71097e-06
2.53326e-09
1.71618e-06
-2.54424e-08
1.71515e-06
-5.20751e-09
1.71619e-06
1.76949e-08
1.72126e-06
-5.97224e-09
1.70678e-06
-3.63824e-10
1.70667e-06
1.57038e-09
1.72944e-06
-1.86822e-08
1.73469e-06
-1.47951e-08
1.73135e-06
-1.44458e-08
1.73384e-06
4.43099e-09
1.74175e-06
8.40849e-10
1.74595e-06
-2.05483e-08
1.74543e-06
-8.17242e-09
1.74986e-06
9.55523e-09
1.75465e-06
-4.27393e-09
1.74428e-06
-8.99666e-09
1.74512e-06
9.47108e-10
1.7636e-06
-1.06186e-08
1.77037e-06
-1.98929e-08
1.76825e-06
-1.16592e-08
1.77108e-06
7.72727e-09
1.77621e-06
3.24016e-10
1.79567e-06
8.2895e-09
1.79844e-06
-6.14683e-09
1.7955e-06
-3.94936e-08
1.80367e-06
-2.0941e-08
1.80096e-06
-1.28129e-08
1.80336e-06
6.89317e-09
1.80902e-06
-4.53273e-10
1.80553e-06
2.69139e-08
1.80926e-06
-5.94986e-09
1.83291e-06
-6.58036e-08
1.84252e-06
-2.46687e-08
1.84301e-06
-1.59806e-08
1.84602e-06
9.26689e-09
1.85454e-06
-9.07802e-09
1.84329e-06
-5.06925e-09
1.83335e-06
2.25421e-08
1.84038e-06
3.611e-09
1.85112e-06
-3.26536e-08
1.86133e-06
-2.82521e-08
1.87852e-06
-2.15534e-08
1.89187e-06
-2.67869e-08
1.8971e-06
-2.80638e-08
1.91101e-06
-1.51446e-08
1.93548e-06
-3.81566e-08
1.93212e-06
-1.25787e-08
1.93414e-06
2.24385e-09
1.94905e-06
-9.20685e-09
1.97755e-06
-7.40652e-09
1.99013e-06
-2.42509e-08
1.99125e-06
-4.6004e-08
2.00307e-06
-2.9923e-08
2.01249e-06
-2.66611e-08
2.02981e-06
-2.18349e-08
2.05045e-06
-4.06889e-08
-3.84862e-08
1.87465e-06
-1.94004e-08
1.88376e-06
3.75517e-09
1.89537e-06
-2.9277e-08
1.89263e-06
-1.23861e-08
1.89693e-06
-1.10425e-08
1.91694e-06
-3.67701e-08
1.9204e-06
-1.41585e-08
1.91433e-06
-1.5878e-08
1.92437e-06
-2.45364e-08
1.94854e-06
-4.27857e-08
1.95989e-06
-4.02504e-08
1.96471e-06
-3.44231e-08
1.97481e-06
-1.96699e-08
1.98752e-06
-1.66594e-08
1.9962e-06
-3.51869e-08
1.99779e-06
-1.44158e-08
1.99803e-06
1.58966e-08
2.00202e-06
-1.45539e-09
2.00263e-06
-2.60475e-08
2.00277e-06
-5.35251e-09
2.00834e-06
1.21294e-08
2.01243e-06
-1.00612e-08
1.99616e-06
1.59037e-08
1.99745e-06
2.83061e-10
2.02183e-06
-4.30678e-08
2.02576e-06
-1.87192e-08
2.02395e-06
-1.26364e-08
2.02761e-06
7.67291e-10
2.03429e-06
-5.83288e-09
2.03401e-06
-2.02736e-08
2.03532e-06
-9.48267e-09
2.04364e-06
1.23706e-09
2.04668e-06
-7.31242e-09
2.0362e-06
1.48492e-09
2.03884e-06
-1.69132e-09
2.05759e-06
-2.93726e-08
2.06189e-06
-2.41918e-08
2.06151e-06
-1.12827e-08
2.06625e-06
2.99353e-09
2.07027e-06
-3.70053e-09
2.0544e-06
2.41582e-08
2.05856e-06
-1.03015e-08
2.08954e-06
-7.04811e-08
2.09659e-06
-2.79919e-08
2.09575e-06
-1.19728e-08
2.09995e-06
2.69889e-09
2.10382e-06
-4.32266e-09
2.0918e-06
3.89285e-08
2.09847e-06
-1.26134e-08
2.129e-06
-9.63317e-08
2.13591e-06
-3.15806e-08
2.13778e-06
-1.7852e-08
2.14367e-06
3.37551e-09
2.15086e-06
-1.62695e-08
2.13981e-06
5.98093e-09
2.13313e-06
2.92263e-08
2.14011e-06
-3.37426e-09
2.14231e-06
-3.48475e-08
2.15526e-06
-4.12041e-08
2.17826e-06
-4.45518e-08
2.18784e-06
-3.63717e-08
2.19599e-06
-3.62131e-08
2.21362e-06
-3.27675e-08
2.23394e-06
-5.84826e-08
2.23224e-06
-1.08733e-08
2.23895e-06
-4.47256e-09
2.25435e-06
-2.45985e-08
2.24945e-06
-2.51516e-09
2.26175e-06
-3.65419e-08
2.29592e-06
-8.01785e-08
2.30298e-06
-3.69878e-08
2.31422e-06
-3.79006e-08
2.33642e-06
-4.40348e-08
2.35105e-06
-5.53133e-08
-5.24713e-08
1.97877e-06
-2.72201e-08
1.97952e-06
3.01203e-09
1.99171e-06
-4.14728e-08
2.01818e-06
-3.8857e-08
2.02244e-06
-1.52967e-08
2.01544e-06
-2.97752e-08
2.01975e-06
-1.84688e-08
2.03086e-06
-2.69834e-08
2.04115e-06
-3.48228e-08
2.04965e-06
-5.12943e-08
2.06195e-06
-5.2547e-08
2.07096e-06
-4.34288e-08
2.08067e-06
-2.93859e-08
2.09062e-06
-2.66037e-08
2.10212e-06
-4.66844e-08
2.10526e-06
-1.75608e-08
2.10316e-06
1.79974e-08
2.10638e-06
-4.67545e-09
2.12048e-06
-4.01465e-08
2.12095e-06
-5.82723e-09
2.1139e-06
1.91865e-08
2.11826e-06
-1.44198e-08
2.127e-06
7.15782e-09
2.12788e-06
-5.90788e-10
2.12862e-06
-4.38087e-08
2.13427e-06
-2.43712e-08
2.13597e-06
-1.43342e-08
2.13825e-06
-1.51863e-09
2.14241e-06
-9.99449e-09
2.15379e-06
-3.16447e-08
2.156e-06
-1.16966e-08
2.15318e-06
4.05444e-09
2.15632e-06
-1.04492e-08
2.1631e-06
-5.29926e-09
2.16531e-06
-3.89855e-09
2.16781e-06
-3.18715e-08
2.17651e-06
-3.28883e-08
2.17845e-06
-1.32248e-08
2.17927e-06
2.16828e-09
2.18242e-06
-6.84855e-09
2.19775e-06
8.8289e-09
2.20271e-06
-1.52649e-08
2.20274e-06
-7.05042e-08
2.21329e-06
-3.8545e-08
2.21559e-06
-1.42702e-08
2.21658e-06
1.70353e-09
2.21981e-06
-7.54956e-09
2.23963e-06
1.91091e-08
2.24701e-06
-1.99945e-08
2.24513e-06
-9.44509e-08
2.2582e-06
-4.46468e-08
2.26207e-06
-2.17258e-08
2.26169e-06
3.75936e-09
2.26875e-06
-2.33366e-08
2.27201e-06
2.72156e-09
2.26556e-06
3.56836e-08
2.26211e-06
6.90331e-11
2.28607e-06
-5.88043e-08
2.29924e-06
-5.43717e-08
2.30046e-06
-4.57749e-08
2.31447e-06
-5.03832e-08
2.32675e-06
-4.84848e-08
2.33984e-06
-4.58588e-08
2.35823e-06
-7.68795e-08
2.36883e-06
-2.14675e-08
2.37547e-06
-1.11121e-08
2.38229e-06
-3.14223e-08
2.40497e-06
-2.51925e-08
2.41849e-06
-5.00579e-08
2.42522e-06
-8.6917e-08
2.45311e-06
-6.4878e-08
2.46552e-06
-5.03029e-08
2.46639e-06
-4.49058e-08
2.49148e-06
-8.04042e-08
-6.94268e-08
2.24147e-06
-4.00902e-08
2.25013e-06
-5.65145e-09
2.26361e-06
-5.4944e-08
2.27877e-06
-5.40171e-08
2.28564e-06
-2.21705e-08
2.29167e-06
-3.58025e-08
2.29671e-06
-2.35127e-08
2.30261e-06
-3.28793e-08
2.31401e-06
-4.62222e-08
2.32925e-06
-6.65426e-08
2.34177e-06
-6.50612e-08
2.35045e-06
-5.21148e-08
2.36125e-06
-4.01768e-08
2.37301e-06
-3.83654e-08
2.38371e-06
-5.73821e-08
2.38774e-06
-2.15954e-08
2.38759e-06
1.81474e-08
2.39118e-06
-8.26752e-09
2.39905e-06
-4.8011e-08
2.40009e-06
-6.87322e-09
2.39961e-06
1.96738e-08
2.40401e-06
-1.88258e-08
2.40464e-06
6.53025e-09
2.40615e-06
-2.09892e-09
2.41488e-06
-5.25377e-08
2.4199e-06
-2.93933e-08
2.42112e-06
-1.55578e-08
2.42449e-06
-4.88903e-09
2.42981e-06
-1.53113e-08
2.4355e-06
-3.73319e-08
2.43778e-06
-1.39811e-08
2.44041e-06
1.42238e-09
2.44415e-06
-1.41861e-08
2.44483e-06
-5.97907e-09
2.44763e-06
-6.69768e-09
2.45655e-06
-4.07867e-08
2.46345e-06
-3.97897e-08
2.46531e-06
-1.50881e-08
2.46848e-06
-9.98316e-10
2.47372e-06
-1.20874e-08
2.48779e-06
-5.24638e-09
2.49258e-06
-2.00569e-08
2.49333e-06
-7.12476e-08
2.50259e-06
-4.78035e-08
2.50457e-06
-1.62533e-08
2.50785e-06
-1.57907e-09
2.51423e-06
-1.39236e-08
2.53214e-06
1.19865e-09
2.53913e-06
-2.69879e-08
2.53797e-06
-9.32941e-08
2.54842e-06
-5.50963e-08
2.55216e-06
-2.54624e-08
2.55511e-06
8.08278e-10
2.56261e-06
-3.08422e-08
2.56067e-06
4.66607e-09
2.5556e-06
4.07543e-08
2.5592e-06
-3.52847e-09
2.57148e-06
-7.10895e-08
2.58285e-06
-6.57402e-08
2.59538e-06
-5.83059e-08
2.60882e-06
-6.3821e-08
2.62103e-06
-6.06897e-08
2.63724e-06
-6.20726e-08
2.6562e-06
-9.58418e-08
2.66338e-06
-2.86439e-08
2.67201e-06
-1.97411e-08
2.68675e-06
-4.61562e-08
2.70839e-06
-4.68403e-08
2.72075e-06
-6.24136e-08
2.7282e-06
-9.43669e-08
2.74573e-06
-8.24141e-08
2.75766e-06
-6.22295e-08
2.76966e-06
-5.69029e-08
2.79025e-06
-1.01001e-07
-8.57455e-08
2.48613e-06
-5.8854e-08
2.50409e-06
-2.3612e-08
2.51925e-06
-7.01096e-08
2.5266e-06
-6.1364e-08
2.53707e-06
-3.2646e-08
2.55388e-06
-5.26104e-08
2.55961e-06
-2.92434e-08
2.56095e-06
-3.42118e-08
2.57502e-06
-6.02945e-08
2.59735e-06
-8.88771e-08
2.60963e-06
-7.73403e-08
2.61822e-06
-6.07052e-08
2.63081e-06
-5.27644e-08
2.64456e-06
-5.21198e-08
2.6539e-06
-6.67192e-08
2.65884e-06
-2.65333e-08
2.66143e-06
1.55543e-08
2.66551e-06
-1.23484e-08
2.66639e-06
-4.88841e-08
2.66826e-06
-8.74828e-09
2.67539e-06
1.25509e-08
2.67963e-06
-2.30666e-08
2.67092e-06
1.52393e-08
2.67348e-06
-4.65643e-09
2.6915e-06
-7.05654e-08
2.69552e-06
-3.34131e-08
2.6963e-06
-1.63312e-08
2.7012e-06
-9.79096e-09
2.70766e-06
-2.17706e-08
2.70687e-06
-3.65475e-08
2.70985e-06
-1.6961e-08
2.71887e-06
-7.59413e-09
2.72183e-06
-1.71491e-08
2.71603e-06
-1.77865e-10
2.72045e-06
-1.11127e-08
2.73616e-06
-5.64946e-08
2.74043e-06
-4.40669e-08
2.74239e-06
-1.70485e-08
2.74862e-06
-7.22862e-09
2.75438e-06
-1.78395e-08
2.74865e-06
4.76564e-10
2.7547e-06
-2.61022e-08
2.77476e-06
-9.13053e-08
2.78211e-06
-5.51527e-08
2.78397e-06
-1.81153e-08
2.79018e-06
-7.79223e-09
2.79784e-06
-2.15829e-08
2.79457e-06
4.47109e-09
2.80253e-06
-3.49478e-08
2.82161e-06
-1.1238e-07
2.82851e-06
-6.19943e-08
2.83218e-06
-2.91351e-08
2.83971e-06
-6.72123e-09
2.84712e-06
-3.82473e-08
2.84014e-06
1.16452e-08
2.83781e-06
4.30833e-08
2.84663e-06
-1.23434e-08
2.8491e-06
-7.35628e-08
2.86184e-06
-7.84773e-08
2.88302e-06
-7.94884e-08
2.89324e-06
-7.40399e-08
2.90576e-06
-7.32104e-08
2.92603e-06
-8.23402e-08
2.94413e-06
-1.13945e-07
2.94817e-06
-3.26771e-08
2.96066e-06
-3.22356e-08
2.98067e-06
-6.61672e-08
2.98355e-06
-4.97185e-08
2.99623e-06
-7.509e-08
3.02123e-06
-1.19376e-07
3.03062e-06
-9.18011e-08
3.04333e-06
-7.49396e-08
3.06477e-06
-7.83448e-08
3.07964e-06
-1.15869e-07
-1.01679e-07
2.61629e-06
-7.90501e-08
2.62733e-06
-3.46526e-08
2.64319e-06
-8.59702e-08
2.66892e-06
-8.70942e-08
2.68001e-06
-4.37332e-08
2.68091e-06
-5.35108e-08
2.68809e-06
-3.64243e-08
2.7047e-06
-5.08253e-08
2.71887e-06
-7.44617e-08
2.7277e-06
-9.77085e-08
2.7414e-06
-9.10422e-08
2.75463e-06
-7.39351e-08
2.76652e-06
-6.46551e-08
2.77709e-06
-6.26861e-08
2.78973e-06
-7.93624e-08
2.79647e-06
-3.32677e-08
2.79649e-06
1.55284e-08
2.79963e-06
-1.54846e-08
2.81302e-06
-6.22781e-08
2.8154e-06
-1.1123e-08
2.81094e-06
1.70086e-08
2.8155e-06
-2.76217e-08
2.82679e-06
3.94232e-09
2.82905e-06
-6.91461e-09
2.8284e-06
-6.99128e-08
2.83459e-06
-3.9604e-08
2.83924e-06
-2.0983e-08
2.84226e-06
-1.28053e-08
2.84593e-06
-2.54419e-08
2.85657e-06
-4.71925e-08
2.86053e-06
-2.09191e-08
2.85891e-06
-5.97274e-09
2.86231e-06
-2.05469e-08
2.87199e-06
-9.85515e-09
2.87596e-06
-1.50831e-08
2.87698e-06
-5.75204e-08
2.88621e-06
-5.32915e-08
2.89072e-06
-2.15617e-08
2.8926e-06
-9.1105e-09
2.89771e-06
-2.29476e-08
2.91027e-06
-1.20779e-08
2.91667e-06
-3.25106e-08
2.91867e-06
-9.33004e-08
2.93008e-06
-6.65652e-08
2.93542e-06
-2.34573e-08
2.93811e-06
-1.04739e-08
2.94506e-06
-2.85422e-08
2.96001e-06
-1.04724e-08
2.96809e-06
-4.30303e-08
2.96879e-06
-1.13082e-07
2.98228e-06
-7.5484e-08
2.98831e-06
-3.51649e-08
2.98927e-06
-7.67588e-09
2.99662e-06
-4.56012e-08
3.00341e-06
4.85958e-09
3.0013e-06
4.51845e-08
3.00049e-06
-1.15319e-08
3.01898e-06
-9.20525e-08
3.0326e-06
-9.20944e-08
3.03841e-06
-8.52927e-08
3.05355e-06
-8.9186e-08
3.07025e-06
-8.99027e-08
3.08538e-06
-9.7476e-08
3.10249e-06
-1.31057e-07
3.11786e-06
-4.80452e-08
3.12932e-06
-4.3695e-08
3.14085e-06
-7.76913e-08
3.15907e-06
-6.79398e-08
3.17195e-06
-8.79746e-08
3.18104e-06
-1.28468e-07
3.20629e-06
-1.17049e-07
3.22073e-06
-8.93817e-08
3.22704e-06
-8.4654e-08
3.25191e-06
-1.4074e-07
-1.21088e-07
2.85534e-06
-1.05111e-07
2.87638e-06
-5.56918e-08
2.89434e-06
-1.03932e-07
2.91315e-06
-1.05898e-07
2.92837e-06
-5.89538e-08
2.94063e-06
-6.57752e-08
2.9503e-06
-4.60986e-08
2.96192e-06
-6.24377e-08
2.97821e-06
-9.07527e-08
2.99576e-06
-1.15255e-07
3.01023e-06
-1.05516e-07
3.02271e-06
-8.64148e-08
3.03639e-06
-7.83333e-08
3.05008e-06
-7.63779e-08
3.06141e-06
-9.06904e-08
3.06825e-06
-4.011e-08
3.07081e-06
1.29701e-08
3.07478e-06
-1.94564e-08
3.08063e-06
-6.81306e-08
3.08367e-06
-1.41555e-08
3.08754e-06
1.3132e-08
3.09233e-06
-3.24091e-08
3.09533e-06
9.39487e-10
3.09843e-06
-1.00068e-08
3.10627e-06
-7.77585e-08
3.11194e-06
-4.52698e-08
3.1157e-06
-2.47488e-08
3.12005e-06
-1.7153e-08
3.12544e-06
-3.0829e-08
3.12936e-06
-5.11181e-08
3.13364e-06
-2.51948e-08
3.13908e-06
-1.14097e-08
3.1432e-06
-2.46674e-08
3.1455e-06
-1.21544e-08
3.14977e-06
-1.93572e-08
3.15799e-06
-6.57406e-08
3.1649e-06
-6.01983e-08
3.1691e-06
-2.57629e-08
3.17423e-06
-1.42431e-08
3.18139e-06
-3.01099e-08
3.19491e-06
-2.55888e-08
3.20097e-06
-3.85725e-08
3.2016e-06
-9.39315e-08
3.21102e-06
-7.59835e-08
3.21553e-06
-2.79666e-08
3.22129e-06
-1.62372e-08
3.23109e-06
-3.83386e-08
3.23981e-06
-1.91972e-08
3.24738e-06
-5.06014e-08
3.25379e-06
-1.19495e-07
3.26363e-06
-8.53148e-08
3.26897e-06
-4.05145e-08
3.27447e-06
-1.3167e-08
3.28244e-06
-5.35749e-08
3.2834e-06
3.89545e-09
3.28371e-06
4.48769e-08
3.29098e-06
-1.87962e-08
3.30039e-06
-1.01467e-07
3.31344e-06
-1.05139e-07
3.32906e-06
-1.00919e-07
3.34243e-06
-1.02548e-07
3.35802e-06
-1.05492e-07
3.37691e-06
-1.16367e-07
3.39509e-06
-1.49244e-07
3.4048e-06
-5.77481e-08
3.41712e-06
-5.60156e-08
3.43481e-06
-9.53842e-08
3.45527e-06
-8.84012e-08
3.46808e-06
-1.00788e-07
3.47568e-06
-1.36069e-07
3.49215e-06
-1.33511e-07
3.50685e-06
-1.04084e-07
3.52315e-06
-1.00959e-07
3.5429e-06
-1.60489e-07
-1.39546e-07
3.00078e-06
-1.32957e-07
3.01553e-06
-7.04369e-08
3.03429e-06
-1.22694e-07
3.07058e-06
-1.42186e-07
3.08632e-06
-7.46967e-08
3.08396e-06
-6.34099e-08
3.09593e-06
-5.807e-08
3.12193e-06
-8.84427e-08
3.13746e-06
-1.06283e-07
3.14264e-06
-1.20428e-07
3.15934e-06
-1.22216e-07
3.17769e-06
-1.04763e-07
3.19026e-06
-9.09053e-08
3.19971e-06
-8.58318e-08
3.21479e-06
-1.05771e-07
3.22395e-06
-4.92675e-08
3.22381e-06
1.31149e-08
3.22632e-06
-2.1974e-08
3.24479e-06
-8.65974e-08
3.24854e-06
-1.79006e-08
3.24079e-06
2.08734e-08
3.24569e-06
-3.73055e-08
3.26567e-06
-1.90352e-08
3.26852e-06
-1.28631e-08
3.26071e-06
-6.99502e-08
3.26853e-06
-5.30884e-08
3.27743e-06
-3.36436e-08
3.27981e-06
-1.95363e-08
3.28133e-06
-3.23519e-08
3.2969e-06
-6.66881e-08
3.3022e-06
-3.04945e-08
3.29679e-06
-5.99719e-09
3.30156e-06
-2.94372e-08
3.31917e-06
-2.97615e-08
3.32267e-06
-2.28591e-08
3.3167e-06
-5.97694e-08
3.32849e-06
-7.19851e-08
3.33588e-06
-3.31572e-08
3.3365e-06
-1.4862e-08
3.34253e-06
-3.61359e-08
3.36605e-06
-4.91165e-08
3.37177e-06
-4.42931e-08
3.36343e-06
-8.55889e-08
3.37704e-06
-8.95944e-08
3.3859e-06
-3.6823e-08
3.38785e-06
-1.81884e-08
3.39549e-06
-4.59762e-08
3.42065e-06
-4.43542e-08
3.42797e-06
-5.79313e-08
3.41922e-06
-1.10738e-07
3.43569e-06
-1.01786e-07
3.44438e-06
-4.92012e-08
3.4433e-06
-1.20882e-08
3.45026e-06
-6.05382e-08
3.46537e-06
-1.12188e-08
3.46602e-06
4.42279e-08
3.4639e-06
-1.66725e-08
3.49101e-06
-1.28579e-07
3.50385e-06
-1.17979e-07
3.50338e-06
-1.00448e-07
3.52256e-06
-1.21723e-07
3.54303e-06
-1.2596e-07
3.55646e-06
-1.29801e-07
3.57355e-06
-1.66334e-07
3.59495e-06
-7.91483e-08
3.605e-06
-6.60633e-08
3.61163e-06
-1.02013e-07
3.64178e-06
-1.18553e-07
3.65528e-06
-1.14288e-07
3.65453e-06
-1.3532e-07
3.6876e-06
-1.66576e-07
3.70478e-06
-1.21264e-07
3.70544e-06
-1.01623e-07
3.73474e-06
-1.8979e-07
-1.62547e-07
3.24903e-06
-1.6687e-07
3.27557e-06
-9.69788e-08
3.29707e-06
-1.44193e-07
3.32071e-06
-1.6583e-07
3.33981e-06
-9.37982e-08
3.35375e-06
-7.73446e-08
3.36947e-06
-7.37863e-08
3.3894e-06
-1.0838e-07
3.4069e-06
-1.23782e-07
3.42338e-06
-1.36905e-07
3.44214e-06
-1.40979e-07
3.45895e-06
-1.21565e-07
3.47381e-06
-1.05774e-07
3.48865e-06
-1.00666e-07
3.50293e-06
-1.20054e-07
3.51243e-06
-5.87609e-08
3.51696e-06
8.58108e-09
3.52236e-06
-2.73777e-08
3.53063e-06
-9.48596e-08
3.53445e-06
-2.17265e-08
3.53845e-06
1.68801e-08
3.54489e-06
-4.37541e-08
3.55359e-06
-2.77338e-08
3.55747e-06
-1.67388e-08
3.56166e-06
-7.41369e-08
3.56829e-06
-5.9725e-08
3.57371e-06
-3.90632e-08
3.57841e-06
-2.42346e-08
3.5847e-06
-3.86378e-08
3.59069e-06
-7.26836e-08
3.59481e-06
-3.46076e-08
3.59901e-06
-1.02007e-08
3.60638e-06
-3.68104e-08
3.61379e-06
-3.71683e-08
3.6178e-06
-2.68661e-08
3.6232e-06
-6.51734e-08
3.63155e-06
-8.03318e-08
3.63652e-06
-3.81333e-08
3.64156e-06
-1.98979e-08
3.65094e-06
-4.55111e-08
3.66384e-06
-6.20161e-08
3.66982e-06
-5.02816e-08
3.67286e-06
-8.86226e-08
3.68407e-06
-1.00809e-07
3.68968e-06
-4.24315e-08
3.69559e-06
-2.40976e-08
3.70704e-06
-5.74248e-08
3.72305e-06
-6.03668e-08
3.73057e-06
-6.545e-08
3.73171e-06
-1.11878e-07
3.74337e-06
-1.13452e-07
3.7498e-06
-5.5622e-08
3.75511e-06
-1.74076e-08
3.7643e-06
-6.97285e-08
3.76979e-06
-1.67035e-08
3.77182e-06
4.21971e-08
3.78076e-06
-2.56117e-08
3.79442e-06
-1.42241e-07
3.80389e-06
-1.27442e-07
3.81856e-06
-1.15124e-07
3.83777e-06
-1.40934e-07
3.85445e-06
-1.42637e-07
3.87199e-06
-1.47334e-07
3.89371e-06
-1.88056e-07
3.90743e-06
-9.28737e-08
3.91821e-06
-7.6837e-08
3.93396e-06
-1.17761e-07
3.954e-06
-1.38602e-07
3.96764e-06
-1.27923e-07
3.97882e-06
-1.46507e-07
3.99821e-06
-1.85962e-07
4.01423e-06
-1.3728e-07
4.03125e-06
-1.18648e-07
4.05408e-06
-2.12615e-07
-1.82545e-07
3.49419e-06
-2.06678e-07
3.53209e-06
-1.34878e-07
3.55623e-06
-1.68332e-07
3.57111e-06
-1.80711e-07
3.59429e-06
-1.16977e-07
3.62061e-06
-1.03664e-07
3.63847e-06
-9.16479e-08
3.65184e-06
-1.21748e-07
3.67376e-06
-1.45701e-07
3.70237e-06
-1.65513e-07
3.72174e-06
-1.60351e-07
3.7379e-06
-1.37721e-07
3.75668e-06
-1.24553e-07
3.77625e-06
-1.20243e-07
3.78829e-06
-1.32091e-07
3.79897e-06
-6.94407e-08
3.8099e-06
-2.34448e-09
3.81789e-06
-3.5372e-08
3.81688e-06
-9.38464e-08
3.82214e-06
-2.69871e-08
3.8371e-06
1.92048e-09
3.8444e-06
-5.10573e-08
3.83899e-06
-2.2322e-08
3.84485e-06
-2.26017e-08
3.86393e-06
-9.32188e-08
3.86832e-06
-6.41151e-08
3.87154e-06
-4.22783e-08
3.87991e-06
-3.26033e-08
3.88985e-06
-4.85838e-08
3.88654e-06
-6.93658e-08
3.8909e-06
-3.89712e-08
3.90477e-06
-2.40662e-08
3.91214e-06
-4.41849e-08
3.90811e-06
-3.31351e-08
3.91418e-06
-3.29397e-08
3.93261e-06
-8.3599e-08
3.93572e-06
-8.34408e-08
3.9393e-06
-4.17138e-08
3.95037e-06
-3.09757e-08
3.96209e-06
-5.72311e-08
3.95555e-06
-5.5469e-08
3.96271e-06
-5.74483e-08
3.98567e-06
-1.11574e-07
3.99264e-06
-1.07786e-07
3.99626e-06
-4.60505e-08
4.00771e-06
-3.55426e-08
4.0217e-06
-7.14194e-08
4.01764e-06
-5.62992e-08
4.02635e-06
-7.41642e-08
4.04784e-06
-1.33372e-07
4.05297e-06
-1.18576e-07
4.05776e-06
-6.04167e-08
4.07143e-06
-3.10737e-08
4.08117e-06
-7.94674e-08
4.07662e-06
-1.21547e-08
4.08261e-06
3.62041e-08
4.10038e-06
-4.3385e-08
4.1041e-06
-1.45954e-07
4.11508e-06
-1.38424e-07
4.13958e-06
-1.39624e-07
4.15426e-06
-1.55613e-07
4.16961e-06
-1.57981e-07
4.19352e-06
-1.7125e-07
4.2151e-06
-2.09633e-07
4.22031e-06
-9.80808e-08
4.23526e-06
-9.17948e-08
4.25992e-06
-1.42421e-07
4.26229e-06
-1.40967e-07
4.27729e-06
-1.4292e-07
4.30688e-06
-1.76102e-07
4.31641e-06
-1.95491e-07
4.33265e-06
-1.53521e-07
4.36186e-06
-1.47858e-07
4.37759e-06
-2.28342e-07
-2.00987e-07
3.66749e-06
-2.49452e-07
3.70058e-06
-1.67963e-07
3.72575e-06
-1.93501e-07
3.7529e-06
-2.07865e-07
3.77767e-06
-1.41753e-07
3.79416e-06
-1.20145e-07
3.81386e-06
-1.11357e-07
3.84067e-06
-1.48557e-07
3.86309e-06
-1.68117e-07
3.88059e-06
-1.83012e-07
3.90228e-06
-1.82043e-07
3.92377e-06
-1.59213e-07
3.94156e-06
-1.42342e-07
3.95743e-06
-1.36107e-07
3.97413e-06
-1.4879e-07
3.98725e-06
-8.25591e-08
3.99512e-06
-1.02176e-08
4.00272e-06
-4.29695e-08
4.01235e-06
-1.03476e-07
4.01853e-06
-3.3172e-08
4.02399e-06
-3.54164e-09
4.03191e-06
-5.89717e-08
4.04359e-06
-3.40021e-08
4.04913e-06
-2.81402e-08
4.05267e-06
-9.67635e-08
4.06023e-06
-7.16766e-08
4.06749e-06
-4.95334e-08
4.07309e-06
-3.82004e-08
4.08036e-06
-5.5858e-08
4.08792e-06
-7.69282e-08
4.09354e-06
-4.45875e-08
4.09733e-06
-2.78593e-08
4.10523e-06
-5.20786e-08
4.11579e-06
-4.36955e-08
4.12104e-06
-3.81939e-08
4.12655e-06
-8.91094e-08
4.13606e-06
-9.29501e-08
4.14228e-06
-4.79305e-08
4.14721e-06
-3.59096e-08
4.15834e-06
-6.83569e-08
4.17061e-06
-6.77372e-08
4.17765e-06
-6.44945e-08
4.18347e-06
-1.17389e-07
4.19581e-06
-1.20134e-07
4.20329e-06
-5.353e-08
4.2095e-06
-4.17446e-08
4.222e-06
-8.39246e-08
4.23712e-06
-7.14137e-08
4.24561e-06
-8.26596e-08
4.24969e-06
-1.37449e-07
4.26216e-06
-1.31049e-07
4.26974e-06
-6.79941e-08
4.27598e-06
-3.73176e-08
4.28632e-06
-8.98062e-08
4.29543e-06
-2.12611e-08
4.30115e-06
3.048e-08
4.30932e-06
-5.15486e-08
4.32501e-06
-1.61648e-07
4.33822e-06
-1.5163e-07
4.35228e-06
-1.53688e-07
4.3729e-06
-1.7623e-07
4.39204e-06
-1.7712e-07
4.40865e-06
-1.87858e-07
4.43002e-06
-2.31005e-07
4.44595e-06
-1.14009e-07
4.45851e-06
-1.04356e-07
4.47464e-06
-1.58554e-07
4.49418e-06
-1.60512e-07
4.50951e-06
-1.58239e-07
4.52423e-06
-1.90827e-07
4.54454e-06
-2.15798e-07
4.56259e-06
-1.71572e-07
4.58191e-06
-1.6718e-07
4.60637e-06
-2.52805e-07
-2.23247e-07
3.92013e-06
-2.97428e-07
3.96431e-06
-2.12141e-07
3.99233e-06
-2.21516e-07
4.01289e-06
-2.28424e-07
4.04182e-06
-1.70692e-07
4.06978e-06
-1.48101e-07
4.09208e-06
-1.33656e-07
4.11229e-06
-1.68766e-07
4.13879e-06
-1.94622e-07
4.16851e-06
-2.12732e-07
4.19094e-06
-2.04471e-07
4.21102e-06
-1.79292e-07
4.23274e-06
-1.64058e-07
4.25401e-06
-1.57383e-07
4.26813e-06
-1.62908e-07
4.28177e-06
-9.61951e-08
4.29578e-06
-2.42263e-08
4.30582e-06
-5.30112e-08
4.30708e-06
-1.04735e-07
4.31536e-06
-4.14553e-08
4.33137e-06
-1.95469e-08
4.33955e-06
-6.71542e-08
4.33899e-06
-3.344e-08
4.3468e-06
-3.59569e-08
4.36369e-06
-1.13651e-07
4.36929e-06
-7.72776e-08
4.37457e-06
-5.48118e-08
4.38441e-06
-4.80336e-08
4.39536e-06
-6.68137e-08
4.39441e-06
-7.59775e-08
4.40072e-06
-5.08945e-08
4.41436e-06
-4.15037e-08
4.42215e-06
-5.98704e-08
4.42149e-06
-4.30269e-08
4.42868e-06
-4.53841e-08
4.44626e-06
-1.06693e-07
4.45057e-06
-9.72552e-08
4.45597e-06
-5.33328e-08
4.46753e-06
-4.74741e-08
4.48019e-06
-8.1013e-08
4.47821e-06
-6.57617e-08
4.48659e-06
-7.28668e-08
4.50706e-06
-1.37867e-07
4.51482e-06
-1.27891e-07
4.52011e-06
-5.8814e-08
4.53298e-06
-5.46174e-08
4.54766e-06
-9.8602e-08
4.54805e-06
-7.18072e-08
4.55791e-06
-9.25228e-08
4.57698e-06
-1.56514e-07
4.58291e-06
-1.3698e-07
4.58866e-06
-7.37423e-08
4.6035e-06
-5.2159e-08
4.61441e-06
-1.00722e-07
4.61368e-06
-2.05271e-08
4.62365e-06
2.0508e-08
4.64256e-06
-7.04624e-08
4.65083e-06
-1.69912e-07
4.66487e-06
-1.65672e-07
4.68817e-06
-1.76982e-07
4.7046e-06
-1.92667e-07
4.72059e-06
-1.93109e-07
4.74267e-06
-2.09937e-07
4.76406e-06
-2.5239e-07
4.77048e-06
-1.20425e-07
4.78698e-06
-1.20863e-07
4.81155e-06
-1.83116e-07
4.819e-06
-1.6797e-07
4.83594e-06
-1.75175e-07
4.86366e-06
-2.18546e-07
4.87634e-06
-2.28487e-07
4.8948e-06
-1.90026e-07
4.92446e-06
-1.96837e-07
4.9427e-06
-2.71052e-07
-2.43521e-07
4.11185e-06
-3.49305e-07
4.1525e-06
-2.52791e-07
4.18231e-06
-2.51325e-07
4.2134e-06
-2.5952e-07
4.24355e-06
-2.00838e-07
4.26381e-06
-1.68365e-07
4.28838e-06
-1.58222e-07
4.32115e-06
-2.01536e-07
4.3481e-06
-2.21576e-07
4.368e-06
-2.32623e-07
4.39318e-06
-2.29651e-07
4.41902e-06
-2.05135e-07
4.43973e-06
-1.84769e-07
4.45705e-06
-1.74704e-07
4.47606e-06
-1.81922e-07
4.49249e-06
-1.12619e-07
4.5036e-06
-3.53377e-08
4.51349e-06
-6.29004e-08
4.52442e-06
-1.1567e-07
4.53347e-06
-5.04963e-08
4.54116e-06
-2.72411e-08
4.55032e-06
-7.63148e-08
4.56497e-06
-4.8086e-08
4.57247e-06
-4.34612e-08
4.57564e-06
-1.16816e-07
4.5848e-06
-8.64442e-08
4.59459e-06
-6.45953e-08
4.60153e-06
-5.49799e-08
4.60977e-06
-7.50482e-08
4.61904e-06
-8.52469e-08
4.62607e-06
-5.79302e-08
4.63066e-06
-4.60963e-08
4.63958e-06
-6.87878e-08
4.65256e-06
-5.60022e-08
4.65891e-06
-5.17361e-08
4.66463e-06
-1.1241e-07
4.67557e-06
-1.08194e-07
4.6835e-06
-6.12718e-08
4.68902e-06
-5.29886e-08
4.70115e-06
-9.31474e-08
4.71507e-06
-7.96775e-08
4.72329e-06
-8.10823e-08
4.72976e-06
-1.44345e-07
4.74313e-06
-1.41255e-07
4.75219e-06
-6.78738e-08
4.75962e-06
-6.20529e-08
4.77315e-06
-1.12127e-07
4.7898e-06
-8.84636e-08
4.7994e-06
-1.02115e-07
4.8042e-06
-1.61321e-07
4.81749e-06
-1.50268e-07
4.82614e-06
-8.23924e-08
4.83365e-06
-5.96701e-08
4.8454e-06
-1.12468e-07
4.85788e-06
-3.30086e-08
4.86717e-06
1.12206e-08
4.87814e-06
-8.14341e-08
4.89638e-06
-1.88156e-07
4.91181e-06
-1.81093e-07
4.9272e-06
-1.92376e-07
4.94954e-06
-2.15e-07
4.96871e-06
-2.12285e-07
4.98388e-06
-2.25107e-07
5.00421e-06
-2.72714e-07
5.0224e-06
-1.38622e-07
5.0365e-06
-1.34964e-07
5.05294e-06
-1.99546e-07
5.0745e-06
-1.89533e-07
5.09167e-06
-1.92349e-07
5.1077e-06
-2.34578e-07
5.12965e-06
-2.50436e-07
5.14994e-06
-2.10319e-07
5.17163e-06
-2.1852e-07
5.19777e-06
-2.97193e-07
-2.67817e-07
4.38083e-06
-4.0612e-07
4.43334e-06
-3.05304e-07
4.46677e-06
-2.84754e-07
4.49061e-06
-2.83358e-07
4.524e-06
-2.34229e-07
4.55602e-06
-2.00381e-07
4.58303e-06
-1.85235e-07
4.60812e-06
-2.26629e-07
4.63937e-06
-2.52828e-07
4.67243e-06
-2.65675e-07
4.69811e-06
-2.55339e-07
4.72158e-06
-2.28601e-07
4.74645e-06
-2.0964e-07
4.77014e-06
-1.9839e-07
4.78623e-06
-1.98019e-07
4.80293e-06
-1.29312e-07
4.82097e-06
-5.33743e-08
4.83397e-06
-7.59044e-08
4.8363e-06
-1.18001e-07
4.84742e-06
-6.16168e-08
4.86616e-06
-4.59825e-08
4.87528e-06
-8.54286e-08
4.87717e-06
-4.99805e-08
4.88763e-06
-5.39187e-08
4.90544e-06
-1.34625e-07
4.91204e-06
-9.30482e-08
4.91853e-06
-7.10782e-08
4.93084e-06
-6.72922e-08
4.94358e-06
-8.77939e-08
4.94426e-06
-8.59235e-08
4.95246e-06
-6.61299e-08
4.9678e-06
-6.14329e-08
4.97611e-06
-7.70959e-08
4.97679e-06
-5.66833e-08
4.98598e-06
-6.09339e-08
5.00499e-06
-1.3142e-07
5.00985e-06
-1.13046e-07
5.01661e-06
-6.80318e-08
5.03038e-06
-6.67591e-08
5.0443e-06
-1.07069e-07
5.04377e-06
-7.91478e-08
5.05385e-06
-9.11631e-08
5.07535e-06
-1.65842e-07
5.08329e-06
-1.49195e-07
5.08972e-06
-7.43026e-08
5.10517e-06
-7.75117e-08
5.12117e-06
-1.28125e-07
5.12291e-06
-9.02032e-08
5.13443e-06
-1.13634e-07
5.15453e-06
-1.81417e-07
5.16054e-06
-1.56277e-07
5.16739e-06
-8.9247e-08
5.18477e-06
-7.70492e-08
5.19665e-06
-1.24351e-07
5.19772e-06
-3.40805e-08
5.21162e-06
-2.66967e-09
5.23507e-06
-1.04891e-07
5.24537e-06
-1.98455e-07
5.2614e-06
-1.97121e-07
5.28706e-06
-2.18037e-07
5.30369e-06
-2.31625e-07
5.31742e-06
-2.26019e-07
5.34042e-06
-2.48108e-07
5.36097e-06
-2.9326e-07
5.36871e-06
-1.46359e-07
5.38783e-06
-1.54091e-07
5.41351e-06
-2.25217e-07
5.42273e-06
-1.9876e-07
5.4424e-06
-2.12018e-07
5.47176e-06
-2.63937e-07
5.48585e-06
-2.6452e-07
5.50679e-06
-2.31261e-07
5.53896e-06
-2.50693e-07
5.55919e-06
-3.17425e-07
-2.90094e-07
4.59206e-06
-4.68116e-07
4.64136e-06
-3.54607e-07
4.67729e-06
-3.20684e-07
4.71204e-06
-3.18104e-07
4.74643e-06
-2.68614e-07
4.77112e-06
-2.25074e-07
4.80041e-06
-2.14526e-07
4.83791e-06
-2.64132e-07
4.87e-06
-2.84917e-07
4.89365e-06
-2.89317e-07
4.92223e-06
-2.83919e-07
4.95186e-06
-2.58234e-07
4.97589e-06
-2.33672e-07
4.99535e-06
-2.17845e-07
5.01649e-06
-2.19165e-07
5.03644e-06
-1.4926e-07
5.05182e-06
-6.87497e-08
5.06484e-06
-8.89303e-08
5.07616e-06
-1.29319e-07
5.08819e-06
-7.36435e-08
5.09947e-06
-5.72661e-08
5.10974e-06
-9.56941e-08
5.1257e-06
-6.59392e-08
5.13616e-06
-6.43846e-08
5.14089e-06
-1.39351e-07
5.15129e-06
-1.0345e-07
5.16249e-06
-8.22737e-08
5.17197e-06
-7.67744e-08
5.18193e-06
-9.77556e-08
5.19172e-06
-9.57148e-08
5.20064e-06
-7.50517e-08
5.20823e-06
-6.90195e-08
5.21789e-06
-8.67505e-08
5.23167e-06
-7.0466e-08
5.24043e-06
-6.96899e-08
5.24809e-06
-1.3908e-07
5.25951e-06
-1.24471e-07
5.26895e-06
-7.74667e-08
5.27711e-06
-7.4921e-08
5.29041e-06
-1.20367e-07
5.30594e-06
-9.4683e-08
5.31579e-06
-1.01011e-07
5.3233e-06
-1.73351e-07
5.33691e-06
-1.6281e-07
5.34744e-06
-8.48306e-08
5.35745e-06
-8.75241e-08
5.37229e-06
-1.42958e-07
5.3905e-06
-1.08413e-07
5.40162e-06
-1.24759e-07
5.40752e-06
-1.87317e-07
5.42057e-06
-1.69329e-07
5.43047e-06
-9.91428e-08
5.44079e-06
-8.73699e-08
5.4538e-06
-1.37363e-07
5.4679e-06
-4.8177e-08
5.48014e-06
-1.49156e-08
5.49586e-06
-1.2061e-07
5.5157e-06
-2.18288e-07
5.5324e-06
-2.13823e-07
5.55115e-06
-2.36792e-07
5.57307e-06
-2.53538e-07