/*--------------------------------*- C++ -*----------------------------------*\
| =========                 |                                                 |
| \\      /  F ield         | OpenFOAM: The Open Source CFD Toolbox           |
|  \\    /   O peration     | Version:  v2012                                 |
|   \\  /    A nd           | Website:  www.openfoam.com                      |
|    \\/     M anipulation  |                                                 |
\*---------------------------------------------------------------------------*/
FoamFile
{
    version     2.0;
    format      ascii;
    class       volScalarField;
    location    "1e-06";
    object      pMean;
}
// * * * * * * * * * * * * * * * * * * * * * * * * * * * * * * * * * * * * * //

dimensions      [1 -1 -2 0 0 0 0];


internalField   nonuniform List<scalar> 
10193
(
3.43104e+07
3.38872e+07
3.35025e+07
3.31233e+07
3.27448e+07
3.23941e+07
3.20384e+07
3.1691e+07
3.13214e+07
3.09492e+07
3.05855e+07
3.02169e+07
2.98409e+07
2.94614e+07
2.90952e+07
2.8736e+07
2.839e+07
2.8058e+07
2.77372e+07
2.74201e+07
2.71114e+07
2.68098e+07
2.65181e+07
2.62163e+07
2.5924e+07
2.56395e+07
2.53605e+07
2.508e+07
2.47987e+07
2.45279e+07
2.42648e+07
2.40029e+07
2.37362e+07
2.34839e+07
2.32209e+07
2.29613e+07
2.2713e+07
2.24701e+07
2.22275e+07
2.19808e+07
2.17482e+07
2.1501e+07
2.12601e+07
2.10237e+07
2.07906e+07
2.0557e+07
2.03194e+07
2.00964e+07
1.98524e+07
1.96155e+07
1.93864e+07
1.91602e+07
1.89315e+07
1.87016e+07
1.84809e+07
1.82552e+07
1.80385e+07
1.78332e+07
1.76127e+07
1.73835e+07
1.71469e+07
1.69162e+07
1.66797e+07
1.64321e+07
1.61852e+07
1.59416e+07
1.56947e+07
1.54613e+07
1.52136e+07
1.49646e+07
1.47232e+07
1.44785e+07
1.42272e+07
1.39705e+07
1.37173e+07
3.43105e+07
3.38872e+07
3.35026e+07
3.31234e+07
3.27448e+07
3.23939e+07
3.20383e+07
3.16898e+07
3.13191e+07
3.09466e+07
3.05834e+07
3.0215e+07
2.98385e+07
2.94596e+07
2.90943e+07
2.8736e+07
2.839e+07
2.80581e+07
2.77372e+07
2.74202e+07
2.71115e+07
2.68099e+07
2.65182e+07
2.62164e+07
2.59237e+07
2.56395e+07
2.53605e+07
2.50796e+07
2.47982e+07
2.45279e+07
2.42648e+07
2.40022e+07
2.37359e+07
2.3484e+07
2.32206e+07
2.29608e+07
2.2713e+07
2.24701e+07
2.22269e+07
2.19804e+07
2.17468e+07
2.1501e+07
2.12602e+07
2.10237e+07
2.07907e+07
2.05564e+07
2.0319e+07
2.00952e+07
1.98525e+07
1.96157e+07
1.93865e+07
1.91603e+07
1.89316e+07
1.87017e+07
1.84811e+07
1.82553e+07
1.80369e+07
1.78299e+07
1.76091e+07
1.73792e+07
1.71431e+07
1.69128e+07
1.66751e+07
1.64273e+07
1.61836e+07
1.59395e+07
1.56923e+07
1.54579e+07
1.52122e+07
1.49647e+07
1.4722e+07
1.44776e+07
1.42262e+07
1.39705e+07
1.37176e+07
3.43105e+07
3.38872e+07
3.35026e+07
3.31234e+07
3.27448e+07
3.23939e+07
3.20381e+07
3.1688e+07
3.13166e+07
3.09441e+07
3.05811e+07
3.02127e+07
2.98359e+07
2.94579e+07
2.90933e+07
2.8736e+07
2.839e+07
2.80581e+07
2.77373e+07
2.74202e+07
2.71115e+07
2.68099e+07
2.65182e+07
2.62164e+07
2.59237e+07
2.56396e+07
2.53605e+07
2.50792e+07
2.47979e+07
2.45279e+07
2.42647e+07
2.40015e+07
2.37357e+07
2.3484e+07
2.32203e+07
2.29608e+07
2.27131e+07
2.24701e+07
2.22264e+07
2.19801e+07
2.17464e+07
2.1501e+07
2.12602e+07
2.10237e+07
2.07906e+07
2.05559e+07
2.03187e+07
2.00938e+07
1.98525e+07
1.96157e+07
1.93865e+07
1.91603e+07
1.89316e+07
1.87017e+07
1.8481e+07
1.82553e+07
1.80357e+07
1.78264e+07
1.76053e+07
1.73751e+07
1.71392e+07
1.69089e+07
1.66704e+07
1.64228e+07
1.61815e+07
1.59374e+07
1.56905e+07
1.54562e+07
1.5211e+07
1.49646e+07
1.47212e+07
1.44771e+07
1.4226e+07
1.39706e+07
1.37176e+07
3.43105e+07
3.38873e+07
3.35026e+07
3.31234e+07
3.27448e+07
3.23939e+07
3.20379e+07
3.16859e+07
3.13139e+07
3.09418e+07
3.05788e+07
3.02102e+07
2.98332e+07
2.94562e+07
2.90925e+07
2.8736e+07
2.839e+07
2.80581e+07
2.77373e+07
2.74202e+07
2.71115e+07
2.68099e+07
2.65182e+07
2.62164e+07
2.59238e+07
2.56396e+07
2.53605e+07
2.50789e+07
2.47978e+07
2.45279e+07
2.42646e+07
2.40012e+07
2.37356e+07
2.34836e+07
2.32202e+07
2.29609e+07
2.27131e+07
2.24701e+07
2.22261e+07
2.19799e+07
2.1745e+07
2.1501e+07
2.12603e+07
2.10237e+07
2.07906e+07
2.05556e+07
2.03185e+07
2.00917e+07
1.98525e+07
1.96158e+07
1.93865e+07
1.91603e+07
1.89316e+07
1.87018e+07
1.8481e+07
1.82553e+07
1.80348e+07
1.78226e+07
1.76016e+07
1.73716e+07
1.71352e+07
1.69049e+07
1.66661e+07
1.64187e+07
1.61789e+07
1.59354e+07
1.56893e+07
1.54535e+07
1.52104e+07
1.49647e+07
1.47206e+07
1.44771e+07
1.42261e+07
1.39706e+07
1.37178e+07
3.43105e+07
3.38873e+07
3.35026e+07
3.31234e+07
3.27448e+07
3.23939e+07
3.20377e+07
3.16838e+07
3.13111e+07
3.09394e+07
3.05764e+07
3.02077e+07
2.98305e+07
2.94546e+07
2.90917e+07
2.8736e+07
2.839e+07
2.80581e+07
2.77373e+07
2.74202e+07
2.71115e+07
2.68099e+07
2.65182e+07
2.62164e+07
2.59238e+07
2.56396e+07
2.53605e+07
2.50786e+07
2.47978e+07
2.4528e+07
2.42646e+07
2.40008e+07
2.37356e+07
2.34836e+07
2.322e+07
2.29609e+07
2.27131e+07
2.24702e+07
2.22257e+07
2.19798e+07
2.17443e+07
2.1501e+07
2.12603e+07
2.10237e+07
2.07907e+07
2.05554e+07
2.03184e+07
2.00905e+07
1.98525e+07
1.96158e+07
1.93865e+07
1.91603e+07
1.89316e+07
1.87018e+07
1.84811e+07
1.82553e+07
1.80337e+07
1.78198e+07
1.7598e+07
1.73677e+07
1.71316e+07
1.6901e+07
1.66618e+07
1.64151e+07
1.61767e+07
1.59337e+07
1.56884e+07
1.54521e+07
1.52103e+07
1.49647e+07
1.47207e+07
1.44771e+07
1.42261e+07
1.39707e+07
1.37179e+07
3.43105e+07
3.38873e+07
3.35026e+07
3.31234e+07
3.27448e+07
3.23939e+07
3.20372e+07
3.1681e+07
3.13077e+07
3.09365e+07
3.05736e+07
3.02044e+07
2.98272e+07
2.94526e+07
2.90907e+07
2.87358e+07
2.839e+07
2.80581e+07
2.77373e+07
2.74202e+07
2.71115e+07
2.681e+07
2.65182e+07
2.62164e+07
2.59238e+07
2.56396e+07
2.53604e+07
2.50781e+07
2.47977e+07
2.4528e+07
2.42643e+07
2.4e+07
2.37353e+07
2.34832e+07
2.32197e+07
2.29609e+07
2.27131e+07
2.247e+07
2.22252e+07
2.19796e+07
2.17438e+07
2.1501e+07
2.12603e+07
2.10237e+07
2.07906e+07
2.0555e+07
2.03182e+07
2.00897e+07
1.98526e+07
1.96159e+07
1.93866e+07
1.91603e+07
1.89315e+07
1.87019e+07
1.84811e+07
1.82551e+07
1.80323e+07
1.78166e+07
1.75941e+07
1.73634e+07
1.71275e+07
1.68967e+07
1.66572e+07
1.64114e+07
1.61743e+07
1.59319e+07
1.56875e+07
1.54515e+07
1.52103e+07
1.49648e+07
1.47208e+07
1.44771e+07
1.42262e+07
1.39709e+07
1.37181e+07
3.43105e+07
3.38873e+07
3.35026e+07
3.31235e+07
3.27448e+07
3.23939e+07
3.20366e+07
3.1678e+07
3.13043e+07
3.0934e+07
3.05707e+07
3.02011e+07
2.9824e+07
2.94508e+07
2.90898e+07
2.87356e+07
2.839e+07
2.80581e+07
2.77374e+07
2.74202e+07
2.71115e+07
2.681e+07
2.65182e+07
2.62164e+07
2.59238e+07
2.56396e+07
2.53602e+07
2.50778e+07
2.47977e+07
2.4528e+07
2.42641e+07
2.39996e+07
2.37351e+07
2.34824e+07
2.32195e+07
2.29609e+07
2.27131e+07
2.24699e+07
2.22249e+07
2.19795e+07
2.17429e+07
2.1501e+07
2.12604e+07
2.10238e+07
2.07906e+07
2.05548e+07
2.03181e+07
2.00887e+07
1.98526e+07
1.96161e+07
1.93866e+07
1.91604e+07
1.89316e+07
1.87019e+07
1.84811e+07
1.8255e+07
1.80313e+07
1.78132e+07
1.75905e+07
1.73599e+07
1.71234e+07
1.68924e+07
1.66532e+07
1.64083e+07
1.61718e+07
1.59308e+07
1.56876e+07
1.54507e+07
1.52103e+07
1.49649e+07
1.47209e+07
1.44772e+07
1.42263e+07
1.39711e+07
1.37184e+07
3.43105e+07
3.38873e+07
3.35026e+07
3.31235e+07
3.27448e+07
3.23938e+07
3.20359e+07
3.1675e+07
3.13008e+07
3.09311e+07
3.05678e+07
3.01977e+07
2.98208e+07
2.9449e+07
2.9089e+07
2.87354e+07
2.839e+07
2.80581e+07
2.77374e+07
2.74202e+07
2.71115e+07
2.681e+07
2.65183e+07
2.62164e+07
2.59238e+07
2.56396e+07
2.53602e+07
2.50776e+07
2.47977e+07
2.45281e+07
2.42638e+07
2.3999e+07
2.37349e+07
2.34821e+07
2.32193e+07
2.2961e+07
2.27132e+07
2.24698e+07
2.22247e+07
2.19795e+07
2.17426e+07
2.1501e+07
2.12605e+07
2.10238e+07
2.07906e+07
2.05547e+07
2.03182e+07
2.00884e+07
1.98526e+07
1.96162e+07
1.93867e+07
1.91604e+07
1.89315e+07
1.8702e+07
1.84811e+07
1.82548e+07
1.80301e+07
1.78106e+07
1.75872e+07
1.73561e+07
1.71197e+07
1.68886e+07
1.66496e+07
1.64057e+07
1.61702e+07
1.59301e+07
1.56876e+07
1.54507e+07
1.52103e+07
1.4965e+07
1.4721e+07
1.44773e+07
1.42263e+07
1.39713e+07
1.37187e+07
3.43105e+07
3.38873e+07
3.35027e+07
3.31235e+07
3.27448e+07
3.23938e+07
3.20353e+07
3.16719e+07
3.12972e+07
3.09285e+07
3.05649e+07
3.01942e+07
2.98175e+07
2.94473e+07
2.90883e+07
2.87353e+07
2.839e+07
2.80582e+07
2.77374e+07
2.74202e+07
2.71115e+07
2.681e+07
2.65182e+07
2.62164e+07
2.59239e+07
2.56396e+07
2.53602e+07
2.50774e+07
2.47977e+07
2.45281e+07
2.42637e+07
2.39987e+07
2.37347e+07
2.34818e+07
2.32192e+07
2.2961e+07
2.27132e+07
2.24698e+07
2.22245e+07
2.19795e+07
2.17426e+07
2.1501e+07
2.12605e+07
2.10238e+07
2.07906e+07
2.05547e+07
2.03182e+07
2.00884e+07
1.98527e+07
1.96164e+07
1.93868e+07
1.91605e+07
1.89316e+07
1.87021e+07
1.84811e+07
1.82546e+07
1.80292e+07
1.78081e+07
1.75841e+07
1.73531e+07
1.71164e+07
1.68852e+07
1.66466e+07
1.64038e+07
1.61689e+07
1.59298e+07
1.56877e+07
1.54507e+07
1.52104e+07
1.49651e+07
1.47211e+07
1.44774e+07
1.42265e+07
1.39716e+07
1.3719e+07
3.43105e+07
3.38873e+07
3.35027e+07
3.31235e+07
3.27448e+07
3.23936e+07
3.20346e+07
3.16691e+07
3.12935e+07
3.09254e+07
3.0562e+07
3.01908e+07
2.98142e+07
2.94456e+07
2.90878e+07
2.87352e+07
2.839e+07
2.80582e+07
2.77375e+07
2.74202e+07
2.71115e+07
2.68101e+07
2.65183e+07
2.62164e+07
2.59239e+07
2.56396e+07
2.53602e+07
2.50772e+07
2.47977e+07
2.45281e+07
2.42635e+07
2.39979e+07
2.37346e+07
2.34818e+07
2.32191e+07
2.29611e+07
2.27133e+07
2.24698e+07
2.22243e+07
2.19796e+07
2.17426e+07
2.15011e+07
2.12606e+07
2.10239e+07
2.07906e+07
2.05546e+07
2.03183e+07
2.00884e+07
1.98528e+07
1.96166e+07
1.93869e+07
1.91605e+07
1.89316e+07
1.87022e+07
1.84812e+07
1.82544e+07
1.8028e+07
1.7807e+07
1.75815e+07
1.73494e+07
1.71138e+07
1.68825e+07
1.66439e+07
1.64026e+07
1.61688e+07
1.59298e+07
1.56878e+07
1.54509e+07
1.52105e+07
1.49653e+07
1.47213e+07
1.44775e+07
1.42266e+07
1.3972e+07
1.37195e+07
3.43105e+07
3.38873e+07
3.35027e+07
3.31236e+07
3.27445e+07
3.23923e+07
3.20326e+07
3.16651e+07
3.1289e+07
3.09212e+07
3.05581e+07
3.01864e+07
2.98101e+07
2.9443e+07
2.90866e+07
2.87344e+07
2.83895e+07
2.80582e+07
2.77376e+07
2.74202e+07
2.7111e+07
2.68101e+07
2.65182e+07
2.62164e+07
2.59239e+07
2.56396e+07
2.53598e+07
2.50765e+07
2.47974e+07
2.45282e+07
2.4263e+07
2.39964e+07
2.3734e+07
2.34816e+07
2.32186e+07
2.29611e+07
2.27133e+07
2.24696e+07
2.22235e+07
2.19795e+07
2.17426e+07
2.15011e+07
2.12607e+07
2.1024e+07
2.07906e+07
2.05542e+07
2.03183e+07
2.00884e+07
1.98529e+07
1.96168e+07
1.93871e+07
1.91606e+07
1.89316e+07
1.87023e+07
1.84812e+07
1.82541e+07
1.80265e+07
1.78053e+07
1.75784e+07
1.73451e+07
1.71108e+07
1.68795e+07
1.66409e+07
1.64012e+07
1.61687e+07
1.59298e+07
1.56879e+07
1.5451e+07
1.52106e+07
1.49654e+07
1.47215e+07
1.44777e+07
1.42268e+07
1.39724e+07
1.37199e+07
3.43105e+07
3.38873e+07
3.35028e+07
3.31236e+07
3.27443e+07
3.23912e+07
3.20305e+07
3.16608e+07
3.12844e+07
3.09173e+07
3.0554e+07
3.01818e+07
2.98061e+07
2.94406e+07
2.90853e+07
2.87334e+07
2.8389e+07
2.80582e+07
2.77376e+07
2.74202e+07
2.71109e+07
2.68102e+07
2.65182e+07
2.62164e+07
2.5924e+07
2.56396e+07
2.53594e+07
2.50759e+07
2.47973e+07
2.45282e+07
2.42623e+07
2.39955e+07
2.37336e+07
2.3481e+07
2.32182e+07
2.29611e+07
2.27133e+07
2.24693e+07
2.22231e+07
2.19796e+07
2.17426e+07
2.15011e+07
2.12608e+07
2.1024e+07
2.07906e+07
2.05542e+07
2.03184e+07
2.00884e+07
1.9853e+07
1.96171e+07
1.93873e+07
1.91607e+07
1.89317e+07
1.87025e+07
1.84812e+07
1.82539e+07
1.80257e+07
1.78034e+07
1.75756e+07
1.73422e+07
1.71081e+07
1.68768e+07
1.6639e+07
1.64009e+07
1.61685e+07
1.59298e+07
1.5688e+07
1.54511e+07
1.52107e+07
1.49656e+07
1.47217e+07
1.44778e+07
1.4227e+07
1.39729e+07
1.37204e+07
3.43104e+07
3.38872e+07
3.35028e+07
3.31236e+07
3.27438e+07
3.23897e+07
3.2028e+07
3.16563e+07
3.12796e+07
3.0913e+07
3.05497e+07
3.01771e+07
2.98019e+07
2.9438e+07
2.9084e+07
2.87324e+07
2.83884e+07
2.80583e+07
2.77377e+07
2.74202e+07
2.71105e+07
2.68103e+07
2.65182e+07
2.62164e+07
2.5924e+07
2.56397e+07
2.53589e+07
2.50752e+07
2.47971e+07
2.45282e+07
2.42617e+07
2.39943e+07
2.37331e+07
2.34806e+07
2.32178e+07
2.29612e+07
2.27134e+07
2.24691e+07
2.22226e+07
2.19796e+07
2.17426e+07
2.15011e+07
2.12609e+07
2.10241e+07
2.07906e+07
2.05542e+07
2.03185e+07
2.00885e+07
1.98531e+07
1.96174e+07
1.93876e+07
1.91608e+07
1.89317e+07
1.87026e+07
1.84812e+07
1.82537e+07
1.80249e+07
1.7802e+07
1.75732e+07
1.73395e+07
1.71063e+07
1.68748e+07
1.66375e+07
1.6401e+07
1.61686e+07
1.59298e+07
1.56882e+07
1.54513e+07
1.52109e+07
1.49658e+07
1.4722e+07
1.44781e+07
1.42273e+07
1.39734e+07
1.3721e+07
3.431e+07
3.3887e+07
3.35029e+07
3.31237e+07
3.27432e+07
3.23882e+07
3.20253e+07
3.16513e+07
3.12747e+07
3.09089e+07
3.05453e+07
3.01721e+07
2.97978e+07
2.94356e+07
2.90825e+07
2.87312e+07
2.83878e+07
2.80583e+07
2.77378e+07
2.74202e+07
2.71105e+07
2.68103e+07
2.65182e+07
2.62164e+07
2.59241e+07
2.56397e+07
2.53583e+07
2.50747e+07
2.47971e+07
2.45283e+07
2.42609e+07
2.39936e+07
2.37327e+07
2.34798e+07
2.32174e+07
2.29613e+07
2.27134e+07
2.24688e+07
2.22224e+07
2.19796e+07
2.17426e+07
2.15011e+07
2.1261e+07
2.10243e+07
2.07906e+07
2.05542e+07
2.03186e+07
2.00885e+07
1.98532e+07
1.96177e+07
1.93878e+07
1.91609e+07
1.89318e+07
1.87028e+07
1.84812e+07
1.82535e+07
1.80247e+07
1.78004e+07
1.75713e+07
1.73381e+07
1.71048e+07
1.68733e+07
1.66374e+07
1.6401e+07
1.61686e+07
1.59299e+07
1.56884e+07
1.54514e+07
1.52111e+07
1.49661e+07
1.47223e+07
1.44783e+07
1.42277e+07
1.3974e+07
1.37217e+07
3.43092e+07
3.38864e+07
3.35029e+07
3.31237e+07
3.27423e+07
3.23862e+07
3.2022e+07
3.16462e+07
3.12695e+07
3.09042e+07
3.05405e+07
3.0167e+07
2.97935e+07
2.94329e+07
2.90809e+07
2.87299e+07
2.8387e+07
2.80583e+07
2.77378e+07
2.74202e+07
2.71103e+07
2.68104e+07
2.65182e+07
2.62163e+07
2.59242e+07
2.56397e+07
2.53577e+07
2.5074e+07
2.4797e+07
2.45283e+07
2.42602e+07
2.39925e+07
2.37322e+07
2.34793e+07
2.32169e+07
2.29613e+07
2.27135e+07
2.24685e+07
2.22221e+07
2.19797e+07
2.17426e+07
2.15011e+07
2.12612e+07
2.10244e+07
2.07905e+07
2.05542e+07
2.03187e+07
2.00886e+07
1.98533e+07
1.9618e+07
1.93881e+07
1.9161e+07
1.89319e+07
1.8703e+07
1.84812e+07
1.82535e+07
1.80244e+07
1.77995e+07
1.75699e+07
1.73368e+07
1.71041e+07
1.68727e+07
1.66374e+07
1.64011e+07
1.61686e+07
1.593e+07
1.56886e+07
1.54516e+07
1.52113e+07
1.49664e+07
1.47226e+07
1.44786e+07
1.4228e+07
1.39747e+07
1.37224e+07
3.43078e+07
3.38855e+07
3.35029e+07
3.31237e+07
3.2741e+07
3.2384e+07
3.20182e+07
3.16405e+07
3.12642e+07
3.08996e+07
3.05354e+07
3.01615e+07
2.97892e+07
2.94303e+07
2.9079e+07
2.87284e+07
2.83862e+07
2.80583e+07
2.77379e+07
2.74202e+07
2.71103e+07
2.68105e+07
2.65179e+07
2.62163e+07
2.59242e+07
2.56397e+07
2.53569e+07
2.50735e+07
2.4797e+07
2.45281e+07
2.42593e+07
2.39919e+07
2.37316e+07
2.34781e+07
2.32164e+07
2.29614e+07
2.27135e+07
2.24682e+07
2.2222e+07
2.19797e+07
2.17426e+07
2.15012e+07
2.12613e+07
2.10245e+07
2.07905e+07
2.05542e+07
2.03188e+07
2.00886e+07
1.98535e+07
1.96184e+07
1.93884e+07
1.91612e+07
1.8932e+07
1.87033e+07
1.84813e+07
1.82534e+07
1.80244e+07
1.77985e+07
1.75689e+07
1.73367e+07
1.71038e+07
1.68724e+07
1.66374e+07
1.64012e+07
1.61686e+07
1.59301e+07
1.56889e+07
1.54518e+07
1.52115e+07
1.49668e+07
1.4723e+07
1.44789e+07
1.42285e+07
1.39754e+07
1.37231e+07
3.43059e+07
3.3884e+07
3.35024e+07
3.31232e+07
3.27394e+07
3.2381e+07
3.20136e+07
3.16344e+07
3.12586e+07
3.08942e+07
3.05299e+07
3.01557e+07
2.97847e+07
2.94272e+07
2.90768e+07
2.87266e+07
2.83851e+07
2.80583e+07
2.7738e+07
2.74202e+07
2.711e+07
2.68105e+07
2.65177e+07
2.62161e+07
2.59243e+07
2.56395e+07
2.53559e+07
2.50728e+07
2.47968e+07
2.45278e+07
2.42584e+07
2.3991e+07
2.3731e+07
2.34772e+07
2.3216e+07
2.29615e+07
2.27136e+07
2.24678e+07
2.22219e+07
2.19798e+07
2.17426e+07
2.15012e+07
2.12615e+07
2.10247e+07
2.07905e+07
2.05542e+07
2.0319e+07
2.00887e+07
1.98537e+07
1.96188e+07
1.93887e+07
1.91614e+07
1.89321e+07
1.87035e+07
1.84813e+07
1.82534e+07
1.80244e+07
1.77982e+07
1.75684e+07
1.73366e+07
1.71038e+07
1.68724e+07
1.66375e+07
1.64014e+07
1.61687e+07
1.59302e+07
1.56892e+07
1.5452e+07
1.52118e+07
1.49673e+07
1.47234e+07
1.44792e+07
1.4229e+07
1.39762e+07
1.37239e+07
3.43031e+07
3.38821e+07
3.35014e+07
3.31217e+07
3.27371e+07
3.23776e+07
3.20082e+07
3.16277e+07
3.12529e+07
3.08889e+07
3.05237e+07
3.01494e+07
2.97801e+07
2.94241e+07
2.90739e+07
2.87244e+07
2.83841e+07
2.80582e+07
2.7738e+07
2.742e+07
2.711e+07
2.68105e+07
2.65164e+07
2.6216e+07
2.59244e+07
2.5639e+07
2.53544e+07
2.50722e+07
2.47967e+07
2.45269e+07
2.42573e+07
2.39904e+07
2.37301e+07
2.34753e+07
2.32156e+07
2.29616e+07
2.27136e+07
2.24673e+07
2.22219e+07
2.19799e+07
2.17424e+07
2.15012e+07
2.12617e+07
2.10248e+07
2.07905e+07
2.05543e+07
2.03192e+07
2.00887e+07
1.98538e+07
1.96192e+07
1.93891e+07
1.91615e+07
1.89323e+07
1.87038e+07
1.84813e+07
1.82534e+07
1.80245e+07
1.77976e+07
1.75684e+07
1.73366e+07
1.71038e+07
1.68723e+07
1.66375e+07
1.64016e+07
1.61687e+07
1.59304e+07
1.56896e+07
1.54522e+07
1.52122e+07
1.49678e+07
1.47238e+07
1.44796e+07
1.42296e+07
1.3977e+07
1.37248e+07
3.43022e+07
3.38821e+07
3.35014e+07
3.31217e+07
3.27361e+07
3.23765e+07
3.20055e+07
3.16233e+07
3.12485e+07
3.08858e+07
3.05199e+07
3.01453e+07
2.97773e+07
2.94232e+07
2.90733e+07
2.8724e+07
2.83841e+07
2.80582e+07
2.77381e+07
2.742e+07
2.711e+07
2.68106e+07
2.65165e+07
2.6216e+07
2.59245e+07
2.5639e+07
2.53544e+07
2.50722e+07
2.47968e+07
2.4527e+07
2.42572e+07
2.39905e+07
2.37301e+07
2.34751e+07
2.32156e+07
2.29617e+07
2.27137e+07
2.24672e+07
2.22219e+07
2.198e+07
2.17424e+07
2.15013e+07
2.12619e+07
2.1025e+07
2.07905e+07
2.05543e+07
2.03194e+07
2.00888e+07
1.9854e+07
1.96197e+07
1.93895e+07
1.91618e+07
1.89325e+07
1.87042e+07
1.84814e+07
1.82534e+07
1.80247e+07
1.77977e+07
1.75683e+07
1.73368e+07
1.7104e+07
1.68724e+07
1.66376e+07
1.64018e+07
1.61688e+07
1.59306e+07
1.569e+07
1.54525e+07
1.52125e+07
1.49684e+07
1.47244e+07
1.44801e+07
1.42303e+07
1.39779e+07
1.37258e+07
3.43005e+07
3.38814e+07
3.35011e+07
3.31214e+07
3.27345e+07
3.23742e+07
3.20018e+07
3.16188e+07
3.12437e+07
3.08816e+07
3.05157e+07
3.01412e+07
2.97741e+07
2.94214e+07
2.90725e+07
2.87234e+07
2.8384e+07
2.80583e+07
2.77382e+07
2.742e+07
2.711e+07
2.68107e+07
2.65165e+07
2.6216e+07
2.59245e+07
2.56391e+07
2.53544e+07
2.50722e+07
2.47968e+07
2.4527e+07
2.42571e+07
2.39904e+07
2.37302e+07
2.34751e+07
2.32156e+07
2.29618e+07
2.27137e+07
2.24672e+07
2.22219e+07
2.19801e+07
2.17425e+07
2.15013e+07
2.12621e+07
2.10252e+07
2.07906e+07
2.05544e+07
2.03196e+07
2.0089e+07
1.98542e+07
1.96202e+07
1.93899e+07
1.9162e+07
1.89327e+07
1.87045e+07
1.84815e+07
1.82535e+07
1.80248e+07
1.77978e+07
1.75684e+07
1.73369e+07
1.71042e+07
1.68724e+07
1.66377e+07
1.64021e+07
1.6169e+07
1.59308e+07
1.56904e+07
1.54528e+07
1.5213e+07
1.4969e+07
1.4725e+07
1.44806e+07
1.4231e+07
1.39789e+07
1.37269e+07
3.4298e+07
3.38799e+07
3.35002e+07
3.31203e+07
3.27324e+07
3.23711e+07
3.19974e+07
3.16135e+07
3.12386e+07
3.0877e+07
3.05109e+07
3.01366e+07
2.97707e+07
2.94195e+07
2.90712e+07
2.87224e+07
2.83837e+07
2.80583e+07
2.77382e+07
2.742e+07
2.711e+07
2.68108e+07
2.65165e+07
2.6216e+07
2.59246e+07
2.56391e+07
2.53543e+07
2.50722e+07
2.47969e+07
2.4527e+07
2.4257e+07
2.39904e+07
2.37302e+07
2.3475e+07
2.32155e+07
2.29619e+07
2.27138e+07
2.24672e+07
2.22219e+07
2.19802e+07
2.17425e+07
2.15014e+07
2.12623e+07
2.10254e+07
2.07906e+07
2.05545e+07
2.03198e+07
2.00891e+07
1.98545e+07
1.96206e+07
1.93903e+07
1.91622e+07
1.8933e+07
1.87049e+07
1.84816e+07
1.82535e+07
1.8025e+07
1.77979e+07
1.75685e+07
1.73371e+07
1.71044e+07
1.68726e+07
1.66379e+07
1.64024e+07
1.61692e+07
1.59311e+07
1.56909e+07
1.54532e+07
1.52134e+07
1.49696e+07
1.47257e+07
1.44812e+07
1.42319e+07
1.398e+07
1.37281e+07
3.42942e+07
3.3877e+07
3.3498e+07
3.31185e+07
3.27292e+07
3.23664e+07
3.19919e+07
3.16078e+07
3.12329e+07
3.08711e+07
3.05055e+07
3.01319e+07
2.97667e+07
2.94166e+07
2.90695e+07
2.87211e+07
2.83826e+07
2.80582e+07
2.77383e+07
2.742e+07
2.71099e+07
2.68108e+07
2.65165e+07
2.6216e+07
2.59247e+07
2.56391e+07
2.53543e+07
2.50719e+07
2.47968e+07
2.4527e+07
2.42566e+07
2.39897e+07
2.373e+07
2.3475e+07
2.32154e+07
2.2962e+07
2.27138e+07
2.24671e+07
2.22219e+07
2.19803e+07
2.17426e+07
2.15015e+07
2.12626e+07
2.10256e+07
2.07906e+07
2.05545e+07
2.03201e+07
2.00893e+07
1.98547e+07
1.96211e+07
1.93908e+07
1.91625e+07
1.89332e+07
1.87053e+07
1.84818e+07
1.82536e+07
1.80251e+07
1.7798e+07
1.75686e+07
1.73373e+07
1.71047e+07
1.68728e+07
1.66381e+07
1.64028e+07
1.61695e+07
1.59314e+07
1.56914e+07
1.54536e+07
1.52138e+07
1.49703e+07
1.47266e+07
1.4482e+07
1.4233e+07
1.39813e+07
1.37296e+07
3.4289e+07
3.38727e+07
3.34944e+07
3.3115e+07
3.2725e+07
3.23608e+07
3.19852e+07
3.16009e+07
3.12264e+07
3.08647e+07
3.04991e+07
3.01261e+07
2.97623e+07
2.94133e+07
2.90669e+07
2.8719e+07
2.83813e+07
2.80577e+07
2.77383e+07
2.74199e+07
2.71098e+07
2.68109e+07
2.65165e+07
2.62158e+07
2.59247e+07
2.56391e+07
2.53537e+07
2.50714e+07
2.47967e+07
2.45268e+07
2.4256e+07
2.39892e+07
2.37297e+07
2.34747e+07
2.32151e+07
2.29621e+07
2.27139e+07
2.24671e+07
2.22219e+07
2.19805e+07
2.17427e+07
2.15016e+07
2.12628e+07
2.10259e+07
2.07907e+07
2.05547e+07
2.03204e+07
2.00895e+07
1.9855e+07
1.96217e+07
1.93913e+07
1.91629e+07
1.89336e+07
1.87057e+07
1.8482e+07
1.82538e+07
1.80254e+07
1.77982e+07
1.75687e+07
1.73375e+07
1.7105e+07
1.6873e+07
1.66384e+07
1.64033e+07
1.61698e+07
1.59319e+07
1.56921e+07
1.5454e+07
1.5214e+07
1.49712e+07
1.47276e+07
1.4483e+07
1.42344e+07
1.39828e+07
1.37314e+07
3.42823e+07
3.38662e+07
3.34885e+07
3.31097e+07
3.27196e+07
3.23532e+07
3.19769e+07
3.15931e+07
3.12192e+07
3.08568e+07
3.04918e+07
3.01199e+07
2.97571e+07
2.94087e+07
2.90635e+07
2.87163e+07
2.83791e+07
2.80566e+07
2.77382e+07
2.74193e+07
2.71088e+07
2.68106e+07
2.65162e+07
2.62153e+07
2.59246e+07
2.56388e+07
2.53529e+07
2.50704e+07
2.47961e+07
2.45264e+07
2.42551e+07
2.39879e+07
2.3729e+07
2.34743e+07
2.32147e+07
2.29622e+07
2.2714e+07
2.24671e+07
2.22219e+07
2.19807e+07
2.17428e+07
2.15017e+07
2.12631e+07
2.10261e+07
2.07908e+07
2.05548e+07
2.03207e+07
2.00898e+07
1.98553e+07
1.96223e+07
1.93919e+07
1.91632e+07
1.89339e+07
1.87062e+07
1.84823e+07
1.8254e+07
1.80257e+07
1.77984e+07
1.75688e+07
1.73377e+07
1.71054e+07
1.68733e+07
1.66388e+07
1.64038e+07
1.61702e+07
1.59324e+07
1.5693e+07
1.54547e+07
1.52138e+07
3.42734e+07
3.38578e+07
3.348e+07
3.31011e+07
3.27124e+07
3.23445e+07
3.1968e+07
3.1584e+07
3.1211e+07
3.08482e+07
3.04828e+07
3.0112e+07
2.97513e+07
2.94034e+07
2.90584e+07
2.87125e+07
2.83765e+07
2.80548e+07
2.77369e+07
2.74181e+07
2.71077e+07
2.68095e+07
2.65142e+07
2.62144e+07
2.59244e+07
2.56374e+07
2.53509e+07
2.50692e+07
2.47952e+07
2.45248e+07
2.42536e+07
2.39867e+07
2.37278e+07
2.34726e+07
2.32142e+07
2.29623e+07
2.27141e+07
2.2467e+07
2.22219e+07
2.19808e+07
2.17428e+07
2.15018e+07
2.12634e+07
2.10264e+07
2.07909e+07
2.05549e+07
2.03211e+07
2.009e+07
1.98557e+07
1.96228e+07
1.93924e+07
1.91636e+07
1.89343e+07
1.87068e+07
1.84825e+07
1.82542e+07
1.8026e+07
1.77986e+07
1.7569e+07
1.7338e+07
1.71057e+07
1.68735e+07
1.66391e+07
1.64044e+07
1.61707e+07
1.59329e+07
1.56941e+07
1.54555e+07
3.42681e+07
3.38547e+07
3.34768e+07
3.30975e+07
3.27078e+07
3.234e+07
3.19628e+07
3.15785e+07
3.12054e+07
3.08438e+07
3.04785e+07
3.0108e+07
2.97484e+07
2.94023e+07
2.90575e+07
2.87117e+07
2.83766e+07
2.80549e+07
2.7737e+07
2.74181e+07
2.71078e+07
2.68096e+07
2.65143e+07
2.62144e+07
2.59245e+07
2.56375e+07
2.53509e+07
2.50692e+07
2.47953e+07
2.45249e+07
2.42536e+07
2.39868e+07
2.3728e+07
2.34727e+07
2.32142e+07
2.29624e+07
2.27142e+07
2.2467e+07
2.22219e+07
2.1981e+07
2.1743e+07
2.15019e+07
2.12637e+07
2.10268e+07
2.0791e+07
2.05552e+07
2.03215e+07
2.00904e+07
1.98561e+07
1.96235e+07
1.93931e+07
1.9164e+07
1.89348e+07
1.87074e+07
1.84829e+07
1.82545e+07
1.80264e+07
1.77989e+07
1.75693e+07
1.73384e+07
1.71062e+07
1.68739e+07
1.66397e+07
1.64051e+07
1.61713e+07
1.59335e+07
1.56955e+07
3.42608e+07
3.38482e+07
3.34707e+07
3.3092e+07
3.27014e+07
3.23328e+07
3.19556e+07
3.1572e+07
3.11986e+07
3.08373e+07
3.0473e+07
3.01035e+07
2.97443e+07
2.93992e+07
2.90558e+07
2.87103e+07
2.83754e+07
2.80546e+07
2.7737e+07
2.74179e+07
2.71077e+07
2.68096e+07
2.65143e+07
2.62144e+07
2.59245e+07
2.56375e+07
2.53509e+07
2.50692e+07
2.47953e+07
2.45249e+07
2.42533e+07
2.39866e+07
2.3728e+07
2.34727e+07
2.32142e+07
2.29625e+07
2.27143e+07
2.2467e+07
2.22219e+07
2.19812e+07
2.17431e+07
2.15021e+07
2.1264e+07
2.10271e+07
2.07912e+07
2.05554e+07
2.03219e+07
2.00907e+07
1.98565e+07
1.96242e+07
1.93938e+07
1.91645e+07
1.89352e+07
1.8708e+07
1.84833e+07
1.82548e+07
1.80268e+07
1.77993e+07
1.75695e+07
1.73388e+07
1.71067e+07
1.68743e+07
1.66402e+07
1.64059e+07
1.6172e+07
1.59342e+07
3.42513e+07
3.38391e+07
3.34615e+07
3.30833e+07
3.26931e+07
3.23236e+07
3.19463e+07
3.15633e+07
3.11906e+07
3.08295e+07
3.04658e+07
3.00972e+07
2.97392e+07
2.93952e+07
2.90524e+07
2.87076e+07
2.83735e+07
2.80535e+07
2.77363e+07
2.74171e+07
2.71072e+07
2.68094e+07
2.6514e+07
2.62139e+07
2.59244e+07
2.56374e+07
2.53504e+07
2.50687e+07
2.4795e+07
2.45246e+07
2.42528e+07
2.39861e+07
2.37278e+07
2.34725e+07
2.32141e+07
2.29626e+07
2.27144e+07
2.2467e+07
2.2222e+07
2.19814e+07
2.17432e+07
2.15022e+07
2.12644e+07
2.10274e+07
2.07914e+07
2.05557e+07
2.03224e+07
2.00911e+07
1.9857e+07
1.96249e+07
1.93945e+07
1.9165e+07
1.89358e+07
1.87087e+07
1.84837e+07
1.82552e+07
1.80273e+07
1.77997e+07
1.75699e+07
1.73393e+07
1.71073e+07
1.68748e+07
1.66408e+07
1.64068e+07
1.61729e+07
1.59353e+07
3.42408e+07
3.38289e+07
3.34514e+07
3.30731e+07
3.26831e+07
3.23132e+07
3.19358e+07
3.15532e+07
3.11813e+07
3.08193e+07
3.04567e+07
3.009e+07
2.97327e+07
2.93888e+07
2.90475e+07
2.87038e+07
2.837e+07
2.80507e+07
2.77347e+07
2.74155e+07
2.71052e+07
2.6808e+07
2.6513e+07
2.62127e+07
2.59231e+07
2.56364e+07
2.53493e+07
2.50672e+07
2.47937e+07
2.45237e+07
2.42517e+07
2.39848e+07
2.3727e+07
2.34721e+07
2.32137e+07
2.29627e+07
2.27145e+07
2.2467e+07
2.22221e+07
2.19816e+07
2.17434e+07
2.15024e+07
2.12647e+07
2.10279e+07
2.07916e+07
2.0556e+07
2.03229e+07
2.00916e+07
1.98575e+07
1.96256e+07
1.93953e+07
1.91656e+07
1.89364e+07
1.87094e+07
1.84843e+07
1.82557e+07
1.80279e+07
1.78002e+07
1.75704e+07
1.73399e+07
1.7108e+07
1.68755e+07
1.66416e+07
1.64077e+07
1.61739e+07
1.59365e+07
3.42295e+07
3.3818e+07
3.34405e+07
3.30621e+07
3.26724e+07
3.23023e+07
3.19246e+07
3.1542e+07
3.11705e+07
3.08084e+07
3.04456e+07
3.00797e+07
2.97249e+07
2.93809e+07
2.90396e+07
2.86977e+07
2.83655e+07
2.80464e+07
2.77303e+07
2.74123e+07
2.71024e+07
2.68045e+07
2.65091e+07
2.62104e+07
2.59212e+07
2.56332e+07
2.53461e+07
2.50651e+07
2.47917e+07
2.45209e+07
2.42494e+07
2.39833e+07
2.37253e+07
2.34702e+07
2.3213e+07
2.29627e+07
2.27145e+07
2.2467e+07
2.22222e+07
2.19819e+07
2.17436e+07
2.15026e+07
2.12651e+07
2.10282e+07
2.07919e+07
2.05563e+07
2.03234e+07
2.00921e+07
1.98581e+07
1.96264e+07
1.9396e+07
1.91663e+07
1.89371e+07
1.87102e+07
1.84849e+07
1.82562e+07
1.80286e+07
1.78008e+07
1.75709e+07
1.73406e+07
1.71088e+07
1.68762e+07
1.66424e+07
1.64088e+07
1.61749e+07
1.59376e+07
3.42182e+07
3.38089e+07
3.34309e+07
3.30524e+07
3.26635e+07
3.22943e+07
3.19166e+07
3.15341e+07
3.11633e+07
3.08029e+07
3.04404e+07
3.00748e+07
2.97212e+07
2.93791e+07
2.90378e+07
2.86962e+07
2.83653e+07
2.80465e+07
2.77301e+07
2.74121e+07
2.71026e+07
2.68046e+07
2.65091e+07
2.62104e+07
2.59213e+07
2.56333e+07
2.53461e+07
2.50652e+07
2.47919e+07
2.4521e+07
2.42495e+07
2.39834e+07
2.37255e+07
2.34703e+07
2.3213e+07
2.29629e+07
2.27147e+07
2.2467e+07
2.22223e+07
2.19822e+07
2.17438e+07
2.15029e+07
2.12656e+07
2.10287e+07
2.07922e+07
2.05568e+07
2.03241e+07
2.00927e+07
1.98588e+07
1.96274e+07
1.93969e+07
1.9167e+07
1.89379e+07
1.87111e+07
1.84856e+07
1.82569e+07
1.80294e+07
1.78015e+07
1.75716e+07
1.73415e+07
1.71097e+07
1.6877e+07
1.66435e+07
1.641e+07
1.61761e+07
1.5939e+07
3.42063e+07
3.37973e+07
3.34193e+07
3.30408e+07
3.26522e+07
3.22827e+07
3.19053e+07
3.15244e+07
3.11544e+07
3.0794e+07
3.04327e+07
3.00686e+07
2.97157e+07
2.93741e+07
2.90342e+07
2.86933e+07
2.83629e+07
2.80448e+07
2.77288e+07
2.74107e+07
2.71015e+07
2.6804e+07
2.65087e+07
2.62097e+07
2.59207e+07
2.56331e+07
2.53458e+07
2.50647e+07
2.47915e+07
2.45207e+07
2.4249e+07
2.39831e+07
2.37255e+07
2.34703e+07
2.3213e+07
2.2963e+07
2.27148e+07
2.24671e+07
2.22224e+07
2.19825e+07
2.17441e+07
2.15032e+07
2.12661e+07
2.10292e+07
2.07926e+07
2.05572e+07
2.03247e+07
2.00933e+07
1.98595e+07
1.96283e+07
1.93979e+07
1.91678e+07
1.89387e+07
1.87121e+07
1.84863e+07
1.82577e+07
1.80302e+07
1.78023e+07
1.75724e+07
1.73424e+07
1.71108e+07
1.68781e+07
1.66446e+07
1.64114e+07
1.61775e+07
1.59406e+07
3.41935e+07
3.37849e+07
3.3407e+07
3.30284e+07
3.26401e+07
3.22704e+07
3.18927e+07
3.15119e+07
3.11431e+07
3.07829e+07
3.04213e+07
3.00591e+07
2.97083e+07
2.93669e+07
2.90268e+07
2.86879e+07
2.8359e+07
2.80408e+07
2.77245e+07
2.74077e+07
2.70993e+07
2.68012e+07
2.65055e+07
2.62077e+07
2.59191e+07
2.56308e+07
2.53434e+07
2.50632e+07
2.47901e+07
2.45187e+07
2.42474e+07
2.39822e+07
2.37246e+07
2.34693e+07
2.32128e+07
2.29631e+07
2.27149e+07
2.24671e+07
2.22226e+07
2.19828e+07
2.17443e+07
2.15035e+07
2.12666e+07
2.10297e+07
2.07929e+07
2.05577e+07
2.03254e+07
2.00939e+07
1.98602e+07
1.96293e+07
1.93989e+07
1.91686e+07
1.89397e+07
1.87131e+07
1.84872e+07
1.82585e+07
1.80312e+07
1.78032e+07
1.75733e+07
1.73435e+07
1.71119e+07
1.68792e+07
1.66459e+07
1.6413e+07
1.61791e+07
1.59423e+07
3.41806e+07
3.37743e+07
3.33968e+07
3.30184e+07
3.26313e+07
3.22632e+07
3.18865e+07
3.15056e+07
3.11375e+07
3.07794e+07
3.04185e+07
3.00561e+07
2.97065e+07
2.93671e+07
2.9027e+07
2.86878e+07
2.83592e+07
2.8041e+07
2.77247e+07
2.74078e+07
2.70995e+07
2.68014e+07
2.65055e+07
2.62078e+07
2.59193e+07
2.56309e+07
2.53435e+07
2.50633e+07
2.47903e+07
2.45189e+07
2.42475e+07
2.39823e+07
2.37247e+07
2.34694e+07
2.32128e+07
2.29633e+07
2.27151e+07
2.24672e+07
2.22228e+07
2.19832e+07
2.17446e+07
2.15039e+07
2.12671e+07
2.10303e+07
2.07934e+07
2.05583e+07
2.03263e+07
2.00947e+07
1.98611e+07
1.96304e+07
1.94e+07
1.91696e+07
1.89407e+07
1.87143e+07
1.84882e+07
1.82595e+07
1.80323e+07
1.78043e+07
1.75743e+07
1.73448e+07
1.71133e+07
1.68805e+07