/*--------------------------------*- C++ -*----------------------------------*\
| =========                 |                                                 |
| \\      /  F ield         | OpenFOAM: The Open Source CFD Toolbox           |
|  \\    /   O peration     | Version:  v2012                                 |
|   \\  /    A nd           | Website:  www.openfoam.com                      |
|    \\/     M anipulation  |                                                 |
\*---------------------------------------------------------------------------*/
FoamFile
{
    version     2.0;
    format      ascii;
    class       volScalarField;
    location    "1e-06";
    object      pPrime2Mean;
}
// * * * * * * * * * * * * * * * * * * * * * * * * * * * * * * * * * * * * * //

dimensions      [2 -2 -4 0 0 0 0];


internalField   nonuniform List<scalar> 
10193
(
7.38178e+15
7.19027e+15
7.01655e+15
6.84868e+15
6.68493e+15
6.53184e+15
6.38034e+15
6.23364e+15
6.07995e+15
5.92642e+15
5.77805e+15
5.63031e+15
5.48157e+15
5.33309e+15
5.19151e+15
5.05507e+15
4.92523e+15
4.80173e+15
4.68373e+15
4.56905e+15
4.45851e+15
4.35171e+15
4.24885e+15
4.14516e+15
4.04517e+15
3.94899e+15
3.85571e+15
3.76332e+15
3.67178e+15
3.58435e+15
3.50042e+15
3.41789e+15
3.33519e+15
3.25675e+15
3.17714e+15
3.09925e+15
3.02528e+15
2.95369e+15
2.88321e+15
2.8127e+15
2.74602e+15
2.6769e+15
2.61019e+15
2.54537e+15
2.48212e+15
2.41963e+15
2.3573e+15
2.29844e+15
2.23595e+15
2.17594e+15
2.11834e+15
2.06211e+15
2.00624e+15
1.951e+15
1.89803e+15
1.84514e+15
1.79502e+15
1.74751e+15
1.69763e+15
1.64666e+15
1.59509e+15
1.54503e+15
1.49482e+15
1.44341e+15
1.39257e+15
1.34347e+15
1.29494e+15
1.24915e+15
1.20185e+15
1.15549e+15
1.11104e+15
1.06682e+15
1.0225e+15
9.78289e+14
9.35362e+14
7.38178e+15
7.19027e+15
7.01655e+15
6.84868e+15
6.68493e+15
6.53179e+15
6.38029e+15
6.23315e+15
6.07902e+15
5.92537e+15
5.77723e+15
5.62959e+15
5.48065e+15
5.33243e+15
5.19119e+15
5.05507e+15
4.92523e+15
4.80173e+15
4.68373e+15
4.56905e+15
4.45851e+15
4.35171e+15
4.24885e+15
4.14516e+15
4.04509e+15
3.94899e+15
3.85571e+15
3.76318e+15
3.67164e+15
3.58435e+15
3.50042e+15
3.41769e+15
3.33512e+15
3.25675e+15
3.17706e+15
3.09912e+15
3.02528e+15
2.95369e+15
2.88304e+15
2.81258e+15
2.74567e+15
2.67689e+15
2.61019e+15
2.54537e+15
2.48212e+15
2.41948e+15
2.35719e+15
2.29815e+15
2.23595e+15
2.17593e+15
2.11833e+15
2.06211e+15
2.00624e+15
1.951e+15
1.89803e+15
1.84514e+15
1.79468e+15
1.74678e+15
1.69686e+15
1.64576e+15
1.5943e+15
1.54434e+15
1.49389e+15
1.44246e+15
1.39226e+15
1.34307e+15
1.29448e+15
1.24852e+15
1.2016e+15
1.15549e+15
1.11084e+15
1.06667e+15
1.02233e+15
9.78289e+14
9.35362e+14
7.38179e+15
7.19028e+15
7.01655e+15
6.84868e+15
6.68493e+15
6.53179e+15
6.3802e+15
6.23242e+15
6.07797e+15
5.92432e+15
5.7763e+15
5.62868e+15
5.47962e+15
5.33174e+15
5.19082e+15
5.05507e+15
4.92523e+15
4.80173e+15
4.68373e+15
4.56905e+15
4.45851e+15
4.35171e+15
4.24885e+15
4.14516e+15
4.0451e+15
3.94899e+15
3.85571e+15
3.76304e+15
3.67154e+15
3.58435e+15
3.50038e+15
3.41749e+15
3.33505e+15
3.25675e+15
3.17699e+15
3.09911e+15
3.02528e+15
2.95369e+15
2.88289e+15
2.81248e+15
2.74551e+15
2.67688e+15
2.61019e+15
2.54537e+15
2.48212e+15
2.41935e+15
2.3571e+15
2.29779e+15
2.23595e+15
2.17594e+15
2.11834e+15
2.06211e+15
2.00624e+15
1.95101e+15
1.89803e+15
1.84514e+15
1.79439e+15
1.74602e+15
1.69603e+15
1.64487e+15
1.59347e+15
1.54353e+15
1.49292e+15
1.44155e+15
1.39183e+15
1.34264e+15
1.29411e+15
1.24816e+15
1.20138e+15
1.15548e+15
1.11071e+15
1.06658e+15
1.0223e+15
9.78292e+14
9.35373e+14
7.3818e+15
7.19028e+15
7.01656e+15
6.84869e+15
6.68493e+15
6.53179e+15
6.38011e+15
6.23153e+15
6.07686e+15
5.92339e+15
5.77536e+15
5.62769e+15
5.47858e+15
5.3311e+15
5.19048e+15
5.05507e+15
4.92523e+15
4.80173e+15
4.68373e+15
4.56905e+15
4.45851e+15
4.35171e+15
4.24885e+15
4.14516e+15
4.0451e+15
3.94899e+15
3.85571e+15
3.76295e+15
3.67151e+15
3.58436e+15
3.50036e+15
3.41739e+15
3.33501e+15
3.25664e+15
3.17693e+15
3.09911e+15
3.02528e+15
2.95369e+15
2.8828e+15
2.81242e+15
2.74514e+15
2.67688e+15
2.6102e+15
2.54537e+15
2.48212e+15
2.41928e+15
2.35704e+15
2.29727e+15
2.23595e+15
2.17596e+15
2.11834e+15
2.06211e+15
2.00624e+15
1.95101e+15
1.89803e+15
1.84514e+15
1.79418e+15
1.74518e+15
1.69522e+15
1.64413e+15
1.59264e+15
1.5427e+15
1.49204e+15
1.44074e+15
1.39132e+15
1.34227e+15
1.29388e+15
1.24766e+15
1.20127e+15
1.15549e+15
1.11061e+15
1.06658e+15
1.02231e+15
9.78302e+14
9.35391e+14
7.3818e+15
7.19029e+15
7.01656e+15
6.84869e+15
6.68493e+15
6.53179e+15
6.38002e+15
6.23066e+15
6.07569e+15
5.92241e+15
5.77442e+15
5.62667e+15
5.4775e+15
5.33047e+15
5.19021e+15
5.05507e+15
4.92523e+15
4.80173e+15
4.68374e+15
4.56905e+15
4.45851e+15
4.35171e+15
4.24885e+15
4.14516e+15
4.0451e+15
3.94899e+15
3.85571e+15
3.76287e+15
3.67149e+15
3.58436e+15
3.50034e+15
3.41724e+15
3.33498e+15
3.25661e+15
3.17689e+15
3.09912e+15
3.02529e+15
2.95369e+15
2.88271e+15
2.81237e+15
2.74494e+15
2.67688e+15
2.61021e+15
2.54537e+15
2.48212e+15
2.41923e+15
2.35699e+15
2.29697e+15
2.23595e+15
2.17598e+15
2.11835e+15
2.06212e+15
2.00624e+15
1.95102e+15
1.89804e+15
1.84513e+15
1.79392e+15
1.74455e+15
1.69444e+15
1.64329e+15
1.59186e+15
1.54189e+15
1.49117e+15
1.44003e+15
1.39089e+15
1.34194e+15
1.29368e+15
1.2474e+15
1.20124e+15
1.1555e+15
1.11062e+15
1.06658e+15
1.02232e+15
9.78317e+14
9.35418e+14
7.38181e+15
7.19029e+15
7.01657e+15
6.8487e+15
6.68493e+15
6.53176e+15
6.37978e+15
6.22952e+15
6.07432e+15
5.92123e+15
5.77327e+15
5.6254e+15
5.47625e+15
5.32971e+15
5.18982e+15
5.05499e+15
4.92523e+15
4.80173e+15
4.68375e+15
4.56905e+15
4.45851e+15
4.35172e+15
4.24885e+15
4.14516e+15
4.04511e+15
3.94899e+15
3.85566e+15
3.76273e+15
3.67145e+15
3.58436e+15
3.50025e+15
3.41702e+15
3.33489e+15
3.25649e+15
3.1768e+15
3.09912e+15
3.02529e+15
2.95365e+15
2.88256e+15
2.81229e+15
2.74481e+15
2.67688e+15
2.61022e+15
2.54538e+15
2.48211e+15
2.41913e+15
2.35692e+15
2.29679e+15
2.23595e+15
2.176e+15
2.11836e+15
2.06212e+15
2.00624e+15
1.95103e+15
1.89804e+15
1.8451e+15
1.7936e+15
1.74386e+15
1.6936e+15
1.64237e+15
1.59099e+15
1.54098e+15
1.49024e+15
1.43929e+15
1.39041e+15
1.34161e+15
1.29351e+15
1.2473e+15
1.20125e+15
1.15551e+15
1.11063e+15
1.06659e+15
1.02233e+15
9.78341e+14
9.35453e+14
7.38181e+15
7.1903e+15
7.01657e+15
6.8487e+15
6.68493e+15
6.53176e+15
6.37953e+15
6.22826e+15
6.07292e+15
5.92017e+15
5.77211e+15
5.62408e+15
5.475e+15
5.329e+15
5.18945e+15
5.05492e+15
4.92523e+15
4.80174e+15
4.68376e+15
4.56905e+15
4.45851e+15
4.35172e+15
4.24885e+15
4.14516e+15
4.04511e+15
3.94899e+15
3.85562e+15
3.76263e+15
3.67145e+15
3.58437e+15
3.50017e+15
3.41691e+15
3.33481e+15
3.25628e+15
3.17674e+15
3.09912e+15
3.0253e+15
2.95361e+15
2.88249e+15
2.81225e+15
2.74457e+15
2.67688e+15
2.61023e+15
2.54539e+15
2.48211e+15
2.4191e+15
2.3569e+15
2.29653e+15
2.23596e+15
2.17603e+15
2.11837e+15
2.06213e+15
2.00624e+15
1.95105e+15
1.89804e+15
1.84507e+15
1.79337e+15
1.74311e+15
1.69282e+15
1.64163e+15
1.59013e+15
1.54011e+15
1.48944e+15
1.43866e+15
1.38993e+15
1.3414e+15
1.29351e+15
1.24717e+15
1.20125e+15
1.15553e+15
1.11065e+15
1.0666e+15
1.02235e+15
9.78373e+14
9.35496e+14
7.38181e+15
7.1903e+15
7.01657e+15
6.84871e+15
6.68493e+15
6.53175e+15
6.37924e+15
6.22702e+15
6.07147e+15
5.91903e+15
5.77094e+15
5.62273e+15
5.47373e+15
5.32829e+15
5.18915e+15
5.05485e+15
4.92523e+15
4.80174e+15
4.68377e+15
4.56906e+15
4.45851e+15
4.35173e+15
4.24885e+15
4.14517e+15
4.04512e+15
3.94899e+15
3.8556e+15
3.76255e+15
3.67144e+15
3.58437e+15
3.5001e+15
3.41674e+15
3.33473e+15
3.25619e+15
3.17669e+15
3.09913e+15
3.0253e+15
2.95359e+15
2.88242e+15
2.81222e+15
2.74447e+15
2.67688e+15
2.61025e+15
2.5454e+15
2.48211e+15
2.41907e+15
2.35689e+15
2.29645e+15
2.23597e+15
2.17607e+15
2.11839e+15
2.06214e+15
2.00624e+15
1.95106e+15
1.89805e+15
1.84503e+15
1.79309e+15
1.74254e+15
1.6921e+15
1.64084e+15
1.58936e+15
1.53932e+15
1.4887e+15
1.43814e+15
1.3896e+15
1.34126e+15
1.29351e+15
1.24717e+15
1.20126e+15
1.15555e+15
1.11067e+15
1.06662e+15
1.02237e+15
9.78414e+14
9.35549e+14
7.38182e+15
7.19031e+15
7.01658e+15
6.84872e+15
6.68493e+15
6.53175e+15
6.37894e+15
6.22574e+15
6.07e+15
5.91793e+15
5.76978e+15
5.62136e+15
5.47247e+15
5.32764e+15
5.1889e+15
5.05481e+15
4.92523e+15
4.80174e+15
4.68379e+15
4.56906e+15
4.45852e+15
4.35174e+15
4.24886e+15
4.14517e+15
4.04513e+15
3.949e+15
3.8556e+15
3.76251e+15
3.67145e+15
3.58438e+15
3.50005e+15
3.41663e+15
3.33467e+15
3.25609e+15
3.17666e+15
3.09913e+15
3.02531e+15
2.95359e+15
2.88239e+15
2.81222e+15
2.74448e+15
2.67689e+15
2.61027e+15
2.54541e+15
2.48211e+15
2.41907e+15
2.35689e+15
2.29646e+15
2.23598e+15
2.17611e+15
2.11842e+15
2.06216e+15
2.00625e+15
1.95108e+15
1.89805e+15
1.84499e+15
1.79287e+15
1.742e+15
1.69145e+15
1.64019e+15
1.58864e+15
1.53861e+15
1.48811e+15
1.43776e+15
1.38935e+15
1.34123e+15
1.29352e+15
1.24718e+15
1.20128e+15
1.15557e+15
1.11069e+15
1.06664e+15
1.02239e+15
9.78464e+14
9.35611e+14
7.38182e+15
7.19031e+15
7.01659e+15
6.84872e+15
6.68493e+15
6.53166e+15
6.37861e+15
6.22458e+15
6.06847e+15
5.91668e+15
5.76861e+15
5.62002e+15
5.47118e+15
5.32696e+15
5.18873e+15
5.05478e+15
4.92523e+15
4.80174e+15
4.68381e+15
4.56906e+15
4.45852e+15
4.35175e+15
4.24886e+15
4.14517e+15
4.04514e+15
3.949e+15
3.8556e+15
3.76246e+15
3.67145e+15
3.58438e+15
3.50001e+15
3.4164e+15
3.33462e+15
3.25609e+15
3.17663e+15
3.09914e+15
3.02532e+15
2.95359e+15
2.88234e+15
2.81221e+15
2.74449e+15
2.67689e+15
2.61029e+15
2.54542e+15
2.4821e+15
2.41907e+15
2.35689e+15
2.29647e+15
2.236e+15
2.17616e+15
2.11846e+15
2.06218e+15
2.00626e+15
1.95111e+15
1.89806e+15
1.84494e+15
1.79261e+15
1.74175e+15
1.69088e+15
1.63941e+15
1.58809e+15
1.53806e+15
1.48757e+15
1.43752e+15
1.38934e+15
1.34123e+15
1.29353e+15
1.24721e+15
1.2013e+15
1.1556e+15
1.11072e+15
1.06667e+15
1.02242e+15
9.78523e+14
9.35683e+14
7.38183e+15
7.19032e+15
7.01661e+15
6.84873e+15
6.68484e+15
6.5311e+15
6.37779e+15
6.22296e+15
6.06662e+15
5.91497e+15
5.76703e+15
5.61829e+15
5.46959e+15
5.32596e+15
5.18826e+15
5.05447e+15
4.92504e+15
4.80174e+15
4.68383e+15
4.56906e+15
4.45835e+15
4.35176e+15
4.24886e+15
4.14517e+15
4.04516e+15
3.949e+15
3.8555e+15
3.76222e+15
3.67136e+15
3.58439e+15
3.49983e+15
3.41597e+15
3.33444e+15
3.25605e+15
3.1765e+15
3.09915e+15
3.02533e+15
2.95352e+15
2.88213e+15
2.81219e+15
2.7445e+15
2.6769e+15
2.61032e+15
2.54544e+15
2.4821e+15
2.41898e+15
2.3569e+15
2.29649e+15
2.23603e+15
2.17622e+15
2.1185e+15
2.0622e+15
2.00627e+15
1.95114e+15
1.89807e+15
1.84486e+15
1.79228e+15
1.7414e+15
1.69022e+15
1.63852e+15
1.58746e+15
1.53744e+15
1.48696e+15
1.43725e+15
1.38932e+15
1.34123e+15
1.29355e+15
1.24724e+15
1.20132e+15
1.15564e+15
1.11076e+15
1.0667e+15
1.02246e+15
9.78595e+14
9.35764e+14
7.38183e+15
7.19032e+15
7.01663e+15
6.84875e+15
6.68473e+15
6.53065e+15
6.37689e+15
6.22115e+15
6.06473e+15
5.91336e+15
5.7654e+15
5.61647e+15
5.46802e+15
5.32503e+15
5.18776e+15
5.05412e+15
4.92487e+15
4.80175e+15
4.68385e+15
4.56906e+15
4.45832e+15
4.35177e+15
4.24886e+15
4.14517e+15
4.04517e+15
3.949e+15
3.85536e+15
3.76203e+15
3.67131e+15
3.58439e+15
3.49964e+15
3.41568e+15
3.33428e+15
3.25587e+15
3.17638e+15
3.09916e+15
3.02534e+15
2.95345e+15
2.88202e+15
2.81219e+15
2.74451e+15
2.67691e+15
2.61035e+15
2.54547e+15
2.4821e+15
2.41898e+15
2.35691e+15
2.2965e+15
2.23606e+15
2.17628e+15
2.11855e+15
2.06222e+15
2.00629e+15
1.95117e+15
1.89808e+15
1.84481e+15
1.79209e+15
1.74097e+15
1.68963e+15
1.6379e+15
1.58689e+15
1.53689e+15
1.48658e+15
1.43719e+15
1.3893e+15
1.34124e+15
1.29358e+15
1.24727e+15
1.20136e+15
1.15568e+15
1.11081e+15
1.06673e+15
1.02251e+15
9.78677e+14
9.35855e+14
7.38178e+15
7.19027e+15
7.01666e+15
6.84876e+15
6.68453e+15
6.53001e+15
6.37583e+15
6.21931e+15
6.06276e+15
5.9116e+15
5.76369e+15
5.6146e+15
5.4664e+15
5.32404e+15
5.18725e+15
5.05374e+15
4.92464e+15
4.80175e+15
4.68387e+15
4.56907e+15
4.45821e+15
4.35178e+15
4.24887e+15
4.14517e+15
4.04519e+15
3.949e+15
3.85522e+15
3.76183e+15
3.67126e+15
3.5844e+15
3.49943e+15
3.41532e+15
3.33413e+15
3.25577e+15
3.17625e+15
3.09917e+15
3.02535e+15
2.95338e+15
2.88188e+15
2.8122e+15
2.74452e+15
2.67692e+15
2.61038e+15
2.54549e+15
2.4821e+15
2.41898e+15
2.35692e+15
2.29652e+15
2.23609e+15
2.17635e+15
2.11861e+15
2.06225e+15
2.00631e+15
1.95121e+15
1.89809e+15
1.84476e+15
1.79191e+15
1.74067e+15
1.68912e+15
1.63733e+15
1.5865e+15
1.5365e+15
1.48631e+15
1.43721e+15
1.38931e+15
1.34126e+15
1.29361e+15
1.24731e+15
1.20139e+15
1.15573e+15
1.11086e+15
1.06677e+15
1.02256e+15
9.78767e+14
9.35956e+14
7.38158e+15
7.19019e+15
7.01669e+15
6.84878e+15
6.68426e+15
6.5294e+15
6.37465e+15
6.21726e+15
6.06075e+15
5.90991e+15
5.7619e+15
5.61264e+15
5.46479e+15
5.3231e+15
5.18668e+15
5.05331e+15
4.92443e+15
4.80176e+15
4.6839e+15
4.56907e+15
4.45822e+15
4.3518e+15
4.24888e+15
4.14517e+15
4.04521e+15
3.94901e+15
3.85503e+15
3.76167e+15
3.67125e+15
3.5844e+15
3.49922e+15
3.41511e+15
3.33398e+15
3.25553e+15
3.17614e+15
3.09919e+15
3.02536e+15
2.9533e+15
2.88184e+15
2.8122e+15
2.74452e+15
2.67693e+15
2.61042e+15
2.54552e+15
2.48211e+15
2.41899e+15
2.35694e+15
2.29654e+15
2.23612e+15
2.17643e+15
2.11867e+15
2.06229e+15
2.00633e+15
1.95126e+15
1.8981e+15
1.84474e+15
1.79185e+15
1.74032e+15
1.68872e+15
1.63703e+15
1.58619e+15
1.5362e+15
1.48629e+15
1.43722e+15
1.38932e+15
1.34128e+15
1.29365e+15
1.24735e+15
1.20144e+15
1.15578e+15
1.11092e+15
1.06682e+15
1.02262e+15
9.78868e+14
9.36067e+14
7.38119e+15
7.18991e+15
7.0167e+15
6.8488e+15
6.68387e+15
6.52853e+15
6.37324e+15
6.21515e+15
6.05863e+15
5.90799e+15
5.75999e+15
5.61061e+15
5.46312e+15
5.32206e+15
5.18607e+15
5.05282e+15
4.92413e+15
4.80176e+15
4.68393e+15
4.56907e+15
4.45814e+15
4.35182e+15
4.24888e+15
4.14516e+15
4.04523e+15
3.94901e+15
3.85484e+15
3.76146e+15
3.67121e+15
3.58439e+15
3.49898e+15
3.4148e+15
3.33382e+15
3.25538e+15
3.176e+15
3.0992e+15
3.02537e+15
2.95324e+15
2.88175e+15
2.81221e+15
2.74453e+15
2.67694e+15
2.61046e+15
2.54556e+15
2.48211e+15
2.419e+15
2.35697e+15
2.29656e+15
2.23616e+15
2.17651e+15
2.11874e+15
2.06233e+15
2.00637e+15
1.95131e+15
1.89812e+15
1.84473e+15
1.79179e+15
1.74015e+15
1.68842e+15
1.63678e+15
1.58605e+15
1.53608e+15
1.4863e+15
1.43725e+15
1.38934e+15
1.34131e+15
1.2937e+15
1.24739e+15
1.20149e+15
1.15585e+15
1.11099e+15
1.06687e+15
1.0227e+15
9.78979e+14
9.36189e+14
7.38058e+15
7.18955e+15
7.01669e+15
6.84877e+15
6.68335e+15
6.5276e+15
6.37163e+15
6.21278e+15
6.05646e+15
5.90611e+15
5.75794e+15
5.60845e+15
5.46145e+15
5.32104e+15
5.18534e+15
5.05225e+15
4.92385e+15
4.80176e+15
4.68396e+15
4.56907e+15
4.45814e+15
4.35183e+15
4.24879e+15
4.14515e+15
4.04525e+15
3.94899e+15
3.85457e+15
3.7613e+15
3.67119e+15
3.58432e+15
3.49873e+15
3.41462e+15
3.33365e+15
3.25505e+15
3.17588e+15
3.09922e+15
3.02538e+15
2.95314e+15
2.88175e+15
2.81222e+15
2.74454e+15
2.67696e+15
2.6105e+15
2.5456e+15
2.48211e+15
2.41901e+15
2.357e+15
2.29658e+15
2.23621e+15
2.1766e+15
2.11882e+15
2.06237e+15
2.0064e+15
1.95137e+15
1.89813e+15
1.84473e+15
1.79179e+15
1.73994e+15
1.68822e+15
1.63676e+15
1.58598e+15
1.53603e+15
1.48632e+15
1.43727e+15
1.38935e+15
1.34134e+15
1.29375e+15
1.24744e+15
1.20155e+15
1.15593e+15
1.11106e+15
1.06694e+15
1.02278e+15
9.791e+14
9.36321e+14
7.37969e+15
7.18888e+15
7.0165e+15
6.84857e+15
6.68263e+15
6.52631e+15
6.3697e+15
6.21028e+15
6.05418e+15
5.90393e+15
5.7557e+15
5.60619e+15
5.4597e+15
5.31985e+15
5.18449e+15
5.05158e+15
4.92345e+15
4.80174e+15
4.68399e+15
4.56907e+15
4.45807e+15
4.35184e+15
4.24872e+15
4.1451e+15
4.04527e+15
3.94893e+15
3.85425e+15
3.76107e+15
3.67114e+15
3.58422e+15
3.49844e+15
3.41434e+15
3.33343e+15
3.25478e+15
3.17574e+15
3.09925e+15
3.0254e+15
2.95305e+15
2.88172e+15
2.81223e+15
2.74454e+15
2.67697e+15
2.61055e+15
2.54564e+15
2.48212e+15
2.41902e+15
2.35704e+15
2.29662e+15
2.23626e+15
2.1767e+15
2.11891e+15
2.06242e+15
2.00645e+15
1.95143e+15
1.89816e+15
1.84473e+15
1.79179e+15
1.73988e+15
1.68813e+15
1.63676e+15
1.58598e+15
1.53604e+15
1.48634e+15
1.4373e+15
1.38938e+15
1.34137e+15
1.29382e+15
1.2475e+15
1.20161e+15
1.15603e+15
1.11114e+15
1.06701e+15
1.02288e+15
9.79233e+14
9.36464e+14
7.37844e+15
7.18801e+15
7.01603e+15
6.84793e+15
6.68167e+15
6.52489e+15
6.36743e+15
6.20754e+15
6.05181e+15
5.90175e+15
5.75322e+15
5.60371e+15
5.45793e+15
5.31863e+15
5.18341e+15
5.05078e+15
4.92307e+15
4.80169e+15
4.684e+15
4.56902e+15
4.45807e+15
4.35185e+15
4.24831e+15
4.14505e+15
4.0453e+15
3.94876e+15
3.85378e+15
3.7609e+15
3.67111e+15
3.58396e+15
3.4981e+15
3.41419e+15
3.33316e+15
3.25422e+15
3.17564e+15
3.09927e+15
3.02541e+15
2.95291e+15
2.88173e+15
2.81225e+15
2.74449e+15
2.67699e+15
2.6106e+15
2.54568e+15
2.48212e+15
2.41904e+15
2.35708e+15
2.29664e+15
2.23631e+15
2.17681e+15
2.119e+15
2.06247e+15
2.0065e+15
1.9515e+15
1.89818e+15
1.84474e+15
1.79181e+15
1.73978e+15
1.68813e+15
1.63678e+15
1.58599e+15
1.53604e+15
1.48636e+15
1.43735e+15
1.3894e+15
1.34142e+15
1.29389e+15
1.24756e+15
1.20169e+15
1.15613e+15
1.11123e+15
1.06709e+15
1.02299e+15
9.79378e+14
9.36619e+14
7.378e+15
7.18802e+15
7.01603e+15
6.84791e+15
6.68122e+15
6.5244e+15
6.36624e+15
6.2057e+15
6.05003e+15
5.90048e+15
5.75171e+15
5.6021e+15
5.45683e+15
5.31826e+15
5.18317e+15
5.05062e+15
4.92308e+15
4.80171e+15
4.68402e+15
4.56903e+15
4.45808e+15
4.35186e+15
4.24832e+15
4.14506e+15
4.04532e+15
3.94877e+15
3.85379e+15
3.76091e+15
3.67112e+15
3.58396e+15
3.49809e+15
3.4142e+15
3.33316e+15
3.25417e+15
3.17564e+15
3.09929e+15
3.02542e+15
2.95291e+15
2.88173e+15
2.81227e+15
2.74451e+15
2.677e+15
2.61066e+15
2.54573e+15
2.48214e+15
2.41906e+15
2.35712e+15
2.29668e+15
2.23637e+15
2.17692e+15
2.11909e+15
2.06254e+15
2.00656e+15
1.95157e+15
1.89821e+15
1.84476e+15
1.79184e+15
1.7398e+15
1.68814e+15
1.63682e+15
1.58603e+15
1.53607e+15
1.48641e+15
1.43741e+15
1.38944e+15
1.34147e+15
1.29397e+15
1.24762e+15
1.20178e+15
1.15625e+15
1.11134e+15
1.06718e+15
1.0231e+15
9.79535e+14
9.36787e+14
7.37723e+15
7.18769e+15
7.01591e+15
6.84775e+15
6.68053e+15
6.52342e+15
6.36471e+15
6.20383e+15
6.04807e+15
5.89877e+15
5.75001e+15
5.60051e+15
5.45559e+15
5.31759e+15
5.18287e+15
5.05042e+15
4.92304e+15
4.80173e+15
4.68405e+15
4.56904e+15
4.45809e+15
4.35187e+15
4.24834e+15
4.14506e+15
4.04534e+15
3.94877e+15
3.85379e+15
3.76092e+15
3.67113e+15
3.58396e+15
3.49807e+15
3.4142e+15
3.33316e+15
3.25418e+15
3.17565e+15
3.09932e+15
3.02544e+15
2.95291e+15
2.88174e+15
2.8123e+15
2.74453e+15
2.67703e+15
2.61072e+15
2.54578e+15
2.48215e+15
2.41909e+15
2.35718e+15
2.29672e+15
2.23644e+15
2.17704e+15
2.1192e+15
2.06261e+15
2.00662e+15
1.95166e+15
1.89825e+15
1.84478e+15
1.79187e+15
1.73983e+15
1.68817e+15
1.63686e+15
1.58608e+15
1.5361e+15
1.48646e+15
1.43747e+15
1.38949e+15
1.34154e+15
1.29406e+15
1.24769e+15
1.20187e+15
1.15637e+15
1.11145e+15
1.06729e+15
1.02324e+15
9.7971e+14
9.36974e+14
7.37605e+15
7.18705e+15
7.0155e+15
6.8473e+15
6.67961e+15
6.5221e+15
6.36284e+15
6.20167e+15
6.04598e+15
5.89688e+15
5.7481e+15
5.59871e+15
5.45428e+15
5.31684e+15
5.18238e+15
5.05005e+15
4.92292e+15
4.80173e+15
4.68408e+15
4.56905e+15
4.4581e+15
4.35188e+15
4.24835e+15
4.14507e+15
4.04536e+15
3.94878e+15
3.8538e+15
3.76093e+15
3.67114e+15
3.58397e+15
3.49803e+15
3.4142e+15
3.33315e+15
3.25418e+15
3.17565e+15
3.09935e+15
3.02545e+15
2.95291e+15
2.88174e+15
2.81233e+15
2.74455e+15
2.67706e+15
2.61078e+15
2.54584e+15
2.48217e+15
2.41912e+15
2.35724e+15
2.29678e+15
2.23651e+15
2.17716e+15
2.11931e+15
2.06268e+15
2.0067e+15
1.95175e+15
1.89829e+15
1.84481e+15
1.79191e+15
1.73987e+15
1.68821e+15
1.63691e+15
1.58614e+15
1.53615e+15
1.48651e+15
1.43755e+15
1.38955e+15
1.34161e+15
1.29417e+15
1.24777e+15
1.20197e+15
1.15651e+15
1.11159e+15
1.06741e+15
1.02338e+15
9.79905e+14
9.37186e+14
7.37431e+15
7.18573e+15
7.01454e+15
6.84647e+15
6.67827e+15
6.52013e+15
6.36051e+15
6.19933e+15
6.04362e+15
5.89451e+15
5.74592e+15
5.59684e+15
5.45273e+15
5.31572e+15
5.18174e+15
5.04956e+15
4.92253e+15
4.80167e+15
4.6841e+15
4.56905e+15
4.45808e+15
4.3519e+15
4.24837e+15
4.14507e+15
4.04539e+15
3.94879e+15
3.8538e+15
3.76083e+15
3.67112e+15
3.58397e+15
3.49794e+15
3.41401e+15
3.3331e+15
3.25419e+15
3.17561e+15
3.09937e+15
3.02548e+15
2.95291e+15
2.88175e+15
2.81236e+15
2.74458e+15
2.67709e+15
2.61085e+15
2.54591e+15
2.4822e+15
2.41915e+15
2.35731e+15
2.29684e+15
2.23659e+15
2.17729e+15
2.11944e+15
2.06277e+15
2.00678e+15
1.95185e+15
1.89835e+15
1.84485e+15
1.79196e+15
1.73992e+15
1.68826e+15
1.63697e+15
1.58621e+15
1.53622e+15
1.48658e+15
1.43763e+15
1.38963e+15
1.34171e+15
1.29429e+15
1.24786e+15
1.20206e+15
1.15667e+15
1.11174e+15
1.06756e+15
1.02355e+15
9.80126e+14
9.37433e+14
7.37195e+15
7.18383e+15
7.01295e+15
6.84497e+15
6.67644e+15
6.51772e+15
6.35767e+15
6.19645e+15
6.04098e+15
5.89191e+15
5.74339e+15
5.5946e+15
5.45103e+15
5.31445e+15
5.18075e+15
5.04879e+15
4.92205e+15
4.80152e+15
4.68411e+15
4.569e+15
4.45803e+15
4.3519e+15
4.24837e+15
4.14502e+15
4.0454e+15
3.94879e+15
3.85364e+15
3.7607e+15
3.67109e+15
3.58391e+15
3.49776e+15
3.41385e+15
3.33298e+15
3.2541e+15
3.17555e+15
3.0994e+15
3.0255e+15
2.95292e+15
2.88176e+15
2.8124e+15
2.74461e+15
2.67713e+15
2.61092e+15
2.54598e+15
2.48223e+15
2.4192e+15
2.35738e+15
2.29691e+15
2.23668e+15
2.17743e+15
2.11958e+15
2.06287e+15
2.00687e+15
1.95196e+15
1.89842e+15
1.8449e+15
1.79202e+15
1.73997e+15
1.68831e+15
1.63703e+15
1.58629e+15
1.53629e+15
1.48666e+15
1.43774e+15
1.38972e+15
1.34181e+15
1.29444e+15
1.24796e+15
1.20212e+15
1.15685e+15
1.11188e+15
1.06777e+15
1.02375e+15
9.80392e+14
9.37725e+14
7.36888e+15
7.18092e+15
7.01036e+15
6.84264e+15
6.6741e+15
6.5145e+15
6.35418e+15
6.19322e+15
6.03804e+15
5.88869e+15
5.74045e+15
5.59214e+15
5.44901e+15
5.31269e+15
5.17945e+15
5.0478e+15
4.92124e+15
4.8011e+15
4.68405e+15
4.56881e+15
4.45769e+15
4.3518e+15
4.2483e+15
4.14485e+15
4.04536e+15
3.9487e+15
3.85338e+15
3.76037e+15
3.67089e+15
3.58376e+15
3.49748e+15
3.41346e+15
3.33278e+15
3.25401e+15
3.17543e+15
3.09943e+15
3.02553e+15
2.95293e+15
2.88178e+15
2.81245e+15
2.74465e+15
2.67717e+15
2.611e+15
2.54606e+15
2.48227e+15
2.41925e+15
2.35747e+15
2.29699e+15
2.23678e+15
2.17758e+15
2.11972e+15
2.06297e+15
2.00698e+15
1.95208e+15
1.8985e+15
1.84497e+15
1.7921e+15
1.74004e+15
1.68837e+15
1.63711e+15
1.58639e+15
1.53637e+15
1.48676e+15
1.43786e+15
1.38982e+15
1.34194e+15
1.29462e+15
1.24811e+15
1.2021e+15
7.36486e+15
7.17717e+15
7.00664e+15
6.8389e+15
6.67097e+15
6.51083e+15
6.35044e+15
6.18951e+15
6.03467e+15
5.8852e+15
5.73687e+15
5.58906e+15
5.44676e+15
5.31065e+15
5.17752e+15
5.04638e+15
4.9203e+15
4.80046e+15
4.68361e+15
4.5684e+15
4.45732e+15
4.35141e+15
4.24765e+15
4.14457e+15
4.04528e+15
3.94824e+15
3.85276e+15
3.76001e+15
3.6706e+15
3.58328e+15
3.49702e+15
3.41313e+15
3.33242e+15
3.25353e+15
3.17529e+15
3.09946e+15
3.02556e+15
2.95292e+15
2.88179e+15
2.8125e+15
2.74469e+15
2.67722e+15
2.61109e+15
2.54615e+15
2.48232e+15
2.41931e+15
2.35757e+15
2.29708e+15
2.23689e+15
2.17773e+15
2.11988e+15
2.06309e+15
2.00709e+15
1.95222e+15
1.89859e+15
1.84504e+15
1.79219e+15
1.74012e+15
1.68844e+15
1.6372e+15
1.58649e+15
1.53646e+15
1.48687e+15
1.438e+15
1.38995e+15
1.34208e+15
1.29485e+15
1.24827e+15
7.36242e+15
7.17572e+15
7.0052e+15
6.83732e+15
6.66897e+15
6.50889e+15
6.34824e+15
6.1872e+15
6.03237e+15
5.88341e+15
5.73515e+15
5.58748e+15
5.44562e+15
5.3102e+15
5.17719e+15
5.04609e+15
4.92031e+15
4.80048e+15
4.68363e+15
4.5684e+15
4.45734e+15
4.35143e+15
4.24767e+15
4.14458e+15
4.0453e+15
3.94826e+15
3.85277e+15
3.76003e+15
3.67062e+15
3.58329e+15
3.49702e+15
3.41315e+15
3.33244e+15
3.25354e+15
3.1753e+15
3.09948e+15
3.02559e+15
2.95293e+15
2.88181e+15
2.81255e+15
2.74473e+15
2.67727e+15
2.61118e+15
2.54624e+15
2.48237e+15
2.41937e+15
2.35768e+15
2.29718e+15
2.237e+15
2.1779e+15
2.12004e+15
2.06322e+15
2.00722e+15
1.95237e+15
1.89869e+15
1.84512e+15
1.79229e+15
1.74021e+15
1.68852e+15
1.63731e+15
1.58661e+15
1.53657e+15
1.487e+15
1.43816e+15
1.39009e+15
1.34222e+15
1.29514e+15
7.3591e+15
7.17282e+15
7.00251e+15
6.83493e+15
6.6662e+15
6.50581e+15
6.34523e+15
6.18455e+15
6.02961e+15
5.88077e+15
5.73296e+15
5.58572e+15
5.44404e+15
5.30903e+15
5.17655e+15
5.04558e+15
4.91989e+15
4.80036e+15
4.68363e+15
4.56832e+15
4.45732e+15
4.35145e+15
4.24769e+15
4.14458e+15
4.04531e+15
3.94828e+15
3.85279e+15
3.76002e+15
3.67062e+15
3.58331e+15
3.49697e+15
3.4131e+15
3.33245e+15
3.25356e+15
3.1753e+15
3.09951e+15
3.02562e+15
2.95294e+15
2.88183e+15
2.8126e+15
2.74478e+15
2.67733e+15
2.61127e+15
2.54633e+15
2.48244e+15
2.41945e+15
2.35779e+15
2.29729e+15
2.23713e+15
2.17808e+15
2.12022e+15
2.06336e+15
2.00736e+15
1.95252e+15
1.8988e+15
1.84523e+15
1.7924e+15
1.74031e+15
1.68861e+15
1.63742e+15
1.58674e+15
1.53669e+15
1.48715e+15
1.43834e+15
1.39028e+15
1.3424e+15
7.35474e+15
7.16876e+15
6.99846e+15
6.83113e+15
6.66263e+15
6.50192e+15
6.34131e+15
6.18096e+15
6.02631e+15
5.87764e+15
5.73006e+15
5.58328e+15
5.44207e+15
5.30747e+15
5.17525e+15
5.04457e+15
4.9192e+15
4.79996e+15
4.68338e+15
4.56805e+15
4.45716e+15
4.35136e+15
4.24762e+15
4.14441e+15
4.04526e+15
3.94824e+15
3.85265e+15
3.75989e+15
3.67054e+15
3.5832e+15
3.49681e+15
3.41298e+15
3.33239e+15
3.25352e+15
3.1753e+15
3.09954e+15
3.02566e+15
2.95296e+15
2.88186e+15
2.81267e+15
2.74484e+15
2.67739e+15
2.61138e+15
2.54644e+15
2.48251e+15
2.41954e+15
2.35792e+15
2.29742e+15
2.23728e+15
2.17827e+15
2.12041e+15
2.06351e+15
2.00751e+15
1.9527e+15
1.89894e+15
1.84535e+15
1.79253e+15
1.74044e+15
1.68873e+15
1.63756e+15
1.5869e+15
1.53684e+15
1.48732e+15
1.43855e+15
1.39049e+15
1.34266e+15
7.34996e+15
7.16417e+15
6.99398e+15
6.82666e+15
6.65831e+15
6.49752e+15
6.3369e+15
6.17676e+15
6.02252e+15
5.87349e+15
5.72646e+15
5.58042e+15
5.43954e+15
5.30502e+15
5.1734e+15
5.04314e+15
4.91792e+15
4.79896e+15
4.6828e+15
4.56751e+15
4.45648e+15
4.35087e+15
4.24726e+15
4.14404e+15
4.04483e+15
3.94791e+15
3.8523e+15
3.75941e+15
3.67012e+15
3.58292e+15
3.49649e+15
3.41259e+15
3.33216e+15
3.25343e+15
3.17521e+15
3.09957e+15
3.0257e+15
2.95299e+15
2.8819e+15
2.81274e+15
2.7449e+15
2.67747e+15
2.61149e+15
2.54656e+15
2.4826e+15
2.41965e+15
2.35806e+15
2.29756e+15
2.23744e+15
2.17847e+15
2.12062e+15
2.06369e+15
2.00769e+15
1.95289e+15
1.89909e+15
1.84549e+15
1.79269e+15
1.74059e+15
1.68887e+15
1.63772e+15
1.58707e+15
1.53701e+15
1.48751e+15
1.43877e+15
1.39072e+15
1.34293e+15
7.34489e+15
7.15933e+15
6.98923e+15
6.8219e+15
6.6537e+15
6.49291e+15
6.33223e+15
6.17216e+15
6.0181e+15
5.8691e+15
5.72206e+15
5.57643e+15
5.43651e+15
5.30202e+15
5.17044e+15
5.04092e+15
4.91628e+15
4.79739e+15
4.68124e+15
4.56639e+15
4.45554e+15
4.34969e+15
4.24598e+15
4.14328e+15
4.0442e+15
3.9469e+15
3.8513e+15
3.75878e+15
3.66949e+15
3.58207e+15
3.49582e+15
3.41214e+15
3.33166e+15
3.25291e+15
3.17502e+15
3.09961e+15
3.02573e+15
2.953e+15
2.88195e+15
2.81282e+15
2.74498e+15
2.67756e+15
2.61162e+15
2.54669e+15
2.4827e+15
2.41977e+15
2.35822e+15
2.29771e+15
2.23762e+15
2.1787e+15
2.12084e+15
2.06388e+15
2.00789e+15
1.9531e+15
1.89926e+15
1.84565e+15
1.79287e+15
1.74075e+15
1.68903e+15
1.63791e+15
1.58728e+15
1.53721e+15
1.48773e+15
1.43903e+15
1.39097e+15
1.34322e+15
7.33975e+15
7.15516e+15
6.98494e+15
6.81765e+15
6.64982e+15
6.48947e+15
6.32885e+15
6.16887e+15
6.01514e+15
5.86684e+15
5.71995e+15
5.57448e+15
5.43509e+15
5.3013e+15
5.16975e+15
5.04033e+15
4.91618e+15
4.79741e+15
4.68115e+15
4.56629e+15
4.45556e+15
4.3497e+15
4.24599e+15
4.14329e+15
4.04422e+15
3.94692e+15
3.85131e+15
3.7588e+15
3.66952e+15
3.58209e+15
3.49583e+15
3.41217e+15
3.33169e+15
3.25292e+15
3.17503e+15
3.09964e+15
3.02577e+15
2.95303e+15
2.882e+15
2.81291e+15
2.74505e+15
2.67765e+15
2.61175e+15
2.54682e+15
2.48281e+15
2.4199e+15
2.3584e+15
2.29788e+15
2.23781e+15
2.17893e+15
2.12107e+15
2.06408e+15
2.0081e+15
1.95333e+15
1.89945e+15
1.84584e+15
1.79307e+15
1.74094e+15
1.68922e+15
1.63813e+15
1.5875e+15
1.53743e+15
1.48799e+15
1.43932e+15
1.39126e+15
1.34353e+15
7.33432e+15
7.14997e+15
6.97986e+15
6.81261e+15
6.64493e+15
6.48455e+15
6.32411e+15
6.16488e+15
6.01148e+15
5.86327e+15
5.71692e+15
5.57206e+15
5.43294e+15
5.29939e+15
5.16839e+15
5.03927e+15
4.91529e+15
4.79679e+15
4.6807e+15
4.56583e+15
4.45522e+15
4.34951e+15
4.24587e+15
4.14306e+15
4.04404e+15
3.94687e+15
3.85124e+15
3.75865e+15
3.66942e+15
3.58203e+15
3.4957e+15
3.41209e+15
3.33169e+15
3.25294e+15
3.17504e+15
3.09968e+15
3.02582e+15
2.95306e+15
2.88206e+15
2.813e+15
2.74514e+15
2.67775e+15
2.61189e+15
2.54697e+15
2.48293e+15
2.42005e+15
2.35859e+15
2.29807e+15
2.23802e+15
2.17919e+15
2.12132e+15
2.06431e+15
2.00834e+15
1.95358e+15
1.89967e+15
1.84605e+15
1.7933e+15
1.74116e+15
1.68944e+15
1.63837e+15
1.58776e+15
1.53769e+15
1.48828e+15
1.43964e+15
1.39159e+15
1.34389e+15
7.32856e+15
7.14448e+15
6.97445e+15
6.80725e+15
6.63975e+15
6.47938e+15
6.31889e+15
6.15975e+15
6.00689e+15
5.85881e+15
5.71241e+15
5.56836e+15
5.43012e+15
5.29666e+15
5.16565e+15
5.03728e+15
4.91392e+15
4.79539e+15
4.67919e+15
4.5648e+15
4.45448e+15
4.34857e+15
4.24482e+15
4.14242e+15
4.04353e+15
3.94613e+15
3.85051e+15
3.75821e+15
3.66901e+15
3.58144e+15
3.49526e+15
3.41185e+15
3.33145e+15
3.25271e+15
3.17501e+15
3.09973e+15
3.02587e+15
2.95311e+15
2.88213e+15
2.81311e+15
2.74524e+15
2.67786e+15
2.61205e+15
2.54713e+15
2.48307e+15
2.42022e+15
2.3588e+15
2.29828e+15
2.23825e+15
2.17947e+15
2.1216e+15
2.06456e+15
2.0086e+15
1.95386e+15
1.89992e+15
1.84629e+15
1.79356e+15
1.74142e+15
1.68969e+15
1.63866e+15
1.58806e+15
1.53799e+15
1.48861e+15
1.44001e+15
1.39197e+15
1.34431e+15
7.32271e+15
7.13966e+15
6.96991e+15
6.8029e+15
6.63592e+15
6.47628e+15
6.31625e+15
6.15714e+15
6.0046e+15
5.85735e+15
5.71126e+15
5.56719e+15
5.42941e+15
5.2967e+15
5.1657e+15
5.03727e+15
4.91396e+15
4.79544e+15
4.67923e+15
4.56483e+15
4.45452e+15
4.34861e+15
4.24485e+15
4.14245e+15
4.04356e+15
3.94616e+15
3.85053e+15
3.75825e+15
3.66904e+15
3.58148e+15
3.49529e+15
3.41189e+15
3.33149e+15
3.25273e+15
3.17502e+15
3.09977e+15
3.02593e+15
2.95315e+15
2.88219e+15
2.81322e+15
2.74534e+15
2.67798e+15
2.61221e+15
2.5473e+15
2.48322e+15
2.4204e+15
2.35902e+15
2.29851e+15
2.2385e+15
2.17976e+15
2.1219e+15
2.06483e+15
2.00888e+15
1.95415e+15
1.90019e+15
1.84655e+15
1.79385e+15
1.7417e+15
1.68997e+15
1.63897e+15