/*--------------------------------*- C++ -*----------------------------------*\
| =========                 |                                                 |
| \\      /  F ield         | OpenFOAM: The Open Source CFD Toolbox           |
|  \\    /   O peration     | Version:  v2012                                 |
|   \\  /    A nd           | Website:  www.openfoam.com                      |
|    \\/     M anipulation  |                                                 |
\*---------------------------------------------------------------------------*/
FoamFile
{
    version     2.0;
    format      ascii;
    class       volScalarField;
    location    "1e-06";
    object      totalPMean;
}
// * * * * * * * * * * * * * * * * * * * * * * * * * * * * * * * * * * * * * //

dimensions      [1 -1 -2 0 0 0 0];


internalField   nonuniform List<scalar> 
10193
(
3.43165e+07
3.38932e+07
3.35085e+07
3.31296e+07
3.2751e+07
3.24006e+07
3.20449e+07
3.16978e+07
3.13285e+07
3.09564e+07
3.05926e+07
3.02245e+07
2.98487e+07
2.94691e+07
2.9103e+07
2.87443e+07
2.83982e+07
2.80661e+07
2.77454e+07
2.74288e+07
2.712e+07
2.68182e+07
2.65269e+07
2.62251e+07
2.59329e+07
2.56484e+07
2.53698e+07
2.50894e+07
2.48079e+07
2.45373e+07
2.42746e+07
2.40126e+07
2.37457e+07
2.34939e+07
2.3231e+07
2.29714e+07
2.27231e+07
2.24807e+07
2.22381e+07
2.19912e+07
2.17589e+07
2.15107e+07
2.12712e+07
2.10347e+07
2.08022e+07
2.05686e+07
2.03308e+07
2.01081e+07
1.9863e+07
1.96276e+07
1.93984e+07
1.91728e+07
1.89441e+07
1.8714e+07
1.84938e+07
1.82681e+07
1.80511e+07
1.78461e+07
1.76261e+07
1.73971e+07
1.71605e+07
1.69305e+07
1.66942e+07
1.64465e+07
1.62003e+07
1.59568e+07
1.57097e+07
1.54767e+07
1.52277e+07
1.49805e+07
1.47392e+07
1.44951e+07
1.4244e+07
1.39874e+07
1.37351e+07
3.43178e+07
3.38946e+07
3.35102e+07
3.31311e+07
3.27526e+07
3.24019e+07
3.20464e+07
3.16981e+07
3.13272e+07
3.09553e+07
3.05922e+07
3.02241e+07
2.98476e+07
2.94691e+07
2.91039e+07
2.87458e+07
2.83997e+07
2.80681e+07
2.77473e+07
2.74304e+07
2.71217e+07
2.68204e+07
2.65288e+07
2.62266e+07
2.59346e+07
2.56505e+07
2.53716e+07
2.50906e+07
2.48096e+07
2.45394e+07
2.42765e+07
2.40138e+07
2.37478e+07
2.3496e+07
2.32323e+07
2.29731e+07
2.27255e+07
2.24827e+07
2.22395e+07
2.19932e+07
2.17599e+07
2.15145e+07
2.12735e+07
2.10372e+07
2.08044e+07
2.057e+07
2.03329e+07
2.01093e+07
1.98662e+07
1.96301e+07
1.94012e+07
1.91753e+07
1.89464e+07
1.87169e+07
1.84965e+07
1.82701e+07
1.80522e+07
1.78454e+07
1.76248e+07
1.73952e+07
1.71595e+07
1.69295e+07
1.66918e+07
1.64446e+07
1.62014e+07
1.59568e+07
1.57103e+07
1.54762e+07
1.52312e+07
1.49835e+07
1.47413e+07
1.44972e+07
1.42459e+07
1.39909e+07
1.37384e+07
3.43197e+07
3.38966e+07
3.35122e+07
3.31332e+07
3.27545e+07
3.24041e+07
3.20484e+07
3.16986e+07
3.1327e+07
3.09551e+07
3.05923e+07
3.02242e+07
2.98474e+07
2.94698e+07
2.91054e+07
2.87484e+07
2.84023e+07
2.80707e+07
2.77499e+07
2.7433e+07
2.71244e+07
2.68231e+07
2.65315e+07
2.62292e+07
2.59374e+07
2.56533e+07
2.53745e+07
2.50931e+07
2.48122e+07
2.45423e+07
2.42792e+07
2.40162e+07
2.37507e+07
2.34991e+07
2.3235e+07
2.29762e+07
2.27286e+07
2.24859e+07
2.22421e+07
2.19961e+07
2.17626e+07
2.15166e+07
2.12768e+07
2.10405e+07
2.08077e+07
2.05729e+07
2.0336e+07
2.01114e+07
1.98694e+07
1.96337e+07
1.94047e+07
1.91788e+07
1.895e+07
1.87206e+07
1.85001e+07
1.82738e+07
1.80547e+07
1.78457e+07
1.76246e+07
1.73949e+07
1.71595e+07
1.69295e+07
1.66911e+07
1.64441e+07
1.62032e+07
1.59587e+07
1.57126e+07
1.54787e+07
1.52329e+07
1.49877e+07
1.47448e+07
1.45007e+07
1.42502e+07
1.39953e+07
1.37427e+07
3.43199e+07
3.38967e+07
3.35123e+07
3.31332e+07
3.27552e+07
3.24042e+07
3.20483e+07
3.16965e+07
3.13247e+07
3.09529e+07
3.059e+07
3.02218e+07
2.98449e+07
2.94682e+07
2.91046e+07
2.87485e+07
2.84025e+07
2.80708e+07
2.775e+07
2.74334e+07
2.71245e+07
2.68232e+07
2.65317e+07
2.623e+07
2.59375e+07
2.56535e+07
2.53747e+07
2.5093e+07
2.48122e+07
2.45424e+07
2.42796e+07
2.4016e+07
2.37507e+07
2.34989e+07
2.32355e+07
2.29764e+07
2.27288e+07
2.24862e+07
2.2242e+07
2.19962e+07
2.17614e+07
2.15178e+07
2.12771e+07
2.10407e+07
2.0808e+07
2.05729e+07
2.03361e+07
2.01095e+07
1.98708e+07
1.9634e+07
1.94049e+07
1.91792e+07
1.89503e+07
1.87208e+07
1.85004e+07
1.82745e+07
1.80542e+07
1.78421e+07
1.7622e+07
1.73918e+07
1.71558e+07
1.6926e+07
1.66872e+07
1.64403e+07
1.6201e+07
1.59575e+07
1.57118e+07
1.54763e+07
1.52338e+07
1.49881e+07
1.47446e+07
1.4502e+07
1.42506e+07
1.39956e+07
1.37436e+07
3.43216e+07
3.38985e+07
3.35142e+07
3.31351e+07
3.27568e+07
3.24061e+07
3.20501e+07
3.16964e+07
3.13238e+07
3.09526e+07
3.05898e+07
3.02214e+07
2.98443e+07
2.94688e+07
2.91061e+07
2.87508e+07
2.84048e+07
2.80732e+07
2.77524e+07
2.74357e+07
2.71269e+07
2.68257e+07
2.65342e+07
2.62323e+07
2.59401e+07
2.5656e+07
2.53772e+07
2.50953e+07
2.48149e+07
2.45451e+07
2.42821e+07
2.40182e+07
2.37533e+07
2.35016e+07
2.3238e+07
2.29793e+07
2.27316e+07
2.2489e+07
2.22445e+07
2.1999e+07
2.17637e+07
2.15207e+07
2.12801e+07
2.10437e+07
2.08111e+07
2.05757e+07
2.03391e+07
2.01114e+07
1.98739e+07
1.96373e+07
1.94081e+07
1.91824e+07
1.89535e+07
1.87242e+07
1.85037e+07
1.82776e+07
1.80565e+07
1.78427e+07
1.76214e+07
1.73913e+07
1.71556e+07
1.69255e+07
1.66864e+07
1.64404e+07
1.62025e+07
1.59593e+07
1.57146e+07
1.54787e+07
1.52375e+07
1.4992e+07
1.47485e+07
1.45054e+07
1.42545e+07
1.39997e+07
1.37475e+07
3.43229e+07
3.39e+07
3.35157e+07
3.31367e+07
3.27583e+07
3.24078e+07
3.20512e+07
3.16954e+07
3.13221e+07
3.09516e+07
3.05888e+07
3.02201e+07
2.9843e+07
2.94688e+07
2.91071e+07
2.87525e+07
2.84068e+07
2.80753e+07
2.77546e+07
2.74376e+07
2.71291e+07
2.68279e+07
2.65364e+07
2.62343e+07
2.59424e+07
2.56583e+07
2.53794e+07
2.50972e+07
2.48171e+07
2.45476e+07
2.42841e+07
2.40199e+07
2.37555e+07
2.35036e+07
2.32399e+07
2.29818e+07
2.27342e+07
2.24914e+07
2.22466e+07
2.20014e+07
2.17659e+07
2.15228e+07
2.12829e+07
2.10465e+07
2.08137e+07
2.05781e+07
2.03417e+07
2.01136e+07
1.98761e+07
1.96402e+07
1.94111e+07
1.91852e+07
1.89565e+07
1.87272e+07
1.85067e+07
1.82804e+07
1.80582e+07
1.78427e+07
1.76203e+07
1.73901e+07
1.71547e+07
1.69243e+07
1.6685e+07
1.644e+07
1.62033e+07
1.59607e+07
1.57172e+07
1.54816e+07
1.52401e+07
1.49956e+07
1.47521e+07
1.45086e+07
1.42581e+07
1.40035e+07
1.37511e+07
3.43231e+07
3.39001e+07
3.35158e+07
3.31368e+07
3.27587e+07
3.24078e+07
3.20507e+07
3.16925e+07
3.13191e+07
3.09491e+07
3.0586e+07
3.02168e+07
2.98399e+07
2.94671e+07
2.91062e+07
2.87525e+07
2.8407e+07
2.80754e+07
2.77547e+07
2.74381e+07
2.71293e+07
2.68281e+07
2.65365e+07
2.6235e+07
2.59425e+07
2.56584e+07
2.53794e+07
2.50971e+07
2.48173e+07
2.45477e+07
2.42843e+07
2.40197e+07
2.37555e+07
2.35031e+07
2.32404e+07
2.2982e+07
2.27344e+07
2.24916e+07
2.22466e+07
2.20015e+07
2.17652e+07
2.15236e+07
2.12831e+07
2.10467e+07
2.0814e+07
2.05782e+07
2.03419e+07
2.01127e+07
1.9877e+07
1.96406e+07
1.94114e+07
1.91857e+07
1.89568e+07
1.87275e+07
1.8507e+07
1.8281e+07
1.80575e+07
1.78396e+07
1.76176e+07
1.7387e+07
1.71509e+07
1.69205e+07
1.66815e+07
1.64371e+07
1.62012e+07
1.59603e+07
1.57175e+07
1.54812e+07
1.52412e+07
1.4996e+07
1.47524e+07
1.45097e+07
1.42586e+07
1.40039e+07
1.37521e+07
3.43242e+07
3.39014e+07
3.35172e+07
3.31382e+07
3.27599e+07
3.24093e+07
3.20516e+07
3.16911e+07
3.1317e+07
3.09479e+07
3.05848e+07
3.02151e+07
2.98384e+07
2.94671e+07
2.91073e+07
2.87541e+07
2.84088e+07
2.80773e+07
2.77567e+07
2.74398e+07
2.71312e+07
2.68301e+07
2.65385e+07
2.62367e+07
2.59446e+07
2.56605e+07
2.53815e+07
2.50989e+07
2.48194e+07
2.45499e+07
2.4286e+07
2.40213e+07
2.37575e+07
2.3505e+07
2.32422e+07
2.29843e+07
2.27367e+07
2.24938e+07
2.22486e+07
2.20039e+07
2.17672e+07
2.15261e+07
2.12856e+07
2.10492e+07
2.08164e+07
2.05805e+07
2.03445e+07
2.0115e+07
1.98794e+07
1.96434e+07
1.94141e+07
1.91882e+07
1.89594e+07
1.87303e+07
1.85098e+07
1.82833e+07
1.8059e+07
1.78398e+07
1.76167e+07
1.73861e+07
1.71501e+07
1.69195e+07
1.66807e+07
1.64375e+07
1.62025e+07
1.59624e+07
1.57206e+07
1.54842e+07
1.52443e+07
1.49992e+07
1.47557e+07
1.45125e+07
1.42618e+07
1.40074e+07
1.37554e+07
3.43244e+07
3.39014e+07
3.35172e+07
3.31382e+07
3.27603e+07
3.24094e+07
3.2051e+07
3.1688e+07
3.13138e+07
3.09454e+07
3.0582e+07
3.02118e+07
2.98353e+07
2.94655e+07
2.91067e+07
2.87542e+07
2.8409e+07
2.80774e+07
2.77568e+07
2.74402e+07
2.71313e+07
2.68302e+07
2.65386e+07
2.62373e+07
2.59448e+07
2.56606e+07
2.53816e+07
2.5099e+07
2.48196e+07
2.45501e+07
2.42863e+07
2.40212e+07
2.37575e+07
2.35048e+07
2.32427e+07
2.29846e+07
2.27369e+07
2.24941e+07
2.22488e+07
2.20041e+07
2.17674e+07
2.15265e+07
2.12859e+07
2.10494e+07
2.08168e+07
2.05808e+07
2.03447e+07
2.01152e+07
1.98802e+07
1.96438e+07
1.94144e+07
1.91887e+07
1.89597e+07
1.87306e+07
1.851e+07
1.82838e+07
1.80584e+07
1.78376e+07
1.76147e+07
1.73834e+07
1.71471e+07
1.69166e+07
1.66783e+07
1.64359e+07
1.62016e+07
1.59629e+07
1.5721e+07
1.54845e+07
1.5245e+07
1.49996e+07
1.4756e+07
1.45136e+07
1.42623e+07
1.4008e+07
1.37565e+07
3.43254e+07
3.39026e+07
3.35185e+07
3.31395e+07
3.27613e+07
3.24105e+07
3.20516e+07
3.16867e+07
3.13113e+07
3.09438e+07
3.05806e+07
3.02099e+07
2.98336e+07
2.94654e+07
2.91079e+07
2.87558e+07
2.84107e+07
2.80793e+07
2.77587e+07
2.74418e+07
2.71332e+07
2.68322e+07
2.65406e+07
2.62389e+07
2.59468e+07
2.56627e+07
2.53836e+07
2.51008e+07
2.48217e+07
2.45522e+07
2.4288e+07
2.40225e+07
2.37596e+07
2.3507e+07
2.32445e+07
2.29868e+07
2.27392e+07
2.24962e+07
2.22508e+07
2.20065e+07
2.17698e+07
2.15286e+07
2.12883e+07
2.10519e+07
2.08191e+07
2.05832e+07
2.03473e+07
2.01177e+07
1.98825e+07
1.96465e+07
1.94171e+07
1.91912e+07
1.89623e+07
1.87333e+07
1.85127e+07
1.8286e+07
1.806e+07
1.78393e+07
1.76142e+07
1.73824e+07
1.71473e+07
1.69166e+07
1.66783e+07
1.64376e+07
1.62044e+07
1.59655e+07
1.5724e+07
1.54876e+07
1.52477e+07
1.50028e+07
1.47593e+07
1.45162e+07
1.42655e+07
1.40115e+07
1.37597e+07
3.43262e+07
3.39036e+07
3.35196e+07
3.31406e+07
3.2762e+07
3.24103e+07
3.20509e+07
3.16839e+07
3.13079e+07
3.09409e+07
3.0578e+07
3.02069e+07
2.98308e+07
2.94643e+07
2.91082e+07
2.87564e+07
2.84117e+07
2.80809e+07
2.77604e+07
2.74432e+07
2.71344e+07
2.6834e+07
2.65423e+07
2.62403e+07
2.59486e+07
2.56645e+07
2.53851e+07
2.51018e+07
2.48233e+07
2.45542e+07
2.42891e+07
2.4023e+07
2.3761e+07
2.35089e+07
2.32457e+07
2.29889e+07
2.27413e+07
2.2498e+07
2.22521e+07
2.20086e+07
2.1772e+07
2.15302e+07
2.12906e+07
2.10542e+07
2.08212e+07
2.0585e+07
2.03497e+07
2.01201e+07
1.98843e+07
1.96491e+07
1.94197e+07
1.91934e+07
1.89647e+07
1.87359e+07
1.85151e+07
1.82878e+07
1.8061e+07
1.78402e+07
1.76133e+07
1.73807e+07
1.71469e+07
1.6916e+07
1.66778e+07
1.64389e+07
1.62069e+07
1.59678e+07
1.57269e+07
1.54905e+07
1.52499e+07
1.50057e+07
1.47624e+07
1.45187e+07
1.42685e+07
1.40149e+07
1.37627e+07
3.43264e+07
3.39036e+07
3.35197e+07
3.31407e+07
3.2762e+07
3.24093e+07
3.20488e+07
3.16796e+07
3.13036e+07
3.09371e+07
3.0574e+07
3.02024e+07
2.9827e+07
2.9462e+07
2.91069e+07
2.87556e+07
2.84114e+07
2.8081e+07
2.77606e+07
2.74436e+07
2.71344e+07
2.68341e+07
2.65424e+07
2.62409e+07
2.59488e+07
2.56646e+07
2.53848e+07
2.51014e+07
2.48233e+07
2.45544e+07
2.42889e+07
2.40222e+07
2.37607e+07
2.35084e+07
2.32459e+07
2.29892e+07
2.27415e+07
2.2498e+07
2.22519e+07
2.20088e+07
2.17722e+07
2.1531e+07
2.12909e+07
2.10545e+07
2.08215e+07
2.05853e+07
2.03499e+07
2.01203e+07
1.98852e+07
1.96496e+07
1.94201e+07
1.9194e+07
1.8965e+07
1.87363e+07
1.85154e+07
1.82882e+07
1.80605e+07
1.78385e+07
1.76113e+07
1.73781e+07
1.71445e+07
1.69139e+07
1.66763e+07
1.64389e+07
1.62071e+07
1.59686e+07
1.57273e+07
1.54909e+07
1.5251e+07
1.50062e+07
1.47629e+07
1.45197e+07
1.42691e+07
1.40156e+07
1.37639e+07
3.4327e+07
3.39044e+07
3.35207e+07
3.31416e+07
3.27623e+07
3.24088e+07
3.20474e+07
3.16762e+07
3.12997e+07
3.09339e+07
3.05709e+07
3.01989e+07
2.9824e+07
2.94608e+07
2.91069e+07
2.87558e+07
2.84121e+07
2.80825e+07
2.77621e+07
2.74448e+07
2.71356e+07
2.68357e+07
2.6544e+07
2.62421e+07
2.59505e+07
2.56663e+07
2.5386e+07
2.51024e+07
2.48249e+07
2.45562e+07
2.42898e+07
2.40228e+07
2.3762e+07
2.35099e+07
2.32469e+07
2.29911e+07
2.27435e+07
2.24995e+07
2.22532e+07
2.20108e+07
2.17741e+07
2.15325e+07
2.12931e+07
2.10566e+07
2.08234e+07
2.05872e+07
2.03521e+07
2.01225e+07
1.9887e+07
1.9652e+07
1.94225e+07
1.9196e+07
1.89672e+07
1.87387e+07
1.85176e+07
1.829e+07
1.8062e+07
1.78395e+07
1.76109e+07
1.73778e+07
1.71452e+07
1.69142e+07
1.66772e+07
1.64414e+07
1.62095e+07
1.59707e+07
1.57299e+07
1.54936e+07
1.52532e+07
1.5009e+07
1.47657e+07
1.45221e+07
1.4272e+07
1.40188e+07
1.37668e+07
3.43267e+07
3.39042e+07
3.35208e+07
3.31418e+07
3.27619e+07
3.24074e+07
3.20447e+07
3.16714e+07
3.12952e+07
3.09299e+07
3.05666e+07
3.0194e+07
2.982e+07
2.94584e+07
2.91055e+07
2.87548e+07
2.84116e+07
2.80826e+07
2.77622e+07
2.74452e+07
2.71357e+07
2.68359e+07
2.65441e+07
2.62426e+07
2.59507e+07
2.56664e+07
2.53856e+07
2.51021e+07
2.4825e+07
2.45563e+07
2.42895e+07
2.40222e+07
2.37617e+07
2.35092e+07
2.3247e+07
2.29913e+07
2.27437e+07
2.24996e+07
2.22533e+07
2.2011e+07
2.17743e+07
2.15332e+07
2.12934e+07
2.10569e+07
2.08238e+07
2.05875e+07
2.03524e+07
2.01227e+07
1.98878e+07
1.96525e+07
1.94229e+07
1.91966e+07
1.89676e+07
1.87391e+07
1.85179e+07
1.82905e+07
1.80621e+07
1.78382e+07
1.76097e+07
1.73767e+07
1.7144e+07
1.69132e+07
1.66775e+07
1.64417e+07
1.62099e+07
1.59715e+07
1.57304e+07
1.5494e+07
1.52542e+07
1.50096e+07
1.47663e+07
1.4523e+07
1.42727e+07
1.40197e+07
1.37681e+07
3.43265e+07
3.39044e+07
3.35216e+07
3.31426e+07
3.27617e+07
3.24063e+07
3.20423e+07
3.16672e+07
3.12908e+07
3.09262e+07
3.05629e+07
3.01899e+07
2.98168e+07
2.94569e+07
2.91051e+07
2.87546e+07
2.8412e+07
2.80839e+07
2.77636e+07
2.74463e+07
2.71368e+07
2.68374e+07
2.65455e+07
2.62437e+07
2.59522e+07
2.56679e+07
2.53864e+07
2.51029e+07
2.48264e+07
2.45579e+07
2.429e+07
2.40228e+07
2.37629e+07
2.35103e+07
2.32479e+07
2.29931e+07
2.27455e+07
2.25009e+07
2.22547e+07
2.20129e+07
2.17761e+07
2.15346e+07
2.12954e+07
2.10589e+07
2.08255e+07
2.05893e+07
2.03545e+07
2.01247e+07
1.98895e+07
1.96549e+07
1.94253e+07
1.91985e+07
1.89696e+07
1.87414e+07
1.852e+07
1.82922e+07
1.8064e+07
1.78395e+07
1.76102e+07
1.73777e+07
1.71456e+07
1.69146e+07
1.66796e+07
1.64441e+07
1.6212e+07
1.59735e+07
1.5733e+07
1.54965e+07
1.52562e+07
1.50122e+07
1.4769e+07
1.45253e+07
1.42754e+07
1.40228e+07
1.37709e+07
3.43253e+07
3.39036e+07
3.35216e+07
3.31426e+07
3.27607e+07
3.24041e+07
3.20386e+07
3.16616e+07
3.12858e+07
3.09217e+07
3.05579e+07
3.01845e+07
2.98126e+07
2.94543e+07
2.91032e+07
2.87532e+07
2.84114e+07
2.8084e+07
2.77638e+07
2.74466e+07
2.71369e+07
2.68376e+07
2.65453e+07
2.62441e+07
2.59524e+07
2.5668e+07
2.53857e+07
2.51026e+07
2.48265e+07
2.45578e+07
2.42896e+07
2.40223e+07
2.37625e+07
2.35094e+07
2.3248e+07
2.29933e+07
2.27457e+07
2.25008e+07
2.22549e+07
2.20131e+07
2.17763e+07
2.15353e+07
2.12957e+07
2.10592e+07
2.08258e+07
2.05896e+07
2.03548e+07
2.0125e+07
1.98903e+07
1.96555e+07
1.94258e+07
1.91991e+07
1.89701e+07
1.87418e+07
1.85203e+07
1.82927e+07
1.80642e+07
1.78388e+07
1.76097e+07
1.73779e+07
1.71455e+07
1.69148e+07
1.66801e+07
1.64444e+07
1.62124e+07
1.59742e+07
1.57335e+07
1.5497e+07
1.52573e+07
1.50129e+07
1.47697e+07
1.45262e+07
1.42762e+07
1.40238e+07
1.37723e+07
3.43239e+07
3.39028e+07
3.3522e+07
3.3143e+07
3.27596e+07
3.24019e+07
3.20349e+07
3.16564e+07
3.12809e+07
3.09173e+07
3.05533e+07
3.01797e+07
2.9809e+07
2.94523e+07
2.91021e+07
2.87524e+07
2.84114e+07
2.80852e+07
2.7765e+07
2.74475e+07
2.71379e+07
2.68389e+07
2.65463e+07
2.62449e+07
2.59538e+07
2.56692e+07
2.5386e+07
2.51031e+07
2.48278e+07
2.4559e+07
2.42898e+07
2.40228e+07
2.37633e+07
2.35099e+07
2.32487e+07
2.2995e+07
2.27473e+07
2.25019e+07
2.22563e+07
2.20148e+07
2.17779e+07
2.15365e+07
2.12976e+07
2.10611e+07
2.08274e+07
2.05913e+07
2.03568e+07
2.01268e+07
1.98918e+07
1.96577e+07
1.9428e+07
1.92009e+07
1.8972e+07
1.87441e+07
1.85222e+07
1.82943e+07
1.80662e+07
1.78405e+07
1.76109e+07
1.73798e+07
1.71476e+07
1.69166e+07
1.6682e+07
1.64467e+07
1.62144e+07
1.5976e+07
1.57359e+07
1.54993e+07
1.52592e+07
1.50155e+07
1.47723e+07
1.45284e+07
1.42789e+07
1.40269e+07
1.37751e+07
3.43213e+07
3.39009e+07
3.35209e+07
3.31415e+07
3.27577e+07
3.23987e+07
3.20296e+07
3.16498e+07
3.12754e+07
3.09121e+07
3.05471e+07
3.01735e+07
2.98047e+07
2.94493e+07
2.90993e+07
2.87504e+07
2.84105e+07
2.80851e+07
2.77651e+07
2.74476e+07
2.71379e+07
2.6839e+07
2.65451e+07
2.62451e+07
2.59539e+07
2.56688e+07
2.53847e+07
2.51027e+07
2.48277e+07
2.45582e+07
2.4289e+07
2.40224e+07
2.37625e+07
2.35081e+07
2.32487e+07
2.29951e+07
2.27474e+07
2.25016e+07
2.22565e+07
2.2015e+07
2.17778e+07
2.15372e+07
2.12979e+07
2.10614e+07
2.08276e+07
2.05916e+07
2.0357e+07
2.0127e+07
1.98926e+07
1.96582e+07
1.94284e+07
1.92014e+07
1.89724e+07
1.87444e+07
1.85224e+07
1.82948e+07
1.80665e+07
1.78401e+07
1.76114e+07
1.738e+07
1.71478e+07
1.69169e+07
1.66823e+07
1.6447e+07
1.62147e+07
1.59768e+07
1.57365e+07
1.54997e+07
1.52603e+07
1.50163e+07
1.47729e+07
1.45293e+07
1.42798e+07
1.40279e+07
1.37764e+07
3.43206e+07
3.3901e+07
3.3521e+07
3.31416e+07
3.27568e+07
3.23977e+07
3.20269e+07
3.16455e+07
3.12713e+07
3.09091e+07
3.05435e+07
3.01696e+07
2.9802e+07
2.94484e+07
2.90988e+07
2.87502e+07
2.84107e+07
2.80852e+07
2.77653e+07
2.74479e+07
2.71381e+07
2.68391e+07
2.65453e+07
2.62454e+07
2.59541e+07
2.56689e+07
2.53848e+07
2.5103e+07
2.48279e+07
2.45583e+07
2.42893e+07
2.40226e+07
2.37627e+07
2.35081e+07
2.32491e+07
2.29954e+07
2.27476e+07
2.25019e+07
2.22567e+07
2.20152e+07
2.1778e+07
2.15375e+07
2.12983e+07
2.10616e+07
2.08279e+07
2.05919e+07
2.03573e+07
2.01272e+07
1.98931e+07
1.96589e+07
1.94289e+07
1.9202e+07
1.89729e+07
1.87449e+07
1.85227e+07
1.82952e+07
1.80668e+07
1.78403e+07
1.76118e+07
1.73804e+07
1.7148e+07
1.69173e+07
1.66828e+07
1.64474e+07
1.62151e+07
1.59774e+07
1.57371e+07
1.55002e+07
1.5261e+07
1.50171e+07
1.47736e+07
1.45303e+07
1.42808e+07
1.40289e+07
1.37779e+07
3.43195e+07
3.3901e+07
3.35215e+07
3.3142e+07
3.27558e+07
3.23961e+07
3.20241e+07
3.16418e+07
3.12672e+07
3.09057e+07
3.05402e+07
3.01664e+07
2.97996e+07
2.94477e+07
2.9099e+07
2.87505e+07
2.84115e+07
2.80863e+07
2.77664e+07
2.74488e+07
2.71391e+07
2.68403e+07
2.65464e+07
2.62463e+07
2.59553e+07
2.56701e+07
2.53859e+07
2.51041e+07
2.48292e+07
2.45597e+07
2.42902e+07
2.40239e+07
2.37642e+07
2.35094e+07
2.32502e+07
2.29969e+07
2.27491e+07
2.25031e+07
2.2258e+07
2.20168e+07
2.17795e+07
2.15388e+07
2.13e+07
2.10634e+07
2.08293e+07
2.05934e+07
2.03592e+07
2.01289e+07
1.98947e+07
1.96609e+07
1.9431e+07
1.92036e+07
1.89747e+07
1.8747e+07
1.85244e+07
1.82968e+07
1.80687e+07
1.78422e+07
1.76133e+07
1.73823e+07
1.71501e+07
1.69189e+07
1.66846e+07
1.64496e+07
1.6217e+07
1.59792e+07
1.57394e+07
1.55024e+07
1.52631e+07
1.50196e+07
1.47763e+07
1.45325e+07
1.42834e+07
1.4032e+07
1.37807e+07
3.4317e+07
3.38996e+07
3.35205e+07
3.3141e+07
3.27538e+07
3.23931e+07
3.20198e+07
3.16366e+07
3.12622e+07
3.09012e+07
3.05354e+07
3.01619e+07
2.97964e+07
2.94458e+07
2.90978e+07
2.87497e+07
2.84113e+07
2.80864e+07
2.77666e+07
2.7449e+07
2.71393e+07
2.68405e+07
2.65465e+07
2.62466e+07
2.59555e+07
2.56702e+07
2.53861e+07
2.51043e+07
2.48294e+07
2.45598e+07
2.42904e+07
2.4024e+07
2.37643e+07
2.35095e+07
2.32505e+07
2.29971e+07
2.27492e+07
2.25033e+07
2.22582e+07
2.2017e+07
2.17797e+07
2.15391e+07
2.13004e+07
2.10637e+07
2.08296e+07
2.05938e+07
2.03596e+07
2.01293e+07
1.98952e+07
1.96616e+07
1.94316e+07
1.92042e+07
1.89752e+07
1.87475e+07
1.85248e+07
1.82972e+07
1.8069e+07
1.78425e+07
1.76138e+07
1.73827e+07
1.71505e+07
1.69194e+07
1.66851e+07
1.64501e+07
1.62175e+07
1.59799e+07
1.57401e+07
1.5503e+07
1.52639e+07
1.50205e+07
1.47772e+07
1.45335e+07
1.42846e+07
1.40334e+07
1.37823e+07
3.43138e+07
3.38973e+07
3.35191e+07
3.31399e+07
3.27513e+07
3.23892e+07
3.2015e+07
3.16317e+07
3.12571e+07
3.08961e+07
3.05309e+07
3.01579e+07
2.97932e+07
2.94438e+07
2.9097e+07
2.87491e+07
2.84111e+07
2.80873e+07
2.77677e+07
2.74498e+07
2.71402e+07
2.68416e+07
2.65476e+07
2.62474e+07
2.59567e+07
2.56714e+07
2.53871e+07
2.51049e+07
2.48305e+07
2.4561e+07
2.4291e+07
2.40245e+07
2.37653e+07
2.35106e+07
2.32513e+07
2.29984e+07
2.27506e+07
2.25044e+07
2.22594e+07
2.20185e+07
2.17811e+07
2.15403e+07
2.13019e+07
2.10653e+07
2.08308e+07
2.05951e+07
2.03613e+07
2.01309e+07
1.98967e+07
1.96636e+07
1.94336e+07
1.92058e+07
1.89769e+07
1.87495e+07
1.85264e+07
1.82986e+07
1.80708e+07
1.78442e+07
1.76152e+07
1.73844e+07
1.71524e+07
1.6921e+07
1.66868e+07
1.64522e+07
1.62193e+07
1.59817e+07
1.57424e+07
1.55051e+07
1.52658e+07
1.5023e+07
1.47799e+07
1.45358e+07
1.42874e+07
1.40365e+07
1.37854e+07
3.43087e+07
3.38931e+07
3.35155e+07
3.31365e+07
3.27472e+07
3.23836e+07
3.20084e+07
3.16248e+07
3.12509e+07
3.08898e+07
3.05246e+07
3.01523e+07
2.97889e+07
2.94405e+07
2.90944e+07
2.87472e+07
2.84099e+07
2.80869e+07
2.77678e+07
2.74499e+07
2.71401e+07
2.68417e+07
2.65477e+07
2.62475e+07
2.59569e+07
2.56715e+07
2.53867e+07
2.51047e+07
2.48305e+07
2.45609e+07
2.42906e+07
2.40241e+07
2.37651e+07
2.35104e+07
2.32513e+07
2.29987e+07
2.27508e+07
2.25046e+07
2.22596e+07
2.20188e+07
2.17813e+07
2.15407e+07
2.13024e+07
2.10657e+07
2.08312e+07
2.05955e+07
2.03617e+07
2.01313e+07
1.98973e+07
1.96643e+07
1.94343e+07
1.92064e+07
1.89775e+07
1.87501e+07
1.85269e+07
1.82992e+07
1.80712e+07
1.78445e+07
1.76157e+07
1.73849e+07
1.71529e+07
1.69216e+07
1.66874e+07
1.64528e+07
1.622e+07
1.59826e+07
1.57433e+07
1.55058e+07
1.52664e+07
1.50241e+07
1.47812e+07
1.45372e+07
1.42892e+07
1.40383e+07
1.37876e+07
3.43026e+07
3.38873e+07
3.35103e+07
3.31319e+07
3.27424e+07
3.23768e+07
3.20009e+07
3.16177e+07
3.12443e+07
3.08827e+07
3.05181e+07
3.01468e+07
2.97844e+07
2.94368e+07
2.90919e+07
2.87453e+07
2.84085e+07
2.80867e+07
2.77686e+07
2.74501e+07
2.71401e+07
2.68424e+07
2.65484e+07
2.62477e+07
2.59578e+07
2.56722e+07
2.53868e+07
2.51045e+07
2.48309e+07
2.45615e+07
2.42906e+07
2.40238e+07
2.37655e+07
2.35111e+07
2.32518e+07
2.29999e+07
2.27521e+07
2.25056e+07
2.22607e+07
2.20201e+07
2.17826e+07
2.15417e+07
2.13038e+07
2.10673e+07
2.08323e+07
2.05967e+07
2.03634e+07
2.01327e+07
1.98986e+07
1.96662e+07
1.94362e+07
1.92079e+07
1.8979e+07
1.8752e+07
1.85284e+07
1.83004e+07
1.80729e+07
1.78461e+07
1.7617e+07
1.73865e+07
1.71547e+07
1.69231e+07
1.66891e+07
1.64549e+07
1.62217e+07
1.59842e+07
1.57457e+07
1.55079e+07
1.52674e+07
3.42939e+07
3.3879e+07
3.35019e+07
3.31234e+07
3.27354e+07
3.23682e+07
3.1992e+07
3.16088e+07
3.12363e+07
3.08742e+07
3.05092e+07
3.01391e+07
2.97788e+07
2.94316e+07
2.90869e+07
2.87416e+07
2.8406e+07
2.80849e+07
2.77674e+07
2.74491e+07
2.7139e+07
2.68414e+07
2.65465e+07
2.62471e+07
2.59576e+07
2.56709e+07
2.53849e+07
2.51036e+07
2.48301e+07
2.456e+07
2.42892e+07
2.40228e+07
2.37644e+07
2.35096e+07
2.32515e+07
2.30001e+07
2.27522e+07
2.25057e+07
2.22609e+07
2.20204e+07
2.17828e+07
2.15422e+07
2.13042e+07
2.10676e+07
2.08326e+07
2.05971e+07
2.03638e+07
2.01331e+07
1.98993e+07
1.96669e+07
1.94369e+07
1.92085e+07
1.89796e+07
1.87526e+07
1.85289e+07
1.8301e+07
1.80734e+07
1.78465e+07
1.76175e+07
1.7387e+07
1.71552e+07
1.69236e+07
1.66897e+07
1.64556e+07
1.62224e+07
1.59852e+07
1.57469e+07
1.55088e+07
3.42888e+07
3.3876e+07
3.34988e+07
3.31199e+07
3.2731e+07
3.23638e+07
3.1987e+07
3.16034e+07
3.12309e+07
3.08699e+07
3.0505e+07
3.01352e+07
2.97761e+07
2.94306e+07
2.90861e+07
2.8741e+07
2.84063e+07
2.80852e+07
2.77675e+07
2.74493e+07
2.71392e+07
2.68416e+07
2.65466e+07
2.62473e+07
2.59578e+07
2.56711e+07
2.53851e+07
2.51038e+07
2.48303e+07
2.45602e+07
2.42895e+07
2.4023e+07
2.37646e+07
2.35097e+07
2.32518e+07
2.30003e+07
2.27524e+07
2.25059e+07
2.22611e+07
2.20207e+07
2.1783e+07
2.15425e+07
2.13047e+07
2.10681e+07
2.0833e+07
2.05975e+07
2.03643e+07
2.01336e+07
1.98999e+07
1.96677e+07
1.94376e+07
1.92092e+07
1.89803e+07
1.87534e+07
1.85294e+07
1.83015e+07
1.80739e+07
1.78469e+07
1.7618e+07
1.73876e+07
1.71558e+07
1.69243e+07
1.66905e+07
1.64564e+07
1.62232e+07
1.5986e+07
1.57485e+07
3.42822e+07
3.38702e+07
3.34935e+07
3.31152e+07
3.27253e+07
3.23573e+07
3.19806e+07
3.15977e+07
3.12249e+07
3.08642e+07
3.05003e+07
3.01315e+07
2.97727e+07
2.94283e+07
2.90853e+07
2.87404e+07
2.84059e+07
2.80857e+07
2.77685e+07
2.74498e+07
2.714e+07
2.68426e+07
2.65476e+07
2.62481e+07
2.59588e+07
2.56721e+07
2.5386e+07
2.51046e+07
2.48313e+07
2.45612e+07
2.42901e+07
2.40237e+07
2.37657e+07
2.35107e+07
2.32526e+07
2.30015e+07
2.27536e+07
2.25068e+07
2.22621e+07
2.2022e+07
2.17842e+07
2.15436e+07
2.13061e+07
2.10695e+07
2.08342e+07
2.05987e+07
2.03659e+07
2.01351e+07
1.99014e+07
1.96695e+07
1.94395e+07
1.92107e+07
1.89819e+07
1.87552e+07
1.85309e+07
1.83029e+07
1.80756e+07
1.78485e+07
1.76194e+07
1.73892e+07
1.71576e+07
1.69258e+07
1.66921e+07
1.64585e+07
1.62251e+07
1.59879e+07
3.42727e+07
3.38612e+07
3.34843e+07
3.31065e+07
3.27171e+07
3.23482e+07
3.19713e+07
3.15891e+07
3.12169e+07
3.08565e+07
3.04931e+07
3.01253e+07
2.97678e+07
2.94243e+07
2.90819e+07
2.87377e+07
2.84041e+07
2.80846e+07
2.77678e+07
2.74492e+07
2.71396e+07
2.68424e+07
2.65474e+07
2.62477e+07
2.59587e+07
2.5672e+07
2.53856e+07
2.51043e+07
2.48311e+07
2.4561e+07
2.42897e+07
2.40235e+07
2.37656e+07
2.35106e+07
2.32528e+07
2.30017e+07
2.27538e+07
2.2507e+07
2.22624e+07
2.20223e+07
2.17845e+07
2.1544e+07
2.13066e+07
2.107e+07
2.08346e+07
2.05993e+07
2.03665e+07
2.01357e+07
1.9902e+07
1.96704e+07
1.94403e+07
1.92115e+07
1.89827e+07
1.8756e+07
1.85316e+07
1.83036e+07
1.80762e+07
1.78491e+07
1.76199e+07
1.73899e+07
1.71584e+07
1.69265e+07
1.66931e+07
1.64595e+07
1.62262e+07
1.59893e+07
3.4263e+07
3.38518e+07
3.34751e+07
3.30972e+07
3.27078e+07
3.23387e+07
3.19617e+07
3.15798e+07
3.12083e+07
3.08471e+07
3.04849e+07
3.01188e+07
2.97619e+07
2.94188e+07
2.90778e+07
2.87346e+07
2.84013e+07
2.80827e+07
2.77671e+07
2.74483e+07
2.71385e+07
2.68419e+07
2.65471e+07
2.62473e+07
2.59583e+07
2.56719e+07
2.53853e+07
2.51035e+07
2.48307e+07
2.4561e+07
2.42894e+07
2.4023e+07
2.37658e+07
2.35112e+07
2.32532e+07
2.30028e+07
2.27549e+07
2.25079e+07
2.22633e+07
2.20236e+07
2.17856e+07
2.1545e+07
2.1308e+07
2.10715e+07
2.08357e+07
2.06005e+07
2.03681e+07
2.01371e+07
1.99034e+07
1.96722e+07
1.94422e+07
1.9213e+07
1.89842e+07
1.87579e+07
1.85332e+07
1.8305e+07
1.80779e+07
1.78507e+07
1.76214e+07
1.73916e+07
1.71602e+07
1.69282e+07
1.66948e+07
1.64617e+07
1.62283e+07
1.59914e+07
3.42519e+07
3.38411e+07
3.34643e+07
3.30863e+07
3.26974e+07
3.23279e+07
3.19506e+07
3.15687e+07
3.11978e+07
3.08363e+07
3.04739e+07
3.01087e+07
2.97543e+07
2.9411e+07
2.907e+07
2.87288e+07
2.8397e+07
2.80785e+07
2.77627e+07
2.74453e+07
2.71359e+07
2.68385e+07
2.65434e+07
2.62452e+07
2.59565e+07
2.56689e+07
2.53823e+07
2.51017e+07
2.48288e+07
2.45583e+07
2.42874e+07
2.40216e+07
2.37642e+07
2.35094e+07
2.32527e+07
2.30029e+07
2.2755e+07
2.2508e+07
2.22636e+07
2.20238e+07
2.17859e+07
2.15455e+07
2.13085e+07
2.1072e+07
2.08361e+07
2.0601e+07
2.03687e+07
2.01377e+07
1.99043e+07
1.96731e+07
1.94431e+07
1.92138e+07
1.89851e+07
1.87588e+07
1.85339e+07
1.83058e+07
1.80787e+07
1.78514e+07
1.76222e+07
1.73924e+07
1.71611e+07
1.69291e+07
1.66959e+07
1.64629e+07
1.62295e+07
1.59929e+07
3.42408e+07
3.3832e+07
3.34547e+07
3.30766e+07
3.26886e+07
3.232e+07
3.19427e+07
3.15609e+07
3.11908e+07
3.0831e+07
3.04688e+07
3.01039e+07
2.97509e+07
2.94093e+07
2.90684e+07
2.87274e+07
2.8397e+07
2.80787e+07
2.77627e+07
2.74452e+07
2.71361e+07
2.68387e+07
2.65436e+07
2.62454e+07
2.59568e+07
2.56691e+07
2.53825e+07
2.5102e+07
2.48291e+07
2.45585e+07
2.42876e+07
2.40219e+07
2.37644e+07
2.35096e+07
2.32529e+07
2.30032e+07
2.27553e+07
2.25082e+07
2.22639e+07
2.20243e+07
2.17863e+07
2.15459e+07
2.13091e+07
2.10725e+07
2.08367e+07
2.06017e+07
2.03694e+07
2.01385e+07
1.99051e+07
1.96742e+07
1.94441e+07
1.92148e+07
1.89861e+07
1.87598e+07
1.85348e+07
1.83067e+07
1.80796e+07
1.78523e+07
1.7623e+07
1.73934e+07
1.71622e+07
1.69302e+07
1.66971e+07
1.64642e+07
1.62309e+07
1.59944e+07
3.42297e+07
3.38213e+07
3.34442e+07
3.3066e+07
3.2678e+07
3.23093e+07
3.19323e+07
3.15521e+07
3.11825e+07
3.0823e+07
3.04621e+07
3.00985e+07
2.9746e+07
2.94052e+07
2.90656e+07
2.87253e+07
2.83953e+07
2.80778e+07
2.77622e+07
2.74447e+07
2.71359e+07
2.6839e+07
2.6544e+07
2.62454e+07
2.5957e+07
2.56698e+07
2.5383e+07
2.51022e+07
2.48296e+07
2.45592e+07
2.42879e+07
2.40224e+07
2.37654e+07
2.35105e+07
2.32537e+07
2.30042e+07
2.27564e+07
2.25091e+07
2.22649e+07
2.20255e+07
2.17874e+07
2.15471e+07
2.13105e+07
2.1074e+07
2.08379e+07
2.0603e+07
2.03711e+07
2.014e+07
1.99067e+07
1.96761e+07
1.94461e+07
1.92165e+07
1.89879e+07
1.87619e+07
1.85365e+07
1.83083e+07
1.80815e+07
1.78541e+07
1.76248e+07
1.73954e+07
1.71643e+07
1.69321e+07
1.66992e+07
1.64667e+07
1.62333e+07
1.59969e+07
3.4217e+07
3.38091e+07
3.34319e+07
3.30537e+07
3.26662e+07
3.22972e+07
3.19199e+07
3.15397e+07
3.11715e+07
3.0812e+07
3.04507e+07
3.00892e+07
2.97389e+07
2.93981e+07
2.90584e+07
2.872e+07
2.83916e+07
2.8074e+07
2.7758e+07
2.74418e+07
2.71338e+07
2.68363e+07
2.65409e+07
2.62436e+07
2.59555e+07
2.56675e+07
2.53807e+07
2.51009e+07
2.48283e+07
2.45573e+07
2.42865e+07
2.40216e+07
2.37645e+07
2.35096e+07
2.32536e+07
2.30044e+07
2.27565e+07
2.25092e+07
2.22652e+07
2.20259e+07
2.17878e+07
2.15475e+07
2.13111e+07
2.10746e+07
2.08384e+07
2.06037e+07
2.03719e+07
2.01408e+07
1.99076e+07
1.96772e+07
1.94471e+07
1.92175e+07
1.8989e+07
1.8763e+07
1.85375e+07
1.83094e+07
1.80826e+07
1.78551e+07
1.76258e+07
1.73966e+07
1.71655e+07
1.69334e+07
1.67007e+07
1.64684e+07
1.6235e+07
1.59989e+07
3.42044e+07
3.37987e+07
3.34218e+07
3.30439e+07
3.26576e+07
3.22901e+07
3.19137e+07
3.15336e+07
3.11661e+07
3.08086e+07
3.0448e+07
3.00864e+07
2.97373e+07
2.93984e+07
2.90587e+07
2.87202e+07
2.8392e+07
2.80743e+07
2.77583e+07
2.74421e+07
2.71342e+07
2.68366e+07
2.65411e+07
2.62439e+07
2.59558e+07
2.56677e+07
2.5381e+07
2.51012e+07
2.48286e+07
2.45576e+07
2.42868e+07
2.4022e+07
2.37648e+07
2.35098e+07
2.32538e+07
2.30047e+07
2.27568e+07
2.25096e+07
2.22655e+07
2.20264e+07
2.17883e+07
2.15481e+07
2.13118e+07
2.10753e+07
2.08391e+07
2.06044e+07
2.03728e+07
2.01417e+07
1.99087e+07
1.96784e+07
1.94484e+07
1.92187e+07
1.89902e+07
1.87643e+07
1.85387e+07
1.83105e+07
1.80839e+07
1.78564e+07