/*--------------------------------*- C++ -*----------------------------------*\
| =========                 |                                                 |
| \\      /  F ield         | OpenFOAM: The Open Source CFD Toolbox           |
|  \\    /   O peration     | Version:  v2012                                 |
|   \\  /    A nd           | Website:  www.openfoam.com                      |
|    \\/     M anipulation  |                                                 |
\*---------------------------------------------------------------------------*/
FoamFile
{
    version     2.0;
    format      ascii;
    class       volScalarField;
    location    "1e-06";
    object      totalP;
}
// * * * * * * * * * * * * * * * * * * * * * * * * * * * * * * * * * * * * * //

dimensions      [1 -1 -2 0 0 0 0];


internalField   nonuniform List<scalar> 
10193
(
107581
106947
109282
109507
105890
108765
107437
107342
106063
106117
106312
105786
104914
104500
104520
103828
102629
102414
102568
101878
101095
100219
101704
99555.1
99492.3
99161.7
99444.4
98679.9
97525.8
97459.5
97489.9
96831.3
95117.5
96844.5
95318.4
94388
94200
94489.5
93941
92060.3
93309.3
90939.6
91649.3
90964.6
91363.9
90865.7
88713.6
90240.6
87723.4
88058.4
87681.7
88187.4
87473.3
85561.4
86797.5
85490.8
83892.5
84635.4
84541.9
83977.3
82142.4
83082
82587.8
80669.5
81426.3
80815.7
78470.4
79440.8
77457.8
77685.1
77157.7
77596.6
76789.2
75268.2
75918.2
108799
108269
110910
110967
107436
110216
109162
108803
107149
107639
108035
107272
106187
106210
106336
105442
104195
104370
104450
103533
102840
102357
103599
101025
101433
101325
101328
100349
99665.4
99593.3
99362.1
98753.6
97501.2
98961
96930.4
96591.4
96578.4
96569
95905.5
94539.2
95590.6
94757.3
94002.4
93556.1
93629.9
92945.9
91346.9
92699.6
90942.1
90591.6
90450.3
90609.4
89813.7
88483.6
89442.2
87557.7
86599.5
87299.7
86929.9
86407.5
85021
85571.4
84864.8
83642.1
84210.1
83056.5
81527.2
82424.8
82321.6
80826.9
80468.1
80583.5
79813.8
78802.5
79048.4
110667
110262
112943
113028
109377
112376
111325
110996
109363
109955
110340
109616
108576
108650
108773
107897
106715
106916
107005
106004
105457
105003
106265
103631
104179
104068
104097
103156
102521
102446
102141
101669
100452
101921
99866.2
99640.2
99619.3
99607
99010.4
97697.2
98772.6
96890.5
97186.1
96788.4
96874.3
96250.8
94712.7
96037.8
94058.7
94002.9
93888
94009.8
93313.5
92032.3
92987.2
91110.2
90273.1
90951.3
90390.4
90158
88781.2
89299
88747.5
87542.2
88098.4
87013.3
85607.7
86567.7
85159.1
84892.4
84651.2
84581.4
84055.5
83074.9
83154.3
110944
110382
113055
113144
110074
112511
111457
111122
109863
110108
110487
109775
108801
108809
108935
108124
106918
107092
107186
106512
105661
105194
106471
104468
104395
104273
104358
103444
102750
102674
102695
101913
100695
102182
100601
99904.7
99873.2
100002
99316.6
97987.7
99028.1
98149
97500.2
97072.7
97296.5
96616
95055.8
96351.9
95462.4
94353.6
94210
94560.3
93715.6
92368.1
93376.4
91954.1
90709.3
91361.6
91597.2
90580.3
89190.1
89917.9
89269
87950.5
88585.9
87855.3
86111.5
86982.4
86767.9
85414.2
85125.3
85937
84598.3
83525.1
84104.1
112533
112115
114848
114956
111683
114413
113383
113076
111720
112157
112548
111876
110891
110994
111128
110339
109175
109399
109501
108711
108019
107603
108892
106700
106870
106763
106870
105960
105337
105268
105172
104528
103379
104881
103138
102663
102641
102758
102100
100875
101919
101048
100430
100027
100248
99574.1
98150
99424.5
98553.5
97485.4
97353.2
97651.3
96874.8
95610
96618.3
95051
94057.4
94719.3
94568.2
93915.6
92611.8
93310.9
92728.4
91491.6
92155.1
91260.9
89827.4
90725.2
90504.1
89181.3
88915.8
89333.9
88381.8
87405.5
87796.6
113845
113599
116397
116524
113106
116086
115083
114792
113351
113991
114390
113735
112756
112956
113099
112299
111204
111480
111592
110642
110147
109785
111081
108657
109109
109021
109128
108220
107679
107627
107369
106897
105818
107308
105386
105160
105157
105223
104618
103493
104524
103076
103071
102709
102893
102251
100954
102215
100687
100294
100206
100396
99729.1
98554
99545
97857.3
97101.8
97740.5
97283.6
96960.8
95726.7
96328.1
95827.8
94686.3
95338.2
94326.1
93190.1
94058.2
93136.2
92516.4
92320.8
92403.1
91794.7
90899.6
91048.3
114101
113720
116506
116641
113583
116221
115230
114922
113822
114157
114549
113904
113001
113127
113268
112540
111418
111664
111779
111138
110360
109984
111286
109383
109334
109239
109403
108527
107914
107871
107924
107174
106081
107574
106098
105437
105422
105643
104943
103803
104809
103960
103389
103003
103338
102636
101315
102539
101658
100651
100538
100963
100153
98901
99939.5
98699.3
97568.5
98175.5
98297.7
97442
96185.1
96991.5
96387
95135.9
95866.8
95178.3
93706.4
94531.1
94263.3
93011.7
92774.4
93503
92333
91351.9
91951.5
115161
114951
117804
117953
114765
117638
116692
116405
115200
115751
116157
115528
114610
114851
114998
114249
113182
113486
113606
112790
112209
111897
113212
111099
111295
111222
111384
110492
109977
109944
109827
109235
108240
109732
108041
107628
107630
107802
107134
106118
107103
106327
105713
105344
105642
104950
103778
104988
103939
103121
103025
103333
102610
101463
102495
101093
100233
100858
100643
100101
98949.4
99650.8
99080.9
97964.6
98674.8
97779.9
96597.7
97391.2
97248.6
95937.5
95718.4
96091.8
95252.7
94379.7
94718.9
115390
115052
117901
118056
115187
117753
116830
116517
115618
115900
116301
115679
114859
115005
115150
114457
113388
113653
113774
113242
112398
112079
113384
111696
111502
111420
111630
110798
110190
110166
110337
109466
108479
109971
108674
107887
107870
108181
107442
106398
107371
106870
106006
105608
106045
105326
104094
105275
104746
103455
103323
103857
103030
101778
102848
101891
100667
101274
101630
100529
99386.5
100281
99633.5
98401
99175.9
98603.9
97049
97789.9
97972.6
96396.3
96120.5
97140
95778.7
94789
95563.4
116337
116185
119104
119274
116149
119047
118175
117887
116835
117383
117803
117215
116334
116640
116795
116093
115077
115439
115565
114800
114205
113974
115280
113321
113449
113390
113578
112685
112237
112234
112154
111492
110626
112112
110544
110085
110092
110309
109595
108711
109665
108874
108349
107988
108341
107607
106568
107712
106931
105950
105852
106217
105482
104386
105435
104205
103342
103996
103791
103145
102171
102920
102252
101244
102016
101161
99973.7
100698
100512
99351.2
99137.1
99568.8
98712.4
97895.2
98303.2
117124
117139
120125
120315
117021
120165
119338
119048
117866
118690
119127
118529
117646
118091
118261
117495
116583
117039
117178
116197
115833
115693
116982
114706
115219
115194
115316
114424
114112
114135
113804
113358
112604
114046
112184
112107
112148
112214
111586
110853
111779
110441
110495
110193
110409
109730
108863
109961
108587
108240
108201
108338
107756
106813
107791
106340
105836
106477
105926
105613
104756
105283
104713
103875
104554
103456
102686
103374
102550
102039
101911
101937
101439
100759
100815
117330
117232
120219
120417
117328
120276
119466
119142
118229
118839
119257
118671
117856
118236
118394
117704
116777
117200
117344
116602
116033
115874
117167
115294
115423
115392
115575
114699
114317
114362
114277
113589
112841
114286
112774
112359
112395
112623
111877
111120
112042
111233
110790
110460
110847
110087
109166
110253
109455
108573
108503
108876
108155
107122
108173
107098
106255
106879
106695
106049
105205
105928
105214
104272
105041
104234
103110
103787
103526
102495
102326
102740
101922
101162
101568
118003
118041
121087
121304
118085
121230
120474
120132
119102
119968
120403
119793
118967
119491
119663
118893
118061
118577
118719
117809
117422
117365
118626
116498
116951
116955
117067
116200
115961
116020
115710
115221
114594
115974
114202
114135
114194
114268
113627
113010
113883
112707
112669
112394
112629
111938
111190
112212
111043
110597
110564
110711
110128
109255
110227
108946
108461
109084
108636
108245
107536
108021
107370
106605
107247
106249
105474
106096
105463
104847
104743
104831
104290
103664
103748
118186
118127
121179
121411
118343
121335
120601
120219
119426
120116
120532
119929
119175
119634
119795
119095
118244
118741
118888
118177
117612
117553
118809
117018
117160
117152
117323
116477
116171
116255
116148
115445
114837
116214
114752
114396
114450
114671
113922
113282
114154
113390
112972
112670
113063
112298
111498
112515
111798
110940
110876
111241
110535
109577
110611
109673
108890
109499
109325
108719
107995
108643
107914
106999
107728
107008
105914
106521
106339
105305
105168
105556
104780
104105
104454
118786
118854
121967
122224
119014
122191
121509
121095
120180
121131
121560
120921
120147
120758
120931
120142
119388
119983
120125
119236
118873
118904
120110
118080
118544
118584
118649
117815
117667
117765
117433
116942
116455
117739
116028
116033
116110
116150
115525
115039
115846
114742
114714
114468
114685
114000
113391
114323
113254
112829
112800
112924
112371
111586
112505
111355
110953
111549
111111
110772
110172
110539
109873
109174
109749
108813
108120
108654
108101
107528
107416
107495
106982
106436
106488
118946
118925
122043
122325
119247
122286
121623
121163
120468
121267
121674
121035
120340
120888
121047
120322
119551
120135
120280
119563
119028
119080
120272
118546
118739
118761
118880
118071
117860
117980
117806
117142
116684
117951
116556
116278
116350
116518
115806
115295
116099
115369
115000
114728
115089
114372
113679
114607
113948
113154
113092
113411
112758
111889
112868
112029
111340
111921
111711
111191
110573
111080
110368
109528
110199
109524
108533
109053
108923
107948
107820
108143
107447
106854
107111
119504
119603
122770
123078
119841
123076
122465
121958
121124
122198
122612
121917
121198
121908
122073
121243
120573
121259
121405
120519
120161
120306
121430
119461
119986
120052
120043
119249
119210
119334
118944
118484
118155
119300
117686
117759
117849
117827
117241
116898
117622
116545
116584
116363
116543
115906
115418
116246
115212
114883
114849
114936
114427
113750
114581
113487
113237
113780
113286
113047
112541
112776
112131
111534
112030
111164
110566
110994
110441
109984
109881
109886
109459
108998
108974
119686
119645
122795
123128
120085
123162
122584
122009
121418
122327
122717
122015
121385
122021
122166
121401
120691
121331
121475
120758
120231
120398
121505
119859
120093
120153
120207
119442
119315
119464
119245
118610
118304
119428
118118
117900
117971
118087
117421
117025
117751
117129
116757
116488
116826
116144
115568
116399
115854
115082
114998
115289
114660
113904
114812
114021
113462
113967
113777
113257
112724
113144
112447
111717
112330
111713
110811
111223
111171
110257
110099
110423
109774
109194
109441
119918
119755
122887
123242
120321
123286
122737
122112
121651
122479
122857
122165
121599
122159
122296
121605
120870
121446
121570
121053
120354
120526
121618
120142
120229
120279
120389
119699
119456
119604
119588
118800
118486
119591
118466
118062
118096
118366
117672
117184
117894
117421
116940
116619
117119
116446
115748
116557
116162
115295
115151
115669
114968
114092
115038
114446
113709
114133
114236
113538
112901
113532
112833
111935
112620
112172
111080
111440
111555
110546
110322
110933
110121
109408
109947
120459
120414
123598
123989
120908
124020
123540
122867
122305
123330
123730
122981
122351
123091
123249
122438
121779
122480
122616
121856
121362
121665
122689
121066
121371
121465
121440
120729
120686
120855
120552
119980
119829
120824
119540
119398
119475
119509
118918
118635
119281
118608
118360
118127
118392
117773
117325
118049
117445
116855
116770
116987
116419
115791
116579
115841
115423
115828
115610
115168
114704
114998
114373
113785
114274
113676
112937
113244
113114
112398
112235
112481
111896
111398
111581
120616
120472
123642
124071
121062
124092
123624
122914
122474
123436
123813
123063
122517
123187
123336
122583
121933
122607
122744
122099
121503
121813
122816
121313
121544
121605
121620
120961
120854
121015
120826
120154
120011
120989
119831
119606
119647
119794
119197
118841
119474
118893
118596
118323
118704
118111
117560
118269
117750
117126
116983
117356
116773
116046
116865
116265
115711
116060
115970
115506
114960
115390
114801
114069
114626
114142
113264
113544
113515
112759
112556
112892
112308
111713
112032
121170
121123
124333
124798
121662
124804
124402
123626
123092
124242
124636
123807
123205
124051
124218
123328
122752
123563
123714
122869
122436
122871
123793
122154
122598
122693
122555
121877
121975
122148
121725
121201
121222
122079
120781
120814
120889
120820
120299
120152
120702
119959
119893
119671
119831
119277
118980
119578
118900
118524
118423
118546
118049
117576
118217
117486
117239
117541
117253
116954
116563
116714
116160
115735
116087
115471
114935
115142
114926
114425
114258
114344
113960
113477
113559
121307
121168
124346
124853
121805
124866
124471
123659
123267
124336
124699
123877
123363
124131
124287
123455
122887
123662
123831
123058
122557
123000
123910
122403
122757
122823
122711
122081
122116
122294
121942
121350
121376
122230
121060
121003
121051
121061
120537
120336
120887
120234
120103
119854
120090
119584
119190
119787
119219
118763
118634
118840
118351
117805
118476
117894
117490
117755
117547
117253
116804
117028
116546
115982
116388
115914
115221
115425
115287
114768
114606
114716
114377
113839
114017
121915
121856
125053
125574
122399
125595
125269
124367
123844
125132
125506
124579
124013
124966
125128
124177
123654
124556
124732
123802
123418
123975
124788
123112
123735
123825
123552
122899
123145
123322
122769
122312
122484
123199
121857
122113
122184
122000
121529
121531
121986
121126
121273
121070
121108
120614
120469
120944
120163
120016
119916
119914
119469
119174
119671
118903
118850
119045
118649
118529
118208
118212
117724
117463
117690
117010
116703
116795
116399
122122
121931
125076
125615
122636
125668
125326
124408
124106
125246
125578
124658
124211
125062
125197
124308
123783
124600
124784
123969
123489
124034
124834
123377
123824
123883
123659
123074
123222
123406
122962
122416
122571
123275
122136
122206
122246
122155
121681
121610
122075
121467
121380
121144
121271
120806
120567
121051
120498
120166
120010
120111
119653
119283
119818
119239
118991
119146
118931
118683
118312
118411
117967
117591
117865
117352
116875
116933
122373
122117
125224
125785
122896
125826
125476
124563
124326
125423
125734
124841
124430
125224
125350
124539
123991
124746
124923
124217
123657
124192
124977
123587
123994
124013
123866
123306
123384
123558
123235
122609
122742
123435
122365
122375
122363
122393
121897
121761
122225
121645
121547
121270
121517
121046
120736
121213
120715
120352
120150
120390
119900
119460
120024
119501
119178
119314
119203
118917
118469
118702
118247
117767
118114
117642
117122
123007
122831
125964
126551
123544
126545
126286
125288
124962
126195
126540
125543
125075
126021
126185
125239
124713
125610
125810
124906
124473
125145
125834
124344
124921
124987
124657
124083
124366
124537
124001
123484
123792
124354
123195
123400
123422
123233
122786
122857
123235
122524
122581
122394
122418
121969
121893
122265
121645
121469
121322
121331
120883
120692
121088
120478
120379
120491
120205
120020
119727
119720
119290
119072
119222
118702
123172
122922
125971
126581
123673
126605
126322
125310
125099
126261
126559
125593
125215
126072
126213
125346
124837
125671
125898
125065
124584
125239
125929
124516
125055
125086
124778
124255
124479
124659
124148
123628
123914
124483
123399
123567
123565
123414
123016
123013
123396
122703
122768
122554
122606
122225
122067
122440
121837
121676
121501
121529
121145
120878
121292
120759
120589
120660
120385
120271
119931
119924
119587
119276
119428
118981
123938
123780
126862
127445
124385
127418
127226
126108
125726
127074
127390
126317
125850
126888
127031
126034
125544
126510
126727
125756
125362
126135
126707
125171
125925
125979
125507
124954
125393
125551
124907
124452
124893
125324
124111
124530
124557
124257
123837
124050
124338
123509
123751
123593
123484
123057
123144
123413
122680
122705
122568
122428
122028
122013
122279
121608
121683
121722
121321
121305
121057
120915
120493
120466
120477
119915
124082
123849
126833
127451
124637
127478
127229
126141
125993
127174
127428
126382
126066
126972
127072
126142
125696
126557
126772
125902
125455
126182
126744
125405
126017
126013
125580
125128
125457
125606
125046
124556
124937
125369
124332
124598
124590
124358
123974
124092
124398
123736
123834
123641
123586
123221
123201
123481
122915
122801
122629
122553
122181
122074
122369
121845
121765
121780
121513
121426
121125
121027
120681
120528
120570
120153
124330
124076
126979
127599
124864
127647
127359
126304
126210
127382
127597
126597
126304
127169
127246
126387
125938
126750
126960
126141
125675
126385
126937
125617
126232
126178
125810
125361
125656
125784
125283
124775
125125
125553
124523
124785
124727
124569
124174
124255
124565
123896
124014
123787
123800
123428
123371
123653
123083
122988
122784
122778
122397
122249
122572
122044
121946
121959
121708
121639
121295
121256
120906
120704
120796
120362
125172
124984
127932
128509
125650
128470
128284
127122
126906
128199
128447
127344
126974
127987
128091
127088
126638
127596
127797
126855
126440
127282
127715
126331
127080
127078
126525
126074
126551
126663
126032
125567
126075
126372
125289
125694
125673
125358
124950
125222
125434
124679
124923
124764
124596
124219
124363
124533
123886
123930
123775
123600
123221
123287
123451
122867
122942
122933
122574
122581
122331
122168
121814
121776
121742
121283
125268
125065
127893
128513
125829
128546
128282
127165
127090
128297
128459
127404
127155
128068
128115
127172
126774
127624
127822
126928
126519
127295
127736
126459
127144
127071
126565
126198
126587
126684
126093
125652
126084
126405
125420
125755
125690
125420
125062
125249
125480
124795
124996
124793
124657
124340
124402
124580
123993
124012
123816
123663
123337
123327
123507
122990
123009
122973
122647
122677
122377
122219
121935
121825
121799
121399
125583
125332
128071
128675
126148
128753
128453
127378
127360
128538
128655
127653
127404
128295
128315
127458
127035
127845
128022
127215
126761
127511
127937
126712
127376
127237
126800
126431
126799
126854
126357
125880
126274
126588
125638
125962
125838
125652
125261
125428
125651
124999
125195
124945
124890
124540
124583
124756
124203
124214
123973
123911
123544
123511
123717
123199
123200
123153
122888
122885
122544
122468
122150
122007
122028
121608
126445
126253
129050
129600
126935
129542
129333
128204
128062
129325
129507
128409
128077
129080
129171
128157
127731
128680
128876
127889
127502
128396
128728
127428
128187
128141
127533
127146
127660
127724
127044
126642
127187
127369
126384
126810
126743
126356
126001
126334
126457
125739
126016
125868
125614
125290
125504
125581
124949
125054
124899
124651
124316
124464
124532
123966
124113
124051
123658
123731
123505
123268
122950
122991
122898
122433
126624
126436
129115
129676
127086
129648
129370
128228
128128
129369
129464
128438
128158
129098
129155
128246
127824
128702
128912
127978
127589
128429
128800
127519
128275
128210
127617
127272
127750
127831
127171
126779
127285
127491
126527
126972
126883
126470
126185
126466
126582
125847
126184
126017
125729
125476
125647
125703
125045
125230
125060
124775
124507
124616
124683
124136
124285
124226
123797
123923
123676
123434
123145
123159
123083
122611
127541
127411
130184
130659
127953
130558
130409
129128
128860
130232
130355
129200
128804
129905
129963
128950
128488
129512
129675
128666
128290
129256
129517
128161
129029
129002
128317
127903
128552
128605
127878
127480
128146
128251
127212
127802
127748
127240
126880
127351
127396
126570
126990
126885
126509
126174
126528
126519
125781
126047
125923
125565
125238
125521
125506
124875
125136
125074
124581
124723
124559
124255
123914
124089
123948
123398
127646
127460
130066
130570
128146
130568
130318
129101
129080
130307
130331
129231
129004
129960
129955
129002
128646
129539
129676
128772
128403
129259
129525
128342
129108
128996
128337
128059
128580
128597
127945
127569
128107
128221
127338
127825
127717
127257
126978
127328
127375
126692
127037
126868
126519
126275
126514
126493
125890
126097
125912
125588
125328
125501
125487
124974
125158
125051
124643
124789
124550
124256
124004
124077
123937
123490
127902
127772
130306
130788
128372
130802
130497
129294
129260
130548
130528
129478
129248
130229
130195
129264
128926
129816
129939
129002
128678
129531
129797
128571
129384
129236
128593
128320
128852
128838
128160
127832
128355
128450
127534
128058
127911
127445
127179
127538
127575
126843
127250
127064
126706
126458
126719
126686
126030
126304
126110
125770
125513
125707
125684
125128
125357
125246
124788
124979
124741
124443
124183
124276
124144
123655
128808
128688
131315
131700
129219
131652
131473
130120
129982
131335
131351
130184
129874
130980
130951
129936
129551
130573
130650
129669
129325
130298
130449
129194
130086
129983
129256
128932
129604
129569
128849
128494
129165
129180
128224
128832
128716
128179
127856
128353
128331
127539
128000
127867
127444
127158
127524
127442
126751
127058
126901
126514
126227
126527
126446
125856
126136
126029
125542
125728
125548
125210
124922
125111
124933
124416
128834
128718
131176
131580
129314
131666
131379
130071
130129
131407
131307
130169
130008
131030
130913
129934
129671
130593
130619
129702
129419
130277
130424
129287
130138
129939
129218
129011
129600
129513
128831
128535
129090
129100
128272
128835
128656
128139
127906
128309
128271
127586
128023
127819
127395
127196
127484
127379
126783
127074
126856
126469
126256
126479
126382
125872
126124
125967
125518
125742
125496
125142
124933
125061
124865
124416
129111
129038
131449
131810
129531
131909
131582
130278
130326
131689
131548
130439
130265
131344
131175
130215
129966
130916
130894
129957
129728
130590
130714
129542
130453
130203
129487
129285
129902
129761
129066
128809
129352
129322
128473
129072
128859
128338
128116
128536
128477
127762
128249
128021
127592
127385
127697
127580
126946
127286
127059
126663
126448
126695
126591
126035
126328
126167
125679
125938
125690
125338
125110
125268
125076
124576
129916
129829
132327
132591
130243
132643
132407
130954
130927
132349
132250
131034
130822
132001
131842
130762
130521
131590
131525
130544
130302
131272
131279
130096
131083
130889
130059
129849
130581
130428
129662
129415
130083
129984
129088
129755
129570
128986
128724
129248
129142
128372
128912
128726
128238
127990
128397
128240
127556
127953
127754
127320
127095
127406
127254
126689
127011
126845
126337
126601
126390
126004
125770
125980
125753
125249
129857
129804
132162
132442
130215
132654
132320
130909
130987
132412
132175
130982
130881
132031
131775
130726
130569
131573
131453
130493
130322
131201
131203
130070
131065
130783
129972
129831
130519
130319
129566
129380
129965
129884
129051
129713
129474
128899
128701
129171
129054
128327
128879
128635
128142
127956
128318
128151
127504
127913
127670
127219
127047
127318
127158
126622
126942
126750
126232
126540
126294
125881
125697
125886
125647
125157
130173
130133
132476
132660
130456
132903
132580
131168
131266
132750
132471
131282
131185
132388
132070
131047
130899
131941
131737
130807
130661
131549
131483
130383
131397
131040
130242
130121
130826
130545
129834
129657
130232
130099
129301
129970
129673
129129
128941
129420
129256
128584
129129
128829
128369
128187
128552
128357
127758
128163
127868
127455
127279
127549
127382
126856
127168
126953
126471
126771
126487
126114
125920
126114
125877
125374
130704
130719
133134
133248
130914
133359
133154
131618
131657
133207
133027
131679
131576
132868
132623
131422
131310
132465
132288
131192
131109
132117
131982
130813
131909
131643
130668
130580
131384
131119
130253
130135
130811
130621
129757
130495
130252
129539
129407
129977
129786
129039
129641
129407
128802
128653
129108
128885
128224
128681
128444
127925
127754
128120
127901
127324
127718
127502
126953
127307
127070
126626
126449
126690
126406
125903
130807
130813
133182
133281
130948
133403
133162
131614
131615
133200
133017
131641
131549
132869
132632
131424
131307
132477
132319
131207
131120
132138
132045
130813
131949
131699
130755
130622
131457
131215
130347
130218
130903
130740
129824
130594
130355
129652
129498
130072
129905
129109
129740
129511
128913
128743
129202
129007
128299
128784
128559
128038
127856
128223
128023
127406
127817
127622
127042
127410
127183
126740
126546
126804
126547
126008
131305
131283
133714
133765
131365
133835
133664
132036
131961
133564
133438
132013
131864
133250
133051
131794
131625
132880
132722
131583
131446
132558
132433
131155
132321
132128
131142
130964
131869
131647
130764
130599
131387
131191
130239
131043
130829
130094
129916
130548
130362
129537
130192
129993
129367
129185
129682
129474
128756
129248
129042
128503
128306
128709
128490
127866
128285
128091
127503
127870
127665
127207
126998
127280
127014
126472
131325
131351
133746
133778
131386
133887
133720
132034
131981
133587
133443
131983
131842
133237
133056
131790
131616
132871
132743
131596
131438
132549
132460
131141
132330
132159
131177
130974
131888
131702
130809
130628
131438
131281
130292
131127
130928
130175
129997
130631
130463
129595
130283
130098
129453
129264
129769
129577
128819
129343
129151
128589
128401
128798
128588
127946
128377
128192
127567
127957
127760
127280
127076
127358
127098
126542
131726
131738
134194
134179
131730
134241
134144
132420
132305
133960
133844
132328
132126
133576
133392
132091
131887
133203
133060
131903
131716
132892
132771
131418
132639
132492
131495
131256
132228
132047
131143
130923
131821
131666
130633
131512
131333
130564
130344
131053
130871
129967
130679
130518
129862
129632
130202
130002
129208
129755
129579
129011
128784
129233
129018
128336
128789
128618
127973
128353
128178
127701
127459
127783
127526
126935
131579
131607
133963
133971
131614
134099
133961
132271
132271
133924
133742
132240
132151
133569
133329
132020
131916
133169
132972
131840
131726
132817
132685
131399
132608
132369
131369
131215
132122
131890
130998
130823
131616
131486
130523
131391
131156
130399
130255
130905
130696
129872
130578
130348
129693
129547
130059
129834
129118
129654
129419
128849
128689
129081
128851
128238
128668
128453
127845
128244
128015
127525
127343
127625
127352
126810
131806
131861
134262
134195
131820
134283
134198
132488
132458
134194
134029
132497
132406
133913
133653
132307
132230
133552
133298
132121
132057
133211
133015
131701
132968
132682
131669
131527
132461
132158
131249
131093
131899
131723
130737
131633
131362
130604
130481
131167
130917
130096
130821
130561
129903
129778
130316
130059
129350
129897
129634
129063
128914
129339
129081
128459
128907
128670
128073
128471
128221
127736
127556
127871
127585
127026
132023
132107
134523
134424
132031
134460
134443
132676
132593
134357
134258
132622
132547
134098
133894
132424
132385
133760
133523
132243
132226
133435
133173
131867
133187
132947
131839
131748
132732
132456
131445
131345
132182
132017
130982
131911
131684
130860
130744
131474
131234
130365
131124
130907
130214
130064
130642
130387
129636
130214
129980
129385
129233
129671
129404
128777
129228
128994
128375
128774
128539
128025
127842
128158
127861
127308
132073
132134
134540
134418
132040
134474
134458
132692
132534
134326
134245
132626
132500
134082
133894
132430
132358
133757
133537
132246
132211
133439
133200
131844
133196
132970
131877
131749
132773
132523
131515
131409
132245
132104
131032
131975
131762
130940
130807
131545
131326
130426
131195
130994
130301
130136
130719
130486
129705
130291
130074
129470
129302
129748
129499
128834
129298
129084
128433
128843
128623
128106
127907
128240
127955
127368
132328
132353
134783
134664
132239
134678
134708
132919
132698
134486
134442
132805
132640
134252
134093
132612
132508
133946
133736
132433
132367
133644
133396
132012
133382
133193
132084
131929
132997
132761
131756
131647
132523
132364
131284
132245
132046
131216
131074
131838
131612
130707
131484
131293
130590
130422
131022
130781
129999
130590
130375
129767
129589
130045
129789
129119
129587
129370
128716
129122
128905
128385
128180
128515
128230
127645
132348
132368
134783
134647
132233
134696
134702
132905
132699
134493
134443
132811
132605
134228
134091
132613
132487
133934
133749
132430
132351
133643
133414
131993
133383
133217
132105
131928
133021
132804
131787
131684
132587
132432
131326
132307
132125
131281
131133
131908
131694
130759
131553
131379
130661
130487
131097
130867
130059
130663
130467
129840
129657
130121
129871
129177
129655
129455
128773
129191
128988
128449
128239
128584
128304
127703
132574
132549
134978
134854
132407
134873
134907
133102
132869
134670
134635
132987
132741
134358
134245
132769
132611
134078
133908
132587
132476
133800
133572
132136
133534
133393
132277
132081
133202
133000
131989
131866
132830
132656
131547
132538
132362
131523
131361
132154
131940
131003
131797
131623
130909
130726
131348
131117
130309
130912
130712
130092
129891
130365
130115
129416
129893
129688
129008
129419
129216
128689
128463
128809
128527
127917
132558
132560
134964
134824
132401
134893
134896
133040
132877
134696
134616
132991
132762
134361
134244
132770
132597
134058
133916
132583
132459
133787
133580
132122
133530
133412
132290
132084
133217
133037
132016
131889
132895
132709
131588
132595
132435
131577
131418
132214
132009
131052
131861
131704
130970
130789
131414
131191
130366
130981
130797
130156
129958
130434
130186
129476
129961
129764
129061
129483
129297
128750
128529
128874
128595
127979
132758
132710
135121
135002
132552
135041
135023
133210
133022
134846
134758
133162
132908
134514
134394
132914
132705
134164
134045
132716
132556
133903
133707
132240
133648
133546
132432
132208
133360
133197
132186
132034
133101
132902
131772
132782
132629
131780
131597
132409
132211
131248
132053
131892
131170
130970
131607
131389
130559
131172
130980
130352
130137
130623
130381
129660
130144
129942
129239
129658
129459
128927
128686
129041
128767
128133
132722
132717
135096
134963
132545
135057
135010
133142
133030
134870
134730
133093
132933
134547
134390
132940
132725
134149
134046
132717
132536
133873