/*--------------------------------*- C++ -*----------------------------------*\
| =========                 |                                                 |
| \\      /  F ield         | OpenFOAM: The Open Source CFD Toolbox           |
|  \\    /   O peration     | Version:  v2012                                 |
|   \\  /    A nd           | Website:  www.openfoam.com                      |
|    \\/     M anipulation  |                                                 |
\*---------------------------------------------------------------------------*/
FoamFile
{
    version     2.0;
    format      ascii;
    class       volVectorField;
    location    "1e-06";
    object      U;
}
// * * * * * * * * * * * * * * * * * * * * * * * * * * * * * * * * * * * * * //

dimensions      [0 1 -1 0 0 0 0];


internalField   nonuniform List<vector> 
10193
(
(3.32359 1.07657 -3.73368e-28)
(3.30494 1.07199 4.1459e-28)
(3.28817 1.06538 3.06225e-28)
(3.36055 1.08859 -2.36719e-28)
(3.36505 1.08945 2.71622e-33)
(3.44215 1.11397 0)
(3.40614 1.10216 -1.6395e-31)
(3.52174 1.14196 0)
(3.56781 1.16031 -4.13536e-33)
(3.59645 1.17072 -2.93224e-28)
(3.58586 1.16568 0)
(3.70708 1.20415 7.77437e-28)
(3.75616 1.22217 0)
(3.74415 1.21943 0)
(3.75191 1.22029 2.1769e-28)
(3.8586 1.25515 -6.00849e-36)
(3.85833 1.25443 1.66035e-32)
(3.82011 1.24162 0)
(3.85617 1.25169 0)
(3.95476 1.28426 0)
(3.92852 1.2776 0)
(3.88879 1.26324 -6.12804e-29)
(3.97799 1.29094 9.17838e-29)
(3.98251 1.29351 4.51119e-29)
(4.01553 1.3046 -1.32486e-32)
(3.99489 1.29655 5.79348e-30)
(4.10028 1.32994 0)
(4.12225 1.33888 5.8506e-32)
(4.0919 1.32933 4.02829e-29)
(4.11324 1.33437 7.55445e-30)
(4.2134 1.36728 4.68847e-30)
(4.19639 1.36355 -5.54814e-29)
(4.15466 1.34908 6.2097e-33)
(4.24808 1.37749 2.35716e-32)
(4.27086 1.38675 1.09407e-29)
(4.27509 1.38913 -1.33482e-29)
(4.26537 1.3839 -1.36542e-32)
(4.37595 1.4195 8.61257e-30)
(4.37614 1.42174 -3.11194e-29)
(4.33153 1.40692 -5.82291e-32)
(4.40602 1.4341 -1.62997e-32)
(4.17348 1.35487 1.51797e-31)
(4.46039 1.44394 8.9095e-29)
(4.449 1.44344 -2.07371e-29)
(4.56337 1.48 -2.8909e-32)
(4.56894 1.48433 0)
(4.52169 1.46873 0)
(4.60687 1.49801 -1.01905e-28)
(4.36974 1.41727 -2.2955e-31)
(4.65797 1.504 9.01097e-29)
(4.65184 1.50436 -3.83261e-29)
(4.77333 1.54321 6.26763e-29)
(4.76657 1.54441 1.19272e-31)
(4.71936 1.52755 1.57127e-29)
(4.81616 1.55642 0)
(4.8172 1.56044 0)
(4.77594 1.55485 0)
(4.80884 1.5722 -1.77431e-28)
(4.90352 1.60376 -9.94473e-29)
(4.94804 1.62091 -6.5712e-29)
(4.94346 1.61781 2.09901e-28)
(5.0735 1.65818 1.16917e-28)
(5.10315 1.67223 1.17527e-28)
(5.09523 1.66738 2.82743e-35)
(5.21413 1.6924 3.1715e-29)
(5.22138 1.69647 -5.08964e-29)
(5.19149 1.68763 -2.83415e-29)
(5.2596 1.71382 -2.25984e-28)
(5.04721 1.63797 -2.35073e-35)
(5.34435 1.72821 1.41411e-31)
(5.37289 1.74212 -1.08345e-28)
(5.47476 1.77427 -6.65978e-29)
(5.49768 1.78362 7.06321e-31)
(5.51571 1.7875 2.63008e-31)
(5.66078 1.83652 3.09688e-29)
(3.63963 1.17617 0)
(3.64641 1.18024 9.33156e-33)
(3.70823 1.19831 1.1839e-32)
(3.73266 1.20587 -3.00345e-29)
(3.758 1.21529 -2.72902e-33)
(3.80554 1.23097 0)
(3.83829 1.24151 3.51698e-28)
(3.88393 1.26089 1.30309e-33)
(3.83641 1.24968 0)
(3.96345 1.29165 3.34366e-28)
(3.99975 1.30183 -1.13865e-28)
(4.05882 1.3204 -2.32868e-31)
(4.05616 1.32169 -7.48497e-29)
(4.13891 1.34877 -2.54575e-29)
(4.16898 1.35625 9.71631e-29)
(4.22035 1.37223 8.72394e-30)
(4.20958 1.36751 -2.99873e-29)
(4.2581 1.38241 1.666e-33)
(4.27536 1.3853 -3.67972e-29)
(4.31749 1.40052 0)
(4.31252 1.40139 1.23782e-29)
(4.35841 1.4141 7.49364e-30)
(4.38771 1.42283 -3.4086e-30)
(4.30404 1.39706 0)
(4.43309 1.43883 0)
(4.45971 1.44649 2.00227e-29)
(4.49756 1.45825 2.6158e-29)
(4.47688 1.45399 -5.6305e-32)
(4.54255 1.47528 -1.19977e-29)
(4.56045 1.47838 1.82392e-32)
(4.59959 1.49217 6.37151e-36)
(4.596 1.49353 -2.69277e-28)
(4.64588 1.50805 4.27261e-33)
(4.67817 1.51662 2.21281e-32)
(4.60378 1.49471 1.32829e-29)
(4.72052 1.53275 3.62066e-32)
(4.74517 1.53841 1.88748e-29)
(4.78756 1.55249 -7.62676e-30)
(4.76924 1.54952 -1.60781e-31)
(4.82248 1.56598 -7.46724e-29)
(4.85805 1.57866 -3.20435e-32)
(4.93372 1.60088 1.26942e-32)
(4.91468 1.59042 -1.09617e-28)
(4.95076 1.60486 -6.345e-29)
(4.99346 1.61889 -9.10681e-30)
(4.96808 1.61407 0)
(5.0219 1.63069 0)
(5.06963 1.64914 0)
(4.99344 1.61818 0)
(5.12837 1.64998 -6.47528e-30)
(5.16434 1.66617 -2.01443e-32)
(5.21354 1.68252 -2.13683e-29)
(5.19262 1.68047 0)
(5.25125 1.69667 -5.82623e-30)
(5.29039 1.70765 -3.2851e-29)
(5.19192 1.68106 1.41334e-31)
(5.26532 1.71508 -1.01768e-29)
(5.29308 1.73369 -2.68676e-28)
(5.33132 1.74741 -3.86827e-29)
(5.37986 1.76609 4.2087e-31)
(5.44831 1.7863 2.30046e-29)
(5.50319 1.80291 -9.50731e-32)
(5.49962 1.80613 -3.50929e-31)
(5.60315 1.83676 -2.00187e-31)
(5.678 1.84549 1.8221e-29)
(5.60257 1.8225 1.59042e-29)
(5.70103 1.85402 0)
(5.76023 1.87326 0)
(5.86211 1.90205 -2.71654e-31)
(5.85291 1.8939 -5.3265e-31)
(5.91033 1.9161 -7.78246e-29)
(5.95255 1.92905 2.71414e-35)
(5.98135 1.93922 1.4518e-29)
(6.07321 1.96391 -1.32444e-29)
(6.14303 1.98402 -3.96641e-30)
(4.08476 1.3204 0)
(4.11651 1.33182 0)
(4.17957 1.35037 3.07095e-28)
(4.20548 1.35958 2.01891e-28)
(4.20216 1.35845 0)
(4.29168 1.3857 2.24588e-34)
(4.31959 1.39583 2.58791e-28)
(4.36859 1.41749 -5.25125e-33)
(4.32659 1.40592 1.56398e-28)
(4.4595 1.448 4.87295e-28)
(4.49112 1.45839 1.39371e-28)
(4.55249 1.47869 2.71945e-29)
(4.55823 1.48141 1.29809e-28)
(4.64131 1.50883 -1.31127e-28)
(4.66938 1.51678 0)
(4.72114 1.53411 2.39365e-29)
(4.72226 1.53312 4.48791e-29)
(4.77048 1.54758 6.96122e-34)
(4.7873 1.551 6.77606e-29)
(4.8116 1.56068 0)
(4.8343 1.56933 1.3276e-28)
(4.87894 1.58209 6.31418e-33)
(4.90838 1.59364 1.28973e-28)
(4.8239 1.56508 -7.02917e-32)
(4.96407 1.60704 -2.65426e-32)
(4.98706 1.61611 6.85575e-30)
(5.0263 1.62923 3.79292e-29)
(5.01594 1.62727 -7.39355e-29)
(5.08078 1.64768 5.41833e-29)
(5.09631 1.6512 0)
(5.11967 1.65989 0)
(5.1429 1.66851 -1.69932e-28)
(5.18968 1.68271 0)
(5.22047 1.69356 1.28675e-32)
(5.15296 1.67152 9.06838e-32)
(5.27466 1.70837 0)
(5.29548 1.71522 2.17262e-29)
(5.33339 1.72881 0)
(5.33065 1.72964 7.32464e-29)
(5.38248 1.74564 -1.30948e-28)
(5.4156 1.75805 0)
(5.31141 1.72203 -3.7724e-29)
(5.47742 1.7701 1.09237e-28)
(5.51269 1.78507 3.63426e-32)
(5.55272 1.79968 -8.25911e-30)
(5.54242 1.79836 -7.2844e-29)
(5.59452 1.81425 0)
(5.63496 1.83281 0)
(5.53072 1.79081 -1.01681e-28)
(5.70541 1.83164 -6.47469e-32)
(5.7383 1.85034 -3.72154e-29)
(5.77752 1.86473 -7.83586e-29)
(5.77652 1.86743 0)
(5.8335 1.88311 -1.76839e-29)
(5.86859 1.89732 -7.60573e-29)
(5.78324 1.87308 0)
(5.86327 1.9055 -6.10009e-29)
(5.88396 1.92322 -6.22477e-29)
(5.88974 1.92466 1.00911e-28)
(5.97955 1.95333 -2.98599e-35)
(6.03946 1.97365 1.76272e-31)
(6.08532 1.98901 -3.60075e-29)
(6.10496 1.99582 -2.97923e-31)
(6.20155 2.02292 -1.1886e-29)
(6.26657 2.0356 8.38892e-32)
(6.21026 2.01605 -1.36724e-29)
(6.31514 2.0465 1.9121e-31)
(6.36967 2.06621 -2.91322e-29)
(6.28658 2.03535 2.24581e-29)
(6.46005 2.085 4.57818e-30)
(6.5211 2.11101 0)
(6.53433 2.11384 -5.24013e-30)
(6.60001 2.13212 -4.08192e-30)
(6.68227 2.15609 -4.01371e-30)
(6.72647 2.17153 -3.29126e-29)
(4.14547 1.33871 -3.03449e-28)
(4.14152 1.33879 1.50266e-28)
(4.20345 1.35671 -1.68752e-28)
(4.231 1.36632 -2.89247e-32)
(4.35005 1.40536 -3.84877e-29)
(4.31963 1.39415 -4.43081e-29)
(4.34731 1.40431 0)
(4.39854 1.42701 5.29715e-33)
(4.4315 1.43974 1.76488e-31)
(4.49029 1.45762 -5.01072e-34)
(4.52142 1.46778 0)
(4.58653 1.48943 -1.34042e-29)
(4.60607 1.4968 -1.54294e-32)
(4.67276 1.51864 7.87614e-29)
(4.70148 1.52644 0)
(4.76469 1.54778 5.00099e-29)
(4.76119 1.54539 0)
(4.80379 1.55753 -7.27981e-29)
(4.8221 1.56113 0)
(4.9065 1.59059 0)
(4.87236 1.58129 2.18049e-29)
(4.91429 1.59259 -2.45709e-32)
(4.94703 1.60543 -6.75091e-30)
(4.9788 1.61442 7.03906e-32)
(5.00358 1.61848 0)
(5.02506 1.62766 0)
(5.07379 1.64418 0)
(5.07069 1.64433 -3.96223e-29)
(5.12169 1.66019 1.18669e-28)
(5.13796 1.66376 7.49992e-29)
(5.21686 1.69075 5.56591e-29)
(5.18942 1.68295 0)
(5.2317 1.69572 1.75604e-28)
(5.26675 1.70807 -2.84796e-36)
(5.28161 1.71247 9.30089e-32)
(5.32014 1.72177 0)
(5.33994 1.72857 0)
(5.40019 1.74991 3.85596e-29)
(5.38646 1.74699 1.53869e-28)
(5.43008 1.76033 -2.56507e-32)
(5.46407 1.77507 0)
(5.52221 1.78925 0)
(5.52897 1.78352 -8.13355e-29)
(5.56086 1.79917 6.61214e-30)
(5.62129 1.82133 4.06281e-29)
(5.60616 1.81823 -7.9544e-29)
(5.64819 1.8309 2.26251e-28)
(5.68951 1.84981 3.11357e-28)
(5.75655 1.86219 -1.19697e-28)
(5.76116 1.84679 1.39349e-31)
(5.79043 1.86497 -2.02648e-30)
(5.86373 1.89125 9.20124e-30)
(5.83952 1.88667 0)
(5.88598 1.89828 -1.21889e-29)
(5.92937 1.91617 0)
(5.91374 1.91544 2.83859e-31)
(5.92946 1.92666 1.75971e-31)
(5.95148 1.94378 4.43992e-35)
(6.07545 1.98356 -2.23609e-30)
(6.04773 1.97475 -3.03097e-29)
(6.10151 1.99295 9.78394e-30)
(6.17723 2.01772 -1.97507e-29)
(6.18649 2.02125 0)
(6.26366 2.04125 7.29534e-29)
(6.33662 2.05729 -6.91058e-29)
(6.33758 2.05613 -2.36689e-29)
(6.3855 2.06777 0)
(6.44042 2.0909 -2.91552e-28)
(6.51537 2.10661 1.51863e-29)
(6.53328 2.10328 -1.98186e-28)
(6.59027 2.12948 -1.4993e-29)
(6.72074 2.17122 -3.15722e-30)
(6.67473 2.15387 -6.70123e-30)
(6.74676 2.17249 0)
(6.85472 2.20847 3.33279e-30)
(4.47983 1.4455 4.67164e-29)
(4.50552 1.45592 -2.85224e-28)
(4.57373 1.47483 1.18846e-32)
(4.60207 1.48372 -1.92902e-32)
(4.67396 1.50894 -1.22554e-31)
(4.70332 1.51771 -3.51027e-28)
(4.73129 1.52725 -5.47336e-28)
(4.78711 1.55119 -3.86294e-28)
(4.79689 1.55669 1.95441e-28)
(4.88561 1.58437 4.97845e-34)
(4.91698 1.59434 0)
(4.98452 1.617 1.496e-28)
(5.00245 1.62374 1.53512e-32)
(5.07809 1.6485 1.92376e-32)
(5.10694 1.65631 9.75738e-30)
(5.16889 1.67781 4.02016e-31)
(5.17321 1.67817 -3.14069e-32)
(5.22077 1.69159 -2.30477e-29)
(5.23906 1.69426 1.52598e-36)
(5.29736 1.71636 2.3488e-32)
(5.29497 1.71803 1.35658e-35)
(5.33964 1.72923 7.45058e-29)
(5.37247 1.74137 -2.24114e-29)
(5.37021 1.7404 -3.71948e-29)
(5.43459 1.75726 -1.18395e-32)
(5.45603 1.76578 0)
(5.50452 1.78257 0)
(5.50249 1.78309 -1.2363e-28)
(5.56087 1.80111 9.42757e-32)
(5.57701 1.80389 2.69226e-28)
(5.63139 1.8238 5.36727e-32)
(5.6312 1.82584 -3.33252e-28)
(5.67676 1.83857 3.93273e-28)
(5.71238 1.85026 0)
(5.70072 1.84702 -1.62841e-29)
(5.77135 1.86675 -1.06022e-29)
(5.79142 1.87284 1.33074e-32)
(5.84473 1.89261 6.49277e-32)
(5.83984 1.89295 1.51945e-28)
(5.8909 1.90819 1.68413e-28)
(5.92551 1.9198 0)
(5.97948 1.93572 -1.52823e-31)
(5.9921 1.93364 -1.00009e-31)
(6.02398 1.94677 0)
(6.07882 1.96809 2.92209e-29)
(6.06983 1.96742 -1.44775e-28)
(6.12248 1.98299 -3.37666e-32)
(6.16402 1.9981 2.46763e-28)
(6.22489 2.01164 9.41768e-29)
(6.23513 2.00019 3.36391e-29)
(6.26455 2.01506 2.76687e-32)
(6.32453 2.03827 -7.34184e-32)
(6.31479 2.03942 -4.33946e-31)
(6.36638 2.05132 -1.05525e-29)
(6.40746 2.06852 0)
(6.37086 2.06292 2.81292e-31)
(6.41903 2.08543 -3.76501e-36)
(6.44427 2.09964 8.08782e-29)
(6.50389 2.12039 -1.40466e-29)
(6.53321 2.13174 -1.47957e-28)
(6.58982 2.14861 7.03594e-29)
(6.65655 2.17076 6.24143e-30)
(6.67467 2.17678 2.43112e-29)
(6.75835 2.19801 6.68272e-29)
(6.82715 2.21301 0)
(6.81267 2.20752 -5.83473e-29)
(6.89134 2.2288 0)
(6.9487 2.24633 2.62285e-29)
(7.0172 2.26529 3.31672e-35)
(7.03701 2.26543 -3.72796e-31)
(7.09453 2.28582 1.67882e-29)
(7.16571 2.31146 -1.32109e-29)
(7.17654 2.31454 -3.68994e-29)
(7.25158 2.3292 -1.23796e-29)
(7.3287 2.35679 -1.57631e-31)
(4.74156 1.5276 0)
(4.79795 1.54793 8.91999e-29)
(4.87313 1.56908 1.09812e-28)
(4.90221 1.57885 2.88529e-32)
(4.94397 1.59436 -1.69406e-28)
(5.01837 1.61703 2.33433e-28)
(5.04678 1.62742 -1.16585e-27)
(5.10658 1.65346 -1.28592e-27)
(5.098 1.65248 -3.1788e-28)
(5.21568 1.68869 0)
(5.24705 1.6993 -4.59445e-33)
(5.31545 1.72257 -2.58278e-31)
(5.33356 1.72918 1.45078e-32)
(5.41793 1.75658 -8.32311e-29)
(5.44696 1.76463 5.13411e-29)
(5.50507 1.78534 -3.4852e-29)
(5.51887 1.7887 -5.86324e-29)
(5.57145 1.80355 -7.01274e-30)
(5.58964 1.80632 0)
(5.62066 1.81981 0)
(5.65117 1.83147 1.01091e-28)
(5.69868 1.8437 9.01116e-29)
(5.73031 1.8572 3.24934e-28)
(5.69283 1.84359 -2.40104e-29)
(5.79852 1.87212 -1.24879e-32)
(5.82034 1.88205 1.81356e-29)
(5.86647 1.89848 0)
(5.86719 1.89953 -1.7286e-28)
(5.93223 1.91936 -8.80839e-30)
(5.94841 1.92283 1.41528e-28)
(5.97648 1.93411 2.51411e-30)
(6.00651 1.94496 -2.25642e-28)
(6.05363 1.95885 2.09768e-28)
(6.08643 1.97127 1.44839e-32)
(6.05182 1.95914 -2.67191e-29)
(6.15342 1.98726 2.98224e-29)
(6.17416 1.9948 0)
(6.21697 2.01168 -2.53639e-29)
(6.22431 2.01544 -1.52963e-31)
(6.28013 2.03211 1.86201e-28)
(6.31277 2.04448 -1.98681e-28)
(6.28011 2.03118 2.21913e-35)
(6.38344 2.05704 3.45584e-29)
(6.41695 2.07159 0)
(6.46245 2.09082 3.56311e-29)
(6.46326 2.0927 -1.34711e-28)
(6.52301 2.11013 -2.77548e-28)
(6.56206 2.12577 2.24897e-28)
(6.52856 2.1076 1.50585e-31)
(6.63523 2.12581 4.08874e-32)
(6.66672 2.14234 3.2163e-29)
(6.7084 2.1603 -1.80467e-29)
(6.71754 2.16676 0)
(6.77401 2.17992 0)
(6.81025 2.19893 0)
(6.75875 2.18726 2.45999e-29)
(6.83529 2.2171 1.16224e-28)
(6.8588 2.23323 2.84594e-28)
(6.87546 2.23853 -3.6352e-29)
(6.94966 2.26266 -4.97207e-29)
(7.00557 2.28093 3.44709e-29)
(7.05682 2.29804 0)
(7.08924 2.30731 6.9135e-29)
(7.17713 2.32963 6.94812e-29)
(7.23775 2.34402 0)
(7.21539 2.33457 -3.28087e-29)
(7.32005 2.36212 0)
(7.3743 2.38135 1.71956e-28)
(7.35432 2.37077 -2.78344e-31)
(7.46052 2.39677 1.5794e-29)
(7.51958 2.42011 0)
(7.54699 2.43108 -2.32127e-29)
(7.60329 2.44664 0)
(7.67989 2.46224 4.27819e-30)
(7.72425 2.47993 1.62712e-31)
(4.79043 1.54254 5.23561e-32)
(4.81952 1.55425 2.0124e-29)
(4.89352 1.57513 2.09257e-29)
(4.92415 1.58514 -9.61142e-33)
(5.03148 1.62168 -1.40146e-28)
(5.04271 1.6244 2.45744e-28)
(5.07176 1.63515 -1.44059e-27)
(5.13396 1.66193 -5.49495e-28)
(5.18253 1.67878 -5.49432e-28)
(5.24287 1.69662 3.52955e-28)
(5.27447 1.70749 0)
(5.34678 1.73207 2.82781e-31)
(5.37776 1.74254 -1.46533e-32)
(5.44562 1.76465 -1.46956e-28)
(5.47544 1.7731 -2.25284e-30)
(5.54488 1.79763 0)
(5.55404 1.79969 9.27369e-32)
(5.60082 1.81251 -7.21962e-29)
(5.62051 1.81547 3.17657e-29)
(5.7001 1.84481 9.11626e-36)
(5.68519 1.84211 1.36557e-28)
(5.72989 1.85328 1.78315e-28)
(5.76486 1.8674 1.47651e-29)
(5.8074 1.87978 2.05599e-30)
(5.8335 1.88241 -1.30574e-32)
(5.85427 1.89232 6.65606e-29)
(5.90987 1.91192 -3.23146e-32)
(5.91712 1.91488 -1.09507e-31)
(5.96792 1.93017 -3.40184e-32)
(5.98551 1.93404 1.56419e-28)
(6.06027 1.96035 1.98741e-29)
(6.04828 1.95768 0)
(6.09127 1.9705 2.86542e-28)
(6.12847 1.98409 0)
(6.15796 1.99244 -1.79667e-31)
(6.1939 1.99921 4.635e-29)
(6.21391 2.00669 -1.19954e-30)
(6.27817 2.03069 1.81626e-32)
(6.27497 2.03084 1.54012e-31)
(6.32248 2.04489 2.22248e-28)
(6.35742 2.05844 1.07682e-31)
(6.40661 2.07081 1.53806e-31)
(6.42866 2.06972 -3.06699e-29)
(6.45973 2.08399 -1.05763e-29)
(6.52472 2.11004 4.89751e-29)
(6.52112 2.11028 -1.0249e-28)
(6.56998 2.12413 0)
(6.61185 2.14105 2.33653e-28)
(6.66206 2.14892 -8.71681e-29)
(6.68397 2.13955 1.22287e-28)
(6.71302 2.15528 -2.55367e-31)
(6.78582 2.18391 -4.02079e-29)
(6.77464 2.18383 -4.41376e-31)
(6.82048 2.19358 -9.81411e-36)
(6.86524 2.21538 -3.75153e-29)
(6.87057 2.22294 2.9849e-29)
(6.89386 2.23527 1.00876e-28)
(6.9197 2.25141 -1.08191e-32)
(7.01133 2.28035 0)
(7.01357 2.28156 0)
(7.06412 2.2982 7.38222e-29)
(7.14264 2.32347 -2.18862e-29)
(7.16488 2.32899 1.98157e-29)
(7.23519 2.34596 0)
(7.30448 2.36356 0)
(7.32729 2.36782 1.70922e-29)
(7.38123 2.37885 -1.68116e-28)
(7.43666 2.39952 0)
(7.493 2.41249 0)
(7.52082 2.41237 0)
(7.57669 2.4346 -1.14605e-31)
(7.68055 2.47054 -1.57677e-31)
(7.66784 2.46414 0)
(7.73633 2.47633 0)
(7.83313 2.51031 1.62568e-31)
(4.99055 1.60332 -1.20396e-35)
(5.04866 1.6247 2.42916e-28)
(5.12988 1.64781 1.1914e-32)
(5.16091 1.65769 -1.92365e-32)
(5.24184 1.68694 -3.75294e-28)
(5.29446 1.70305 3.18359e-33)
(5.32633 1.71445 -7.84035e-28)
(5.39448 1.74294 2.59712e-33)
(5.42034 1.75302 -3.32756e-28)
(5.51175 1.78068 3.6693e-28)
(5.54485 1.79184 4.88158e-33)
(5.61883 1.81711 -3.00482e-31)
(5.6461 1.82661 0)
(5.72568 1.8524 -1.51855e-28)
(5.75572 1.86087 -5.27633e-30)
(5.82074 1.88445 0)
(5.83634 1.88899 7.3018e-29)
(5.88884 1.90339 -6.95318e-29)
(5.90818 1.90575 5.82357e-31)
(5.95957 1.9268 -4.6875e-32)
(5.97699 1.93463 1.80107e-28)
(6.02531 1.94632 1.83014e-28)
(6.05927 1.96037 1.51106e-28)
(6.07115 1.96325 -2.35223e-29)
(6.13266 1.97695 0)
(6.15448 1.98677 -7.41306e-29)
(6.20828 2.00604 0)
(6.21488 2.0089 1.71465e-28)
(6.27428 2.02672 -3.29597e-32)
(6.29185 2.03032 -4.08355e-32)
(6.33992 2.04851 -1.4986e-30)
(6.35665 2.05531 -1.23606e-31)
(6.4038 2.06897 6.09498e-28)
(6.43989 2.08195 -3.14146e-32)
(6.44155 2.08191 -3.49883e-31)
(6.5081 2.09827 6.08491e-29)
(6.52909 2.10547 1.06554e-30)
(6.58339 2.12682 4.35448e-30)
(6.58951 2.13016 0)
(6.64479 2.14618 2.22493e-28)
(6.67901 2.15813 1.55576e-28)
(6.73416 2.17396 -1.53031e-31)
(6.75063 2.17181 -1.07651e-31)
(6.78246 2.18467 -2.16203e-29)
(6.83836 2.20867 -2.18466e-30)
(6.84078 2.21106 1.51875e-31)
(6.89992 2.22729 2.76447e-28)
(6.94121 2.24317 -3.89049e-32)
(6.96614 2.24419 0)
(7.01228 2.24285 1.43215e-28)
(7.0426 2.25753 -1.65848e-29)
(7.09782 2.2815 -3.9228e-29)
(7.10162 2.28682 2.18406e-31)
(7.15417 2.29753 0)
(7.19525 2.31943 -5.55379e-29)
(7.18006 2.32089 -5.49293e-31)
(7.23607 2.34344 3.79023e-36)
(7.26514 2.35917 -9.42481e-29)
(7.31226 2.3742 -1.40793e-31)
(7.35597 2.38873 5.05731e-29)
(7.41 2.40559 1.98578e-28)
(7.47436 2.42621 -6.47235e-29)
(7.50423 2.4339 -2.8508e-31)
(7.58329 2.45311 -1.76755e-31)
(7.64586 2.4692 -5.59661e-30)
(7.64858 2.4675 2.95498e-29)
(7.72764 2.4855 -1.67589e-28)
(7.78248 2.50469 0)
(7.84775 2.52246 0)
(7.86691 2.52038 5.77501e-29)
(7.92318 2.53957 -3.67958e-30)
(7.98331 2.56345 -1.64566e-31)
(8.0132 2.57094 -3.16171e-30)
(8.08561 2.58109 2.36243e-31)
(8.15116 2.60675 -9.81281e-31)
(5.03224 1.61566 1.05889e-31)
(5.06743 1.63031 -3.94367e-29)
(5.14728 1.65283 -2.38569e-32)
(5.17974 1.66247 3.28777e-28)
(5.31571 1.70942 -1.62934e-28)
(5.31492 1.70945 0)
(5.34803 1.72096 1.08228e-27)
(5.4193 1.74998 5.44162e-28)
(5.49172 1.77487 0)
(5.53423 1.78734 9.89264e-34)
(5.56833 1.79864 -2.62926e-28)
(5.64665 1.82513 -6.17462e-29)
(5.68906 1.83947 3.82705e-28)
(5.7491 1.85916 0)
(5.78028 1.86786 -7.26077e-29)
(5.85605 1.89513 -3.20605e-29)
(5.86895 1.89901 3.62886e-29)
(5.91417 1.91103 -1.71912e-28)
(5.93494 1.91308 6.20227e-29)
(6.0302 1.94876 0)
(6.00728 1.94416 -7.81807e-32)
(6.05215 1.95432 2.09788e-28)
(6.08924 1.9689 2.77355e-28)
(6.16093 1.99132 -6.97778e-32)
(6.16299 1.98633 8.6866e-29)
(6.18355 1.99532 -3.74169e-32)
(6.24606 2.0173 1.2225e-29)
(6.26269 2.0236 1.13208e-28)
(6.30495 2.036 0)
(6.32394 2.03938 -4.39186e-32)
(6.41431 2.07154 -7.43556e-32)
(6.39339 2.06666 -1.27543e-31)
(6.43589 2.07864 4.12635e-28)
(6.47718 2.09273 3.67953e-32)
(6.53375 2.11063 0)
(6.54347 2.10916 -7.27967e-32)
(6.56337 2.11525 -5.97083e-32)
(6.637 2.14309 3.04941e-29)
(6.63606 2.14441 2.99892e-31)
(6.68061 2.15667 4.64529e-32)
(6.71878 2.16847 0)
(6.808 2.19651 1.52598e-31)
(6.78977 2.18452 -4.45791e-29)
(6.8194 2.19493 -6.32816e-32)
(6.89291 2.22504 -1.52479e-32)
(6.89491 2.22755 -1.55795e-31)
(6.93882 2.23845 6.0895e-28)
(6.98401 2.25461 -5.40715e-28)
(7.0709 2.27617 0)
(7.05498 2.25614 1.21199e-28)
(7.08268 2.26816 3.6307e-32)
(7.16631 2.302 -8.1702e-32)
(7.15534 2.30307 -4.41375e-31)
(7.19466 2.30895 -8.37976e-32)
(7.24322 2.33321 -5.70591e-29)
(7.28004 2.35228 2.70311e-31)
(7.28773 2.35912 1.11963e-28)
(7.32041 2.37437 5.61325e-29)
(7.43762 2.41238 0)
(7.41283 2.40609 -1.04556e-31)
(7.46193 2.4202 1.41892e-28)
(7.55219 2.44846 -3.82273e-29)
(7.57595 2.4545 -2.3071e-29)
(7.63551 2.46745 4.91176e-29)
(7.70661 2.48583 -3.41982e-32)
(7.75125 2.49776 4.63248e-30)
(7.77775 2.49903 -1.828e-31)
(7.83322 2.51599 -5.28112e-32)
(7.93569 2.54758 2.72893e-31)
(7.91951 2.53642 9.90064e-29)
(7.97285 2.55041 2.93154e-29)
(8.10448 2.59824 1.11056e-29)
(8.07282 2.58796 -2.28313e-30)
(8.13482 2.5917 0)
(8.24831 2.63272 8.62313e-30)
(5.20087 1.66647 5.27747e-32)
(5.2664 1.69161 -1.16081e-37)
(5.35435 1.71667 2.39908e-32)
(5.38709 1.72553 2.49214e-28)
(5.4782 1.75941 -3.73814e-28)
(5.53286 1.77803 5.28917e-28)
(5.56871 1.78952 9.03325e-28)
(5.64777 1.82058 5.84711e-28)
(5.6909 1.83678 0)
(5.77063 1.86178 2.12969e-33)
(5.80708 1.87301 -1.10495e-28)
(5.88861 1.90059 0)
(5.92239 1.9125 -2.27488e-31)
(6.00045 1.93814 1.24874e-28)
(6.03271 1.94686 -7.06614e-32)
(6.10426 1.97319 -1.37075e-31)
(6.12406 1.98012 -2.27524e-28)
(6.18064 1.99539 3.44316e-33)
(6.20212 1.99664 -1.04661e-28)
(6.26034 2.02136 -3.92542e-29)
(6.27647 2.03033 -3.16996e-28)
(6.32803 2.04152 -9.63256e-36)
(6.36474 2.05411 -1.45465e-31)
(6.39607 2.06553 0)
(6.44339 2.07599 -6.34259e-29)
(6.46573 2.08407 2.65902e-28)
(6.52329 2.10443 -5.10213e-32)
(6.53331 2.1092 0)
(6.59277 2.12712 0)
(6.61316 2.12984 2.74028e-28)
(6.66664 2.15092 -1.48528e-31)
(6.67917 2.15791 -5.00107e-28)
(6.72934 2.17116 -3.20833e-33)
(6.77119 2.18407 -3.9623e-32)
(6.78893 2.1911 0)
(6.84134 2.20424 6.99166e-32)
(6.86397 2.20935 2.85635e-32)
(6.92207 2.23259 -8.44153e-30)
(6.92847 2.23706 0)
(6.98522 2.25252 -2.02027e-28)
(7.02356 2.26241 0)
(7.07055 2.27893 -1.45832e-31)
(7.09612 2.28266 1.03183e-28)
(7.12957 2.29164 5.99863e-32)
(7.18923 2.31781 -1.07723e-29)
(7.19322 2.3218 -2.044e-31)
(7.25241 2.3368 -2.53204e-32)
(7.29687 2.35018 -1.68828e-28)
(7.34661 2.3624 -2.05944e-31)
(7.36899 2.35675 -1.97836e-29)
(7.40077 2.36645 -3.74736e-29)
(7.46013 2.39343 0)
(7.46446 2.40084 2.09531e-31)
(7.51639 2.40978 -1.82556e-29)
(7.56129 2.43085 -3.16179e-29)
(7.5626 2.44123 -2.68988e-31)
(7.61231 2.46249 5.59111e-29)
(7.6514 2.47618 7.20439e-29)
(7.69999 2.49429 -1.46716e-31)
(7.73245 2.50755 -2.38436e-28)
(7.79099 2.52169 -1.344e-28)
(7.86397 2.54449 -4.08783e-29)
(7.88903 2.55182 6.83574e-31)
(7.96627 2.56951 2.15497e-29)
(8.0343 2.58602 -1.45165e-31)
(8.04708 2.58971 -9.13095e-35)
(8.11028 2.60289 5.62333e-36)
(8.16637 2.61585 -6.47736e-29)
(8.22207 2.63547 5.31447e-31)
(8.25194 2.64138 -2.65069e-29)
(8.31076 2.65143 5.31139e-29)
(8.37487 2.68012 2e-29)
(8.40329 2.69109 -6.64205e-31)
(8.47612 2.69379 -3.10352e-35)
(8.54659 2.722 3.48728e-31)
(5.34141 1.70735 5.27297e-32)
(5.43392 1.74103 5.08464e-28)
(5.52837 1.76878 2.61992e-28)
(5.56195 1.77838 6.71491e-29)
(5.62367 1.80289 -5.42237e-28)
(5.71813 1.83388 1.75742e-31)
(5.75535 1.84629 7.61124e-28)
(5.83845 1.87893 9.29542e-28)
(5.85629 1.88724 4.70421e-28)
(5.9737 1.92357 1.01321e-33)
(6.01216 1.93586 1.06213e-32)
(6.09283 1.9634 4.06847e-28)
(6.12483 1.97485 -6.44805e-28)
(6.21733 2.00487 1.88531e-28)
(6.25111 2.01443 -3.64772e-29)
(6.31363 2.03814 -1.09412e-28)
(6.34684 2.04922 1.03053e-31)
(6.41265 2.06761 -3.70731e-29)
(6.43461 2.06941 6.38498e-29)
(6.46271 2.08454 -2.24431e-31)
(6.51374 2.10342 -3.21655e-32)
(6.57076 2.11695 0)
(6.60511 2.13025 6.86116e-32)
(6.59192 2.12661 -1.38568e-31)
(6.69075 2.15223 0)
(6.71481 2.16197 8.80088e-29)
(6.76407 2.17985 1.95724e-31)
(6.77582 2.18479 -2.43355e-28)
(6.84804 2.20641 0)
(6.86915 2.21047 3.15752e-28)
(6.89028 2.2209 -7.46719e-32)
(6.93574 2.23737 -4.22396e-28)
(6.9906 2.25241 -2.06715e-35)
(7.02824 2.26528 -3.28621e-35)
(7.00947 2.25987 3.41245e-31)
(7.10687 2.28595 6.50782e-32)
(7.13203 2.29311 0)
(7.16995 2.31026 2.83674e-29)
(7.19131 2.31868 1.6959e-28)
(7.25788 2.33681 -1.62289e-28)
(7.29392 2.34766 1.99118e-28)
(7.2724 2.3414 0)
(7.37002 2.36662 -8.87803e-32)
(7.40697 2.37771 0)
(7.44772 2.39878 0)
(7.46273 2.40536 1.19315e-28)
(7.53384 2.42324 -1.90204e-28)
(7.5746 2.43742 2.85447e-28)
(7.55258 2.42578 0)
(7.65007 2.44255 -6.9099e-29)
(7.6855 2.45462 7.52594e-30)
(7.71644 2.47312 -1.68928e-31)
(7.74275 2.48644 -4.28783e-31)
(7.80577 2.49846 2.92657e-30)
(7.84154 2.51994 0)
(7.81532 2.51977 0)
(7.9049 2.55191 2.08065e-31)
(7.94274 2.56791 1.93264e-28)
(7.95212 2.57265 -3.01056e-31)
(8.02505 2.59655 -9.06492e-29)
(8.08616 2.61237 -1.97292e-28)
(8.13498 2.62788 -7.73358e-29)
(8.17531 2.63869 6.89323e-29)
(8.26289 2.65917 -3.17151e-31)
(8.31769 2.67387 1.01089e-28)
(8.30852 2.66944 1.45837e-29)
(8.40924 2.69228 -3.56697e-31)
(8.46164 2.7072 -1.28967e-28)
(8.44949 2.70402 -5.12716e-30)
(8.54991 2.7302 -1.05287e-30)
(8.61159 2.74336 -1.09164e-29)
(8.6315 2.75756 -3.91225e-29)
(8.70202 2.77955 1.93187e-29)
(8.78106 2.78479 2.18889e-30)
(8.81386 2.80183 0)
(5.37593 1.71688 -1.06357e-31)
(5.45021 1.74553 2.3057e-28)
(5.54378 1.77359 5.75824e-29)
(5.57826 1.78361 -1.34142e-28)
(5.67413 1.81775 -1.67196e-28)
(5.73662 1.83915 -1.91818e-31)
(5.77305 1.85152 9.63569e-28)
(5.85916 1.88507 -3.68161e-31)
(5.91441 1.90429 3.74352e-28)
(5.99395 1.92905 -8.44191e-34)
(6.03144 1.94125 0)
(6.11771 1.97051 5.87761e-28)
(6.15902 1.98458 0)
(6.23728 2.01029 1.7081e-28)
(6.27062 2.02001 4.3477e-29)
(6.34662 2.0479 -4.95322e-29)
(6.37335 2.0568 3.24558e-29)
(6.43446 2.07408 -1.37708e-28)
(6.45859 2.0769 2.71973e-30)
(6.51934 2.10175 3.59334e-29)
(6.54052 2.11117 0)
(6.59458 2.12421 0)
(6.6329 2.13873 1.849e-28)
(6.67278 2.15142 0)
(6.718 2.15993 -2.48542e-32)
(6.7412 2.16984 -2.83805e-32)
(6.80107 2.19107 2.87191e-28)
(6.81574 2.19668 2.00711e-31)
(6.87519 2.21431 0)
(6.8987 2.21966 4.60748e-28)
(6.95433 2.24037 -7.84416e-32)
(6.9696 2.24707 -1.1991e-31)
(7.01898 2.26083 7.82368e-34)
(7.06225 2.27562 2.93713e-35)
(7.0892 2.28422 -1.7022e-31)
(7.13836 2.2947 -9.46414e-29)
(7.16369 2.30253 0)
(7.22332 2.32638 0)
(7.2319 2.33048 2.38051e-28)
(7.28906 2.34561 4.15422e-32)
(7.33005 2.3587 3.16639e-28)
(7.37105 2.37148 1.44666e-31)
(7.40614 2.37624 8.46164e-29)
(7.44084 2.3874 0)
(7.50214 2.41503 0)
(7.50992 2.41898 -6.737e-29)
(7.56822 2.43273 0)
(7.61419 2.44909 4.71728e-28)
(7.65675 2.45715 0)
(7.68906 2.45298 0)
(7.72249 2.46503 -2.34672e-29)
(7.78142 2.49228 3.33838e-29)
(7.78986 2.49949 2.50756e-29)
(7.8419 2.50877 -1.19371e-29)
(7.88891 2.53387 -7.47952e-29)
(7.90321 2.54627 -5.22566e-31)
(7.95065 2.56451 9.07354e-36)
(7.9912 2.58211 8.17519e-29)
(8.04326 2.59973 -5.63818e-35)
(8.07962 2.61122 -5.29066e-29)
(8.13493 2.62572 -1.20568e-28)
(8.20907 2.6486 -1.29603e-28)
(8.23639 2.65499 3.23619e-29)
(8.30666 2.67026 3.13033e-31)
(8.37286 2.68937 7.29638e-29)
(8.39398 2.69355 -4.24653e-30)
(8.45291 2.70266 1.42573e-28)
(8.50997 2.72039 0)
(8.55804 2.73488 3.08795e-30)
(8.59844 2.74119 5.48399e-31)
(8.65793 2.75534 -2.32915e-31)
(8.71933 2.78096 -3.48042e-29)
(8.75362 2.79053 -1.04874e-30)
(8.82615 2.79573 -3.47933e-29)
(8.89576 2.82253 0)
(5.48948 1.74698 0)
(5.58713 1.78273 2.86813e-28)
(5.68651 1.81343 -2.42694e-32)
(5.72163 1.82384 -1.92457e-32)
(5.79633 1.85227 1.75304e-28)
(5.88953 1.88312 7.20162e-28)
(5.92886 1.89629 -5.22282e-33)
(6.0176 1.93079 -8.30115e-28)
(6.04996 1.94377 3.77988e-28)
(6.16254 1.9783 -4.40364e-28)
(6.20265 1.99129 -1.18294e-32)
(6.28698 2.02022 6.59225e-28)
(6.32507 2.0337 5.75326e-28)
(6.41781 2.06379 0)
(6.45267 2.07414 8.77687e-32)
(6.51851 2.09922 -5.41513e-29)
(6.55687 2.1121 1.46973e-28)
(6.62611 2.13179 0)
(6.64986 2.1348 6.30186e-30)
(6.68608 2.15228 3.09392e-29)
(6.7379 2.17102 -2.75372e-28)
(6.79633 2.18504 -2.20486e-28)
(6.83119 2.19891 2.2495e-28)
(6.83653 2.20112 0)
(6.92354 2.22205 0)
(6.94886 2.23287 0)
(7.00083 2.2517 1.75723e-28)
(7.01754 2.25793 3.62752e-28)
(7.0898 2.27918 9.99203e-29)
(7.11314 2.28517 2.34831e-28)
(7.14161 2.29744 8.17144e-32)
(7.18609 2.31275 0)
(7.24092 2.32796 3.80352e-28)
(7.27846 2.34149 4.67952e-32)
(7.2741 2.3405 -1.69855e-31)
(7.36179 2.36206 -1.06966e-28)
(7.3891 2.37098 0)
(7.42988 2.38929 -3.35956e-29)
(7.45421 2.39793 -2.79938e-31)
(7.51993 2.41486 0)
(7.55666 2.42773 1.53384e-28)
(7.55409 2.42685 5.83326e-31)
(7.63676 2.44554 4.3774e-29)
(7.67449 2.45779 0)
(7.71683 2.48031 0)
(7.73612 2.48736 -5.84014e-29)
(7.80645 2.50378 0)
(7.84711 2.51964 -5.83676e-32)
(7.84387 2.51343 0)
(7.92595 2.524 1.13382e-28)
(7.96241 2.53714 -2.14144e-29)
(7.99524 2.55704 3.4466e-29)
(8.02307 2.56954 -1.03289e-31)
(8.08654 2.58173 -2.22515e-29)
(8.12367 2.60543 3.76359e-32)
(8.11385 2.6097 0)
(8.19923 2.63887 0)
(8.2408 2.65742 0)
(8.26396 2.66605 0)
(8.32986 2.68546 -6.82673e-29)
(8.39029 2.70112 -1.16791e-28)
(8.44041 2.71725 5.84637e-32)
(8.47778 2.72611 1.71051e-29)
(8.5589 2.74369 5.89701e-29)
(8.61036 2.76038 -5.30081e-32)
(8.61115 2.7578 1.30617e-30)
(8.70329 2.77528 1.50419e-28)
(8.75602 2.79326 -9.36789e-29)
(8.76301 2.79489 5.54153e-31)
(8.84792 2.81336 5.53817e-31)
(8.90958 2.82882 0)
(8.93861 2.84507 -3.62117e-31)
(9.00417 2.86214 3.84229e-30)
(9.08205 2.86859 -2.44368e-29)
(9.12007 2.88712 0)
(5.51933 1.75481 1.07424e-31)
(5.60224 1.78708 2.68135e-31)
(5.70153 1.81843 2.43525e-32)
(5.7382 1.82943 -1.92596e-32)
(5.83787 1.86413 1.79058e-28)
(5.90691 1.88831 3.37617e-28)
(5.94583 1.90155 -9.28063e-28)
(6.03759 1.93656 8.71595e-28)
(6.10063 1.95817 3.86667e-28)
(6.18154 1.98359 -4.43902e-28)
(6.22115 1.99658 0)
(6.3109 2.02693 3.64956e-28)
(6.35809 2.04302 5.55612e-28)
(6.43688 2.0691 5.5923e-36)
(6.47127 2.07955 -4.68786e-29)
(6.54987 2.10838 -5.77724e-29)
(6.58261 2.11962 1.07628e-28)
(6.64738 2.13823 -1.64813e-33)
(6.67354 2.14224 -1.64557e-29)
(6.73614 2.16726 2.23763e-29)
(6.76341 2.17819 -1.2216e-28)
(6.81964 2.19224 -2.31559e-28)
(6.85862 2.20732 -1.59874e-31)
(6.90575 2.22206 9.03963e-30)
(6.95021 2.22981 0)
(6.97409 2.24049 3.03217e-32)
(7.03715 2.26267 7.1416e-32)
(7.05682 2.26963 -2.11575e-31)
(7.11639 2.28702 1.06486e-28)
(7.14251 2.29428 0)
(7.19942 2.3148 5.84199e-29)
(7.2182 2.32217 -4.20525e-35)
(7.26889 2.33641 3.9845e-28)
(7.31234 2.35171 0)
(7.3461 2.36222 -3.33699e-31)
(7.39288 2.37083 -1.13695e-28)
(7.42057 2.38032 4.25797e-29)
(7.48138 2.4047 -4.9031e-29)
(7.4939 2.40961 -1.30293e-31)
(7.55077 2.42364 -1.85756e-28)
(7.59268 2.43851 0)
(7.63654 2.45159 0)
(7.6724 2.45528 -5.31447e-29)
(7.70823 2.46743 -1.21478e-31)
(7.76964 2.49592 0)
(7.78206 2.50056 4.74095e-29)
(7.84006 2.51304 0)
(7.88666 2.53103 -2.33515e-28)
(7.93144 2.53929 -7.55921e-30)
(7.96444 2.53449 -1.50151e-31)
(7.99935 2.54758 -1.48698e-31)
(8.05742 2.57516 -4.17759e-29)
(8.06957 2.58242 -2.56146e-29)