/*--------------------------------*- C++ -*----------------------------------*\
| =========                 |                                                 |
| \\      /  F ield         | OpenFOAM: The Open Source CFD Toolbox           |
|  \\    /   O peration     | Version:  v2012                                 |
|   \\  /    A nd           | Website:  www.openfoam.com                      |
|    \\/     M anipulation  |                                                 |
\*---------------------------------------------------------------------------*/
FoamFile
{
    version     2.0;
    format      ascii;
    class       volVectorField;
    location    "1e-06";
    object      UMean;
}
// * * * * * * * * * * * * * * * * * * * * * * * * * * * * * * * * * * * * * //

dimensions      [0 1 -1 0 0 0 0];


internalField   nonuniform List<vector> 
10193
(
(3.32837 1.07863 -3.65531e-27)
(3.3116 1.07453 2.87574e-27)
(3.29416 1.06776 3.5053e-27)
(3.36544 1.09059 -3.5564e-27)
(3.37055 1.0914 1.45656e-30)
(3.44915 1.11622 0)
(3.41105 1.10379 -5.1652e-29)
(3.52805 1.14385 0)
(3.57558 1.1624 -1.54235e-30)
(3.60371 1.17254 -4.38002e-27)
(3.59211 1.16737 0)
(3.71432 1.2062 5.4579e-27)
(3.76444 1.2243 0)
(3.75147 1.22145 0)
(3.75868 1.22233 1.3458e-27)
(3.86618 1.2577 -1.44921e-33)
(3.86638 1.25714 6.72102e-30)
(3.82733 1.2441 0)
(3.86354 1.25434 0)
(3.96311 1.28722 0)
(3.93654 1.28028 0)
(3.89636 1.2659 -7.15709e-28)
(3.9864 1.29401 1.10469e-27)
(3.99159 1.29659 4.05103e-28)
(4.02429 1.30734 -1.31665e-29)
(4.0028 1.29914 -7.09899e-29)
(4.10972 1.33311 0)
(4.13193 1.34193 1.34917e-29)
(4.10026 1.33193 4.27713e-28)
(4.12229 1.33736 -2.14854e-28)
(4.22388 1.37073 -3.96998e-29)
(4.20582 1.36645 -5.4234e-28)
(4.16356 1.35195 1.36313e-29)
(4.25874 1.3811 2.76524e-29)
(4.28189 1.3903 1.21681e-28)
(4.28514 1.39222 -2.77713e-28)
(4.27526 1.38714 -1.39e-29)
(4.38767 1.42341 1.70547e-28)
(4.38714 1.42516 -2.54877e-28)
(4.34158 1.41014 -2.83709e-29)
(4.41787 1.43725 -1.4446e-29)
(4.1764 1.35584 -1.11587e-29)
(4.47304 1.4485 6.06879e-28)
(4.45979 1.44698 3.77532e-29)
(4.57666 1.48446 -1.52422e-29)
(4.58137 1.48822 0)
(4.53325 1.47244 0)
(4.62054 1.50209 -4.79449e-28)
(4.37663 1.41964 -3.37292e-29)
(4.67221 1.50913 1.12839e-27)
(4.66441 1.5088 -7.17273e-28)
(4.78834 1.54853 8.50575e-28)
(4.78023 1.54899 1.73471e-29)
(4.73185 1.53184 2.73586e-28)
(4.83131 1.56185 0)
(4.83241 1.56568 0)
(4.7904 1.55923 0)
(4.82501 1.57653 -8.32888e-28)
(4.92069 1.60861 -8.67983e-28)
(4.96423 1.62513 -1.06821e-27)
(4.95894 1.62196 1.81711e-27)
(5.09328 1.6639 7.86051e-28)
(5.12147 1.6769 1.20937e-27)
(5.11195 1.67148 3.10046e-33)
(5.23439 1.69873 3.16853e-28)
(5.24056 1.7021 -5.3534e-28)
(5.20913 1.69275 -5.88303e-28)
(5.28029 1.71886 -1.01288e-27)
(5.05516 1.64012 -3.1128e-33)
(5.36569 1.73542 2.49291e-29)
(5.39268 1.74813 -3.2195e-28)
(5.49715 1.78129 -1.80089e-28)
(5.51806 1.78992 1.08925e-28)
(5.53538 1.79392 5.59563e-29)
(5.68492 1.84549 4.65306e-28)
(3.63608 1.17511 0)
(3.6451 1.17986 -3.05561e-30)
(3.70778 1.19826 -2.94371e-30)
(3.72966 1.20507 -5.70264e-27)
(3.75658 1.21485 -1.45388e-30)
(3.80399 1.23036 0)
(3.83638 1.24097 -6.44987e-28)
(3.88112 1.25979 3.62155e-31)
(3.83277 1.24836 0)
(3.96155 1.29092 -1.31335e-26)
(3.99779 1.30103 -5.49304e-27)
(4.0556 1.31915 -5.95551e-29)
(4.05255 1.32032 -6.3714e-27)
(4.13684 1.34807 2.21871e-27)
(4.16668 1.35537 1.18208e-27)
(4.21688 1.37112 -1.10714e-28)
(4.20623 1.36646 -5.09155e-28)
(4.25635 1.38189 1.31363e-29)
(4.2728 1.38458 -1.82402e-27)
(4.31431 1.39953 0)
(4.30933 1.40035 -3.85664e-28)
(4.35724 1.41377 -1.19642e-27)
(4.38484 1.42196 1.44005e-27)
(4.29949 1.39559 0)
(4.43093 1.43806 0)
(4.45787 1.44588 -3.2882e-28)
(4.49445 1.45726 -2.35191e-28)
(4.47263 1.45253 -1.33898e-29)
(4.5402 1.4745 5.6195e-28)
(4.55818 1.47767 1.32417e-29)
(4.59665 1.49124 2.48937e-33)
(4.59219 1.49212 -1.92585e-27)
(4.64466 1.50769 1.34985e-29)
(4.67568 1.51584 2.74834e-29)
(4.59853 1.493 2.2722e-28)
(4.71832 1.53198 1.39945e-29)
(4.74351 1.53784 -1.43477e-28)
(4.78472 1.55161 5.01359e-29)
(4.76495 1.54798 -2.8344e-29)
(4.82098 1.56562 2.59226e-28)
(4.85615 1.57802 -2.85876e-29)
(4.93997 1.60295 2.6545e-30)
(4.91173 1.58929 6.56062e-28)
(4.94945 1.60442 3.58341e-28)
(4.991 1.61813 1.41817e-28)
(4.96361 1.61248 0)
(5.0209 1.63058 0)
(5.06814 1.64838 0)
(4.99339 1.6183 0)
(5.12656 1.64941 2.29376e-27)
(5.16353 1.66606 -1.65699e-29)
(5.2115 1.68194 1.34756e-27)
(5.18874 1.67927 0)
(5.2509 1.69661 1.07009e-27)
(5.28882 1.70715 6.65085e-28)
(5.18645 1.67954 1.74764e-29)
(5.26467 1.71491 6.29317e-28)
(5.29272 1.73298 -2.62159e-27)
(5.32997 1.74672 -1.39199e-27)
(5.3767 1.76468 5.38189e-29)
(5.44775 1.78581 1.45437e-27)
(5.50223 1.80226 -7.49684e-29)
(5.49595 1.80463 1.72395e-27)
(5.60332 1.83614 -4.10933e-29)
(5.678 1.84545 -6.97663e-28)
(5.59776 1.82083 9.20264e-28)
(5.70155 1.85434 0)
(5.76173 1.87386 0)
(5.87279 1.90528 -4.80036e-29)
(5.85188 1.89328 -9.85719e-29)
(5.91235 1.91648 -4.18452e-28)
(5.95394 1.92932 6.26152e-33)
(5.98067 1.93877 1.12585e-28)
(6.07562 1.96458 1.73302e-28)
(6.14496 1.98494 9.57984e-28)
(4.08778 1.32115 0)
(4.12274 1.33366 0)
(4.1863 1.35234 -4.96249e-27)
(4.21021 1.3609 -4.44984e-27)
(4.20566 1.35946 0)
(4.29855 1.38789 -8.9272e-32)
(4.32544 1.39784 -3.95527e-28)
(4.37455 1.41915 -1.44144e-30)
(4.33126 1.40754 -5.00856e-27)
(4.46678 1.45066 -4.42126e-27)
(4.49793 1.46064 -4.58074e-27)
(4.55896 1.48075 -4.80498e-27)
(4.56466 1.48358 -5.02287e-27)
(4.64892 1.51151 1.56502e-27)
(4.67665 1.51908 0)
(4.7279 1.53626 2.53964e-30)
(4.72959 1.53545 -4.656e-28)
(4.7788 1.55024 6.55814e-30)
(4.79515 1.55344 -1.64358e-27)
(4.81791 1.56262 0)
(4.84235 1.57191 -1.14487e-27)
(4.88821 1.58503 -6.40082e-30)
(4.9169 1.59611 -3.99489e-28)
(4.82878 1.56659 -1.33081e-29)
(4.97356 1.61019 -2.62687e-29)
(4.99636 1.6191 -2.77397e-28)
(5.0353 1.63208 -5.78723e-29)
(5.02429 1.62989 -4.66688e-28)
(5.09039 1.65084 -2.58407e-28)
(5.10615 1.65432 0)
(5.128 1.66258 0)
(5.15219 1.6714 -5.08585e-28)
(5.20052 1.68631 0)
(5.23108 1.69674 1.36942e-29)
(5.15982 1.67372 1.41873e-29)
(5.28575 1.71208 0)
(5.30673 1.71879 -2.1412e-28)
(5.34403 1.73223 0)
(5.34071 1.73275 3.26725e-28)
(5.39432 1.74972 1.62169e-28)
(5.42756 1.76171 0)
(5.31446 1.72307 -2.59812e-29)
(5.48996 1.77398 -8.59682e-28)
(5.52515 1.78903 1.84581e-29)
(5.56485 1.80357 3.65836e-30)
(5.55339 1.80175 -3.39474e-28)
(5.60778 1.81895 0)
(5.64845 1.83655 0)
(5.53642 1.79277 -3.91772e-28)
(5.71935 1.83613 -1.66317e-29)
(5.75242 1.85482 1.4823e-27)
(5.79051 1.86873 1.18479e-27)
(5.78903 1.87144 0)
(5.84829 1.88779 5.83771e-28)
(5.88328 1.90157 3.13207e-28)
(5.79335 1.87642 0)
(5.87893 1.91095 4.15995e-28)
(5.89995 1.92795 -1.20001e-27)
(5.90072 1.92835 -2.30334e-27)
(5.99418 1.95837 -5.4223e-33)
(6.05541 1.97895 3.67572e-29)
(6.10135 1.99424 1.24903e-27)
(6.11955 2.00094 -3.9637e-29)
(6.21863 2.02838 1.1742e-27)
(6.28414 2.04132 5.57052e-29)
(6.22286 2.02018 7.92343e-28)
(6.33335 2.05309 4.46177e-29)
(6.38867 2.07195 -5.56779e-28)
(6.29337 2.03751 -1.53263e-28)
(6.47889 2.09114 -1.2307e-28)
(6.54073 2.117 0)
(6.54929 2.11861 1.27178e-28)
(6.61823 2.13813 -1.00352e-28)
(6.70235 2.16244 3.22565e-28)
(6.74486 2.17724 9.52503e-28)
(4.14082 1.33738 -4.80906e-27)
(4.13839 1.33792 4.47305e-27)
(4.20049 1.35583 -6.0443e-27)
(4.22589 1.36477 -4.45919e-30)
(4.34782 1.40466 -1.56212e-27)
(4.31576 1.39294 5.99769e-28)
(4.34247 1.40306 0)
(4.39363 1.42525 1.44498e-30)
(4.42784 1.4385 6.4138e-29)
(4.48588 1.45637 1.49635e-30)
(4.51649 1.46624 0)
(4.5812 1.48773 4.82302e-27)
(4.60106 1.49506 -6.51053e-30)
(4.66789 1.5172 -1.549e-27)
(4.69603 1.5247 0)
(4.75899 1.54599 6.33089e-29)
(4.7556 1.5436 0)
(4.79862 1.55594 -1.15815e-27)
(4.81633 1.55928 0)
(4.90174 1.58913 0)
(4.86622 1.57932 -6.67507e-28)
(4.90915 1.59102 2.56224e-29)
(4.94113 1.60348 -6.3904e-28)
(4.9744 1.61305 1.33094e-29)
(4.99763 1.61665 0)
(5.01915 1.6258 0)
(5.06777 1.64227 0)
(5.06422 1.6422 -2.36156e-28)
(5.1154 1.65825 -8.29859e-29)
(5.13178 1.66181 5.21362e-28)
(5.2119 1.68923 -4.71858e-29)
(5.18226 1.68054 0)
(5.22583 1.69403 -3.05007e-29)
(5.26068 1.70602 -2.51721e-33)
(5.27597 1.71067 1.4187e-29)
(5.31349 1.71976 0)
(5.33367 1.72656 0)
(5.3943 1.7481 2.65086e-29)
(5.37914 1.74451 4.5453e-28)
(5.42378 1.75868 -1.41442e-29)
(5.45791 1.77243 0)
(5.51779 1.78793 0)
(5.52189 1.78144 -1.4806e-27)
(5.55439 1.79711 -5.2115e-28)
(5.61543 1.81953 6.08615e-29)
(5.59865 1.81568 -2.63147e-28)
(5.64197 1.82946 -1.01593e-28)
(5.6836 1.84713 1.04859e-27)
(5.75204 1.86093 -6.19706e-28)
(5.75389 1.84456 3.32917e-29)
(5.78433 1.86305 3.70158e-27)
(5.85847 1.88953 1.40216e-27)
(5.83188 1.88424 0)
(5.87979 1.8963 -7.22604e-28)
(5.92347 1.91404 0)
(5.90755 1.91363 3.51399e-29)
(5.92338 1.9252 6.74408e-29)
(5.94636 1.94156 3.30767e-29)
(6.07349 1.98287 -1.06935e-27)
(6.04006 1.9723 -1.09461e-27)
(6.09567 1.9911 -1.13688e-27)
(6.17315 2.01647 2.40439e-27)
(6.17987 2.01907 0)
(6.25814 2.03905 1.06617e-27)
(6.33216 2.05597 7.51218e-28)
(6.33215 2.05424 -6.33367e-28)
(6.38018 2.06671 0)
(6.43674 2.08807 -8.86922e-28)
(6.51265 2.10566 -6.90135e-29)
(6.52678 2.10162 -1.40058e-27)
(6.58631 2.12805 -5.92413e-29)
(6.72087 2.17123 -6.88828e-29)
(6.66782 2.15166 1.81619e-28)
(6.7426 2.17103 0)
(6.8534 2.20809 1.13054e-27)
(4.47859 1.4451 -4.07483e-27)
(4.50644 1.4561 3.32079e-27)
(4.57487 1.47518 -2.93848e-30)
(4.60115 1.48357 -2.97143e-30)
(4.67414 1.50895 -6.16325e-29)
(4.70406 1.51776 -3.74671e-28)
(4.73099 1.52744 7.04854e-28)
(4.78677 1.55089 -4.63423e-27)
(4.79692 1.5566 5.62689e-27)
(4.88614 1.58463 -1.48692e-30)
(4.91703 1.59436 0)
(4.98417 1.61685 1.05451e-26)
(5.0024 1.62355 6.47193e-30)
(5.0785 1.64875 4.20032e-29)
(5.10689 1.65627 8.74685e-28)
(5.1685 1.6777 -2.7378e-28)
(5.17318 1.67811 -1.33623e-29)
(5.22131 1.69178 -1.0777e-27)
(5.23906 1.69429 1.30001e-33)
(5.29746 1.71641 6.51421e-30)
(5.29497 1.71789 2.61781e-33)
(5.34064 1.72958 1.39486e-27)
(5.37259 1.74147 -7.73054e-28)
(5.37012 1.74033 4.4109e-28)
(5.43519 1.75736 -1.31289e-29)
(5.45655 1.76599 0)
(5.50483 1.78268 0)
(5.50237 1.78292 -4.51586e-28)
(5.56129 1.80127 3.59337e-29)
(5.57759 1.80419 1.45194e-27)
(5.6322 1.82412 2.2287e-29)
(5.6311 1.82542 -9.25412e-28)
(5.67802 1.83917 -1.95064e-28)
(5.71334 1.85058 0)
(5.70063 1.84696 -1.93481e-28)
(5.77223 1.86702 3.23027e-28)
(5.79257 1.8732 1.38291e-29)
(5.8459 1.89306 3.26264e-29)
(5.83998 1.8927 3.91143e-28)
(5.89238 1.90903 -1.39583e-28)
(5.92713 1.92021 0)
(5.98273 1.93685 -2.97126e-29)
(5.99303 1.93374 -2.99814e-29)
(6.02556 1.94726 0)
(6.0806 1.96874 -3.83009e-29)
(6.07027 1.96726 -4.32312e-28)
(6.12467 1.98424 -1.01637e-29)
(6.1665 1.99856 7.53838e-28)
(6.22867 2.01301 6.7092e-28)
(6.23643 2.0004 -3.12949e-27)
(6.26704 2.01591 2.20327e-29)
(6.32716 2.03908 -3.35729e-29)
(6.31589 2.03965 -6.89007e-29)
(6.3692 2.05215 -8.40881e-28)
(6.4102 2.06926 0)
(6.37176 2.0634 3.51322e-29)
(6.42225 2.08678 5.04929e-33)
(6.44806 2.10047 8.91408e-28)
(6.5071 2.1213 -1.11648e-27)
(6.53511 2.13205 -2.46638e-27)
(6.59323 2.14979 -2.16439e-27)
(6.66109 2.17222 1.17354e-27)
(6.67714 2.17741 1.22701e-27)
(6.76247 2.19893 9.88379e-28)
(6.83203 2.21471 0)
(6.81523 2.20815 -1.27395e-27)
(6.89624 2.23091 0)
(6.95475 2.24779 2.93705e-28)
(7.02416 2.26748 6.03925e-33)
(7.04077 2.26651 -6.64143e-29)
(7.10057 2.28782 3.24076e-28)
(7.17167 2.31336 1.33013e-28)
(7.18071 2.31564 1.64426e-28)
(7.25774 2.33105 -7.70781e-28)
(7.33584 2.35916 -5.66888e-29)
(4.74338 1.52814 0)
(4.80302 1.54943 -3.03007e-27)
(4.87858 1.57076 -5.47475e-27)
(4.90564 1.57989 4.44806e-30)
(4.9469 1.59521 8.4541e-28)
(5.02384 1.61862 3.57377e-28)
(5.05122 1.62914 2.37954e-27)
(5.11112 1.6545 -1.11491e-26)
(5.10134 1.65337 -6.00282e-27)
(5.22152 1.69069 0)
(5.2524 1.70097 -3.00704e-30)
(5.32045 1.72403 -6.68393e-29)
(5.33855 1.73051 6.43158e-30)
(5.42407 1.75864 1.62132e-27)
(5.45268 1.7664 9.53982e-28)
(5.51021 1.78692 -3.01868e-28)
(5.52462 1.79047 1.38471e-28)
(5.57817 1.80571 -9.58674e-28)
(5.59584 1.80824 0)
(5.62525 1.82125 0)
(5.65757 1.83343 -3.24743e-28)
(5.70625 1.84618 2.70943e-27)
(5.73706 1.8591 -4.06854e-28)
(5.69627 1.84463 4.06434e-28)
(5.80611 1.87456 -1.31029e-29)
(5.82779 1.88444 3.45429e-28)
(5.87355 1.90066 0)
(5.87366 1.90139 -4.8203e-28)
(5.93998 1.92187 1.37448e-28)
(5.9563 1.92536 9.62678e-28)
(5.98274 1.93611 2.7446e-28)
(6.01385 1.94702 -6.97172e-28)
(6.06249 1.9619 -1.96451e-28)
(6.09495 1.97363 1.35954e-29)
(6.0567 1.96061 -1.85998e-28)
(6.16238 1.99021 5.10277e-28)
(6.1833 1.99766 0)
(6.22534 2.01435 3.10167e-28)
(6.23227 2.01765 -2.83902e-29)
(6.28987 2.03562 -1.36251e-28)
(6.3225 2.047 -3.97399e-28)
(6.28447 2.0326 4.99852e-33)
(6.3934 2.06019 -1.33635e-27)
(6.42715 2.07477 0)
(6.47211 2.09388 -2.14165e-28)
(6.47197 2.09516 -3.4256e-28)
(6.53404 2.11425 3.8959e-29)
(6.57312 2.12849 5.10165e-28)
(6.53311 2.1091 2.30242e-29)
(6.64635 2.12937 1.01531e-29)
(6.67841 2.146 -4.47369e-27)
(6.71874 2.16347 1.4882e-27)
(6.72758 2.1699 0)
(6.78636 2.18384 0)
(6.82233 2.20225 0)
(6.76634 2.18984 -2.57974e-28)
(6.84826 2.22178 -5.57772e-28)
(6.87208 2.23676 2.19521e-27)
(6.88477 2.24126 -1.10455e-27)
(6.96165 2.2663 -1.15896e-27)
(7.01892 2.28523 -1.12198e-27)
(7.07002 2.30207 0)
(7.10118 2.31082 2.33015e-27)
(7.19153 2.33389 8.83898e-28)
(7.25237 2.34854 0)
(7.22563 2.33757 -5.23851e-28)
(7.33563 2.36774 0)
(7.39039 2.38542 1.93368e-28)
(7.36309 2.3734 -4.82597e-29)
(7.47594 2.40178 7.48967e-28)
(7.53628 2.42513 0)
(7.55987 2.43505 3.44866e-28)
(7.61852 2.45143 0)
(7.69707 2.46755 -8.29277e-28)
(7.73958 2.48472 5.65311e-29)
(4.78633 1.54132 6.60599e-30)
(4.81672 1.55339 -3.32994e-27)
(4.89081 1.57429 -5.74132e-27)
(4.91926 1.58368 -1.48112e-30)
(5.02928 1.62093 7.28446e-28)
(5.03916 1.62319 1.95432e-28)
(5.06707 1.63411 2.32258e-27)
(5.12927 1.6601 -5.46622e-27)
(5.17953 1.67768 -1.15017e-26)
(5.2386 1.6955 -4.47436e-27)
(5.26964 1.70601 0)
(5.34166 1.73036 7.3168e-29)
(5.37319 1.74086 -6.42754e-30)
(5.44089 1.76333 1.4224e-27)
(5.47008 1.77139 -7.99557e-28)
(5.5395 1.79591 0)
(5.54876 1.79798 3.88188e-29)
(5.59584 1.81099 -1.12559e-27)
(5.61486 1.81366 2.31939e-27)
(5.69605 1.84355 2.61689e-33)
(5.67936 1.84016 -3.99538e-28)
(5.72496 1.85178 2.97171e-27)
(5.75912 1.86555 -4.68435e-28)
(5.80363 1.87857 4.34958e-28)
(5.82776 1.88062 -1.30924e-29)
(5.8485 1.89055 5.3787e-28)
(5.90416 1.91006 -1.31587e-29)
(5.91115 1.91282 -2.68112e-29)
(5.96185 1.92832 -1.33668e-29)
(5.97947 1.93222 6.66084e-28)
(6.05606 1.95905 -2.38034e-28)
(6.04148 1.95522 0)
(6.08563 1.969 -1.39836e-28)
(6.1226 1.98201 0)
(6.15333 1.99091 -2.81434e-29)
(6.18749 1.99731 5.77896e-28)
(6.20785 2.00475 -4.99674e-28)
(6.27284 2.02905 7.44808e-30)
(6.26819 2.02843 2.84428e-29)
(6.31649 2.04346 -1.10097e-29)
(6.35145 2.05598 7.82349e-29)
(6.4016 2.06926 2.95526e-29)
(6.42195 2.06766 -1.63307e-27)
(6.45353 2.08199 8.50378e-28)
(6.51944 2.10841 -1.35265e-28)
(6.51432 2.10788 -2.74441e-28)
(6.56414 2.12289 0)
(6.60621 2.13843 5.02069e-28)
(6.65803 2.14771 -1.02706e-27)
(6.67719 2.13746 7.37599e-27)
(6.7072 2.15342 -2.53999e-27)
(6.78143 2.18242 3.13503e-27)
(6.7677 2.18158 -6.86688e-29)
(6.81472 2.19168 -4.84188e-33)
(6.85984 2.21343 2.94587e-28)
(6.8658 2.22162 -2.867e-28)
(6.88808 2.23398 -5.22074e-28)
(6.91471 2.24928 -1.26782e-29)
(7.00965 2.27953 0)
(7.0067 2.27918 0)
(7.0586 2.29664 -1.01736e-27)
(7.13941 2.3223 -1.14072e-27)
(7.15908 2.32685 9.17223e-28)
(7.23017 2.34411 0)
(7.30064 2.36218 0)
(7.32347 2.36638 3.95871e-28)
(7.37648 2.37797 -7.62152e-29)
(7.4333 2.39749 0)
(7.48947 2.41123 0)
(7.51502 2.41067 0)
(7.57319 2.43336 -5.01748e-29)
(7.68108 2.47061 -5.17916e-29)
(7.6621 2.46219 0)
(7.7328 2.47492 0)
(7.83307 2.51035 5.64616e-29)
(4.99223 1.60383 -1.45408e-33)
(5.05358 1.62612 -2.91976e-27)
(5.13522 1.64943 -2.92883e-30)
(5.16424 1.65874 -2.96165e-30)
(5.2446 1.68774 1.1905e-27)
(5.29975 1.70452 -1.24623e-30)
(5.3307 1.71627 1.20027e-27)
(5.39896 1.74395 7.24307e-31)
(5.42361 1.75384 -5.5965e-27)
(5.51743 1.78266 -4.26083e-27)
(5.55016 1.79356 3.0249e-30)
(5.62378 1.81854 -7.66259e-29)
(5.65086 1.82783 0)
(5.73174 1.85449 1.22673e-27)
(5.76142 1.86266 -6.08256e-28)
(5.82583 1.88602 0)
(5.84192 1.89069 -1.43883e-28)
(5.89546 1.90555 -1.11953e-27)
(5.91432 1.90765 5.03572e-27)
(5.96399 1.92822 -1.29916e-29)
(5.98322 1.93644 -2.77837e-28)
(6.03282 1.94881 3.1525e-27)
(6.06594 1.96227 -4.33439e-28)
(6.07492 1.9644 4.44905e-28)
(6.13992 1.97925 0)
(6.16189 1.98919 -6.41794e-28)
(6.21532 2.00818 0)
(6.22107 2.01066 2.92657e-28)
(6.28192 2.02922 -1.33636e-29)
(6.29969 2.03289 -2.64261e-29)
(6.34603 2.05047 -1.92584e-28)
(6.36381 2.05715 -2.69559e-29)
(6.41263 2.07211 -1.32818e-28)
(6.44835 2.08435 -2.72713e-29)
(6.44643 2.08337 -5.63278e-29)
(6.51672 2.10111 6.83424e-28)
(6.53817 2.10834 -6.07576e-28)
(6.59167 2.12946 -1.69337e-28)
(6.59723 2.13227 0)
(6.65448 2.14971 7.35582e-29)
(6.68875 2.16078 9.22991e-29)
(6.7424 2.17659 -2.95851e-29)
(6.75979 2.17468 -2.98767e-29)
(6.79262 2.18787 1.02182e-27)
(6.84789 2.2117 -5.10864e-29)
(6.84916 2.21342 2.38669e-29)
(6.91089 2.23137 2.6219e-28)
(6.95229 2.24598 -2.43325e-29)
(6.97311 2.24636 0)
(7.02261 2.24616 7.53163e-27)
(7.0542 2.26118 2.79074e-27)
(7.10797 2.28462 1.73612e-27)
(7.11123 2.28969 3.43202e-29)
(7.16633 2.30134 0)
(7.20718 2.32273 2.3518e-28)
(7.18757 2.32347 -7.06439e-29)
(7.24861 2.34783 -5.15085e-33)
(7.27847 2.36284 -8.53454e-28)
(7.32126 2.37668 -3.55273e-29)
(7.36751 2.39208 9.44715e-28)
(7.42347 2.41012 -1.7305e-27)
(7.4875 2.43011 -1.94608e-27)
(7.51571 2.4371 -4.08067e-29)
(7.59764 2.45754 -4.17988e-29)
(7.66037 2.47354 3.76339e-28)
(7.65861 2.47038 3.62648e-28)
(7.74275 2.4908 -3.63062e-28)
(7.79869 2.50896 0)
(7.86124 2.52655 0)
(7.88081 2.52474 1.10424e-27)
(7.93984 2.54469 9.65178e-28)
(7.99567 2.56724 -5.17823e-29)
(8.02759 2.57535 4.97612e-28)
(8.10272 2.58632 5.51837e-29)
(8.16618 2.61144 1.61288e-27)
(5.02901 1.61481 1.32067e-29)
(5.06576 1.62984 -3.08446e-27)
(5.14576 1.65246 5.86462e-30)
(5.17608 1.66152 6.37614e-27)
(5.31459 1.70903 1.12641e-27)
(5.31269 1.70868 0)
(5.34478 1.72053 -1.03659e-27)
(5.41611 1.74867 4.99724e-27)
(5.48979 1.7741 0)
(5.53143 1.78677 -2.971e-30)
(5.5651 1.79775 4.33546e-27)
(5.64314 1.82397 -4.89559e-27)
(5.68609 1.8383 4.75711e-27)
(5.74597 1.85841 0)
(5.7766 1.86678 3.87166e-28)
(5.85231 1.89398 1.14971e-28)
(5.86535 1.89792 1.83707e-28)
(5.91087 1.91015 -1.28995e-27)
(5.931 1.91188 2.87823e-27)
(6.02763 1.94803 0)
(6.00318 1.94279 -2.82029e-29)
(6.04904 1.95353 1.79692e-27)
(6.08534 1.96747 -1.4519e-27)
(6.15819 1.99046 -1.32619e-29)
(6.15902 1.98517 1.68778e-27)
(6.17969 1.99423 -4.15303e-29)
(6.24231 2.01606 -9.61946e-29)
(6.25869 2.02218 1.56324e-28)
(6.30082 2.03486 0)
(6.31991 2.03829 -2.64978e-29)
(6.41186 2.07082 -2.66126e-29)
(6.3886 2.06486 -2.69963e-29)
(6.43237 2.07795 1.5507e-28)
(6.47343 2.09125 2.73896e-29)
(6.53068 2.1096 0)
(6.53906 2.108 -2.79699e-29)
(6.55946 2.11407 -5.53091e-29)
(6.63375 2.14212 3.08926e-29)
(6.6315 2.14272 5.70779e-29)
(6.67685 2.15601 2.85826e-29)
(6.71514 2.16691 0)
(6.80496 2.19556 2.9641e-29)
(6.78505 2.18313 -1.41739e-27)
(6.81552 2.19373 -2.99892e-29)
(6.88987 2.22412 -6.09476e-30)
(6.8905 2.22595 -2.49816e-29)
(6.93531 2.23794 9.75317e-28)
(6.98086 2.25288 3.18911e-28)
(7.06843 2.27537 0)
(7.05028 2.2548 3.78109e-27)
(7.07932 2.2671 2.61524e-29)
(7.16421 2.30124 -3.3526e-29)
(7.15084 2.30159 -6.87539e-29)
(7.19136 2.30795 -3.43668e-29)
(7.24048 2.33191 3.38785e-28)
(7.27753 2.35171 3.54491e-29)
(7.28442 2.35862 -4.7962e-28)
(7.31832 2.3733 7.06314e-28)
(7.43849 2.41228 0)
(7.40848 2.40443 -1.52451e-29)
(7.45944 2.41976 -6.96882e-28)
(7.55167 2.44803 -1.52172e-27)
(7.57302 2.45312 -6.10601e-28)
(7.63334 2.4667 -2.31261e-28)
(7.70571 2.48527 -1.74344e-29)
(7.74981 2.49709 2.84504e-29)
(7.77528 2.49875 -4.59718e-29)
(7.83267 2.51499 -4.6638e-29)
(7.93513 2.54724 4.82821e-29)
(7.91601 2.53534 2.36724e-27)
(7.97226 2.55005 1.38027e-27)
(8.10775 2.59919 -1.10128e-27)
(8.06953 2.58672 6.35276e-28)
(8.13414 2.59121 0)
(8.25083 2.63357 1.79263e-27)
(5.19971 1.66617 6.59535e-30)
(5.26746 1.69184 1.35121e-33)
(5.35553 1.71703 -5.85767e-30)
(5.38633 1.72544 5.6065e-27)
(5.47842 1.75942 -4.71901e-28)
(5.5337 1.77805 2.31046e-27)
(5.56861 1.79004 -2.13014e-27)
(5.64762 1.82015 5.44203e-27)
(5.69131 1.8367 0)
(5.77124 1.86215 -5.87328e-30)
(5.80745 1.87323 4.98454e-27)
(5.88848 1.90041 0)
(5.92267 1.91229 -8.54737e-29)
(6.00102 1.93848 -1.43654e-27)
(6.03305 1.94701 -3.08803e-29)
(6.10416 1.97312 -3.11996e-29)
(6.12445 1.98013 -8.30167e-28)
(6.18134 1.99569 2.61435e-29)
(6.20225 1.99669 -2.84375e-27)
(6.2605 2.02146 -7.21363e-28)
(6.2767 2.03011 -4.79753e-28)
(6.32922 2.042 2.51038e-33)
(6.36506 2.05424 -5.63441e-29)
(6.39651 2.06563 0)
(6.44406 2.07611 1.05781e-27)
(6.46638 2.08441 1.35884e-27)
(6.52385 2.10451 -1.7569e-29)
(6.53372 2.10909 0)
(6.59342 2.1274 0)
(6.61389 2.1303 1.13511e-27)
(6.66749 2.15121 -5.30725e-29)
(6.67935 2.15744 -1.37963e-27)
(6.73084 2.17198 -5.35257e-29)
(6.77233 2.18425 -2.73906e-29)
(6.78955 2.19119 0)
(6.84234 2.20461 2.79363e-29)
(6.86529 2.2098 2.76533e-29)
(6.9235 2.23308 9.13985e-29)
(6.92897 2.23685 0)
(6.98693 2.25347 -5.97772e-29)
(7.02525 2.26265 0)
(7.07279 2.27963 -2.96499e-29)
(7.0973 2.28291 -2.09274e-27)
(7.13135 2.29217 3.00066e-29)
(7.19127 2.3185 -5.96865e-29)
(7.19412 2.3218 -3.62501e-29)
(7.25484 2.33799 -5.16914e-30)
(7.29941 2.35046 5.3015e-28)
(7.34935 2.36321 -3.29189e-29)
(7.37061 2.35717 -3.34662e-27)
(7.40345 2.36727 -3.42019e-27)
(7.46303 2.39427 0)
(7.46591 2.40106 3.43788e-29)
(7.51951 2.4106 -1.17407e-27)
(7.56438 2.43169 4.59918e-28)
(7.56475 2.44216 -3.55295e-29)
(7.61569 2.46374 -7.13842e-28)
(7.65542 2.47714 1.118e-27)
(7.70345 2.49504 -3.62585e-29)
(7.7348 2.50774 -2.18723e-27)
(7.79486 2.52327 6.51771e-28)
(7.86878 2.54569 -6.11877e-28)
(7.89233 2.55227 1.00072e-28)
(7.97085 2.57084 -1.99365e-28)
(8.03953 2.58742 -6.88011e-29)
(8.05089 2.59062 -1.17619e-32)
(8.11531 2.60467 1.1595e-32)
(8.17238 2.61708 8.14736e-28)
(8.22776 2.63712 9.66509e-29)
(8.25611 2.64246 1.20176e-27)
(8.31704 2.65326 1.93897e-27)
(8.3808 2.68196 -1.21393e-27)
(8.40798 2.69227 -1.08259e-28)
(8.48262 2.69547 -1.17873e-32)
(8.55373 2.72428 1.13255e-28)
(5.34221 1.70755 6.57397e-30)
(5.4379 1.74197 2.60108e-28)
(5.53265 1.76993 -2.79487e-27)
(5.56402 1.77894 -3.64462e-27)
(5.62564 1.80336 -1.99079e-27)
(5.7223 1.83487 -7.75785e-29)
(5.75825 1.84759 -3.34879e-27)
(5.84155 1.87935 6.84568e-27)
(5.85832 1.88759 6.53838e-27)
(5.97806 1.92506 -2.90858e-30)
(6.01578 1.93697 5.96786e-30)
(6.09621 1.96419 6.33592e-27)
(6.12814 1.97549 -5.59412e-27)
(6.22194 2.0064 -3.18878e-27)
(6.255 2.01559 -9.48963e-28)
(6.31696 2.03904 -8.32174e-28)
(6.35087 2.05036 4.57876e-29)
(6.4177 2.06923 -3.85157e-28)
(6.43905 2.07069 -4.57777e-27)
(6.46567 2.08545 -5.80503e-29)
(6.51855 2.10475 -1.28372e-29)
(6.57658 2.1189 0)
(6.60994 2.13141 1.91903e-29)
(6.59377 2.1271 -2.64832e-29)
(6.69651 2.15402 0)
(6.7204 2.16376 3.58436e-28)
(6.76904 2.18115 7.19621e-29)
(6.78017 2.18586 -7.68271e-28)
(6.85393 2.20831 0)
(6.87503 2.21239 1.10421e-27)
(6.8945 2.22213 -2.64753e-29)
(6.94128 2.2386 -1.25499e-27)
(6.99753 2.2549 4.90403e-33)
(7.03452 2.26678 -4.99754e-33)
(7.01232 2.26062 5.60959e-29)
(7.1138 2.28826 2.78147e-29)
(7.13903 2.29525 0)
(7.17579 2.31196 2.51672e-28)
(7.19726 2.32014 4.94816e-28)
(7.26557 2.3396 -3.46594e-29)
(7.30127 2.34942 -1.44146e-28)
(7.2753 2.34222 0)
(7.37777 2.36902 -2.59622e-29)
(7.41488 2.38011 0)
(7.45466 2.40082 0)
(7.46923 2.40707 3.28965e-28)
(7.54268 2.42644 -4.30203e-28)
(7.58312 2.43929 -2.10863e-28)
(7.55573 2.42659 0)
(7.6588 2.44532 -3.46829e-27)
(7.69468 2.45737 -3.24532e-27)
(7.72394 2.47524 -6.69346e-29)
(7.75045 2.48858 -6.85677e-29)
(7.8157 2.50154 -1.17862e-27)
(7.85081 2.52214 0)
(7.82044 2.52155 0)
(7.91538 2.55546 7.06413e-29)
(7.9532 2.57058 1.48211e-27)
(7.95928 2.57445 -7.2912e-29)
(8.03468 2.59901 -9.65103e-28)
(8.09688 2.61596 1.24211e-27)
(8.14487 2.63042 -7.9922e-28)
(8.1843 2.64084 4.75666e-28)
(8.2748 2.66283 -8.43086e-29)
(8.32899 2.67689 2.65733e-28)
(8.31603 2.67143 -6.92644e-29)
(8.42219 2.6966 -9.17239e-29)
(8.47444 2.71032 7.48494e-28)
(8.45637 2.70585 7.84661e-28)
(8.56269 2.73402 -1.97901e-28)
(8.62515 2.74735 1.84659e-27)
(8.64209 2.76064 1.46501e-27)
(8.71483 2.78326 -8.97165e-28)
(8.79519 2.78897 -1.82796e-27)
(8.82611 2.80543 0)
(5.37278 1.71612 -1.31099e-29)
(5.44844 1.74499 1.31215e-28)
(5.54199 1.77311 -2.53562e-27)
(5.57443 1.7826 -3.2153e-27)
(5.67265 1.81726 -1.14492e-27)
(5.73434 1.83835 7.95936e-29)
(5.76961 1.85106 -3.29225e-27)
(5.85567 1.88358 -8.41418e-29)
(5.9128 1.9036 6.29207e-27)
(5.99099 1.92843 2.90721e-30)
(6.02806 1.94035 0)
(6.114 1.9692 1.20544e-26)
(6.15611 1.98339 0)
(6.2339 2.00946 -1.37524e-27)
(6.26683 2.01891 -9.07395e-28)
(6.34293 2.04673 -8.44673e-28)
(6.36979 2.05569 4.62429e-28)
(6.4309 2.07314 -5.01471e-28)
(6.45432 2.07558 -4.34857e-27)
(6.51673 2.10103 3.83775e-28)
(6.5366 2.1098 0)
(6.59117 2.12332 0)
(6.62864 2.13723 -2.21731e-28)
(6.6706 2.1507 0)
(6.71387 2.15871 -2.61002e-29)
(6.73696 2.16871 -2.595e-29)
(6.79714 2.18966 9.49504e-28)
(6.81178 2.19523 4.84528e-29)
(6.87079 2.21308 0)
(6.89422 2.21849 9.28202e-28)
(6.95164 2.23952 -2.65056e-29)
(6.96472 2.24518 -2.66858e-29)
(7.01505 2.25998 2.64962e-29)
(7.05806 2.27397 4.98847e-33)
(7.08655 2.2833 -2.79811e-29)
(7.1338 2.2935 -5.4793e-28)
(7.15924 2.30122 0)
(7.22007 2.32534 0)
(7.22748 2.32883 7.65453e-28)
(7.28495 2.34471 2.8346e-29)
(7.32586 2.35703 -2.33871e-28)
(7.36981 2.37107 2.95692e-29)
(7.40138 2.37484 2.84599e-27)
(7.43644 2.38603 0)
(7.49909 2.41405 0)
(7.50569 2.41746 -2.09468e-28)
(7.56438 2.43191 0)
(7.61046 2.44733 -5.95821e-28)
(7.65568 2.4567 0)
(7.68435 2.45162 0)
(7.71859 2.46379 -3.46017e-27)
(7.77929 2.49148 -1.94682e-27)
(7.78534 2.49792 -6.72022e-28)
(7.83826 2.50756 -1.33121e-27)
(7.88585 2.53254 1.92899e-28)
(7.90118 2.5458 -7.14074e-29)
(7.94712 2.56382 -1.04752e-32)
(7.98827 2.58074 6.85732e-28)
(8.04269 2.59916 -1.09712e-32)
(8.0755 2.60953 -6.3499e-28)
(8.13179 2.62501 5.55319e-28)
(8.20825 2.64788 -1.10543e-27)
(8.23353 2.65353 4.37038e-28)
(8.3042 2.66937 8.46047e-29)
(8.37139 2.6885 6.12429e-29)
(8.39293 2.69292 -1.66078e-28)
(8.45052 2.7021 1.08007e-27)
(8.50885 2.71934 0)
(8.55927 2.73503 1.19594e-27)
(8.59541 2.74009 9.88129e-29)
(8.65693 2.75479 -1.00288e-28)
(8.72074 2.7813 1.63428e-27)
(8.75145 2.78956 -1.02033e-27)
(8.82522 2.79502 -3.8969e-27)
(8.8976 2.82315 0)
(5.4904 1.74734 0)
(5.59136 1.78378 6.48559e-28)
(5.69102 1.81465 5.81294e-30)
(5.72396 1.82452 -2.94163e-30)
(5.79855 1.85282 1.56701e-27)
(5.89395 1.88421 6.50757e-27)
(5.93204 1.89771 -1.425e-30)
(6.02101 1.93128 -6.95214e-27)
(6.05218 1.94418 6.32932e-27)
(6.16714 1.97989 5.29883e-27)
(6.20655 1.99252 -5.97823e-30)
(6.29064 2.02108 1.19137e-26)
(6.3285 2.0344 5.12104e-27)
(6.4227 2.06543 0)
(6.45685 2.07542 3.64547e-29)
(6.5221 2.1002 -8.5226e-28)
(6.56112 2.11323 6.51052e-28)
(6.63146 2.13355 0)
(6.65458 2.13615 -2.02023e-27)
(6.68915 2.15324 2.47121e-28)
(6.74278 2.17216 -4.48871e-28)
(6.80249 2.18712 -1.10855e-27)
(6.83629 2.20017 -4.27634e-29)
(6.83876 2.20175 0)
(6.92954 2.22389 0)
(6.95474 2.23481 0)
(7.00606 2.25304 5.14999e-28)
(7.02211 2.25908 1.20574e-27)
(7.09612 2.28123 -1.57084e-28)
(7.1194 2.28725 3.63401e-28)
(7.1461 2.29872 2.65877e-29)
(7.192 2.31414 0)
(7.24829 2.33062 -2.03902e-28)
(7.28505 2.34305 2.71104e-29)
(7.2773 2.34139 -2.79545e-29)
(7.36907 2.36447 -7.02242e-28)
(7.39653 2.3733 0)
(7.43598 2.39103 -3.12187e-28)
(7.46024 2.39948 -5.53552e-29)
(7.52806 2.41776 0)
(7.56434 2.42965 -6.65414e-29)
(7.55794 2.42791 1.18292e-28)
(7.6448 2.44802 1.65426e-27)
(7.68289 2.46035 0)
(7.72403 2.48239 0)
(7.74272 2.48915 -7.96906e-29)
(7.81576 2.50704 0)
(7.85595 2.52169 -3.02222e-29)
(7.84808 2.51449 0)
(7.93494 2.52682 3.93198e-27)
(7.97206 2.54004 -3.54162e-27)
(8.00302 2.55919 -1.96694e-27)
(8.03104 2.57172 -1.62175e-29)
(8.09697 2.58495 -1.36862e-27)
(8.13332 2.60784 1.64603e-29)
(8.11954 2.61155 0)
(8.2102 2.64262 0)
(8.2519 2.66024 0)
(8.27175 2.66796 0)
(8.34006 2.68816 -1.25038e-27)
(8.40182 2.70488 3.51016e-28)
(8.45069 2.71974 1.94028e-29)
(8.48707 2.72837 1.61327e-28)
(8.57144 2.74751 2.84194e-28)
(8.62203 2.76341 -2.08186e-29)
(8.61901 2.75979 1.80873e-28)
(8.71655 2.77952 1.27677e-27)
(8.7691 2.79652 9.8099e-28)
(8.77108 2.79693 9.6483e-29)
(8.86086 2.81713 9.88372e-29)
(8.9236 2.83297 0)
(8.94972 2.84816 -1.03624e-28)
(9.01694 2.86576 1.20534e-27)
(9.09665 2.87286 -1.95845e-27)
(9.13266 2.89067 0)
(5.5164 1.75425 1.29655e-29)
(5.60075 1.78664 -9.45451e-29)
(5.70009 1.81808 -5.80082e-30)
(5.7347 1.82856 -2.94131e-30)
(5.83654 1.86371 1.84821e-27)
(5.90512 1.8877 3.58155e-27)
(5.94276 1.9012 4.11745e-27)
(6.03465 1.93527 7.25914e-27)
(6.09938 1.9576 6.21032e-27)
(6.17919 1.98319 5.19381e-27)
(6.21822 1.99583 0)
(6.30787 2.02584 5.84256e-27)
(6.35577 2.04203 4.80639e-27)
(6.434 2.06845 -2.7676e-33)
(6.468 2.07864 9.26445e-28)
(6.54696 2.10746 -9.33224e-28)
(6.5797 2.11865 5.91336e-28)
(6.64438 2.13752 -1.29347e-29)
(6.66986 2.14114 1.76297e-27)
(6.73397 2.16666 2.22364e-28)
(6.76017 2.17703 -2.67364e-28)
(6.81686 2.19161 -1.09169e-27)
(6.85503 2.20597 -5.14104e-29)
(6.90394 2.22147 1.57002e-28)
(6.94675 2.22883 0)
(6.97083 2.23974 2.5982e-29)
(7.03397 2.26144 2.62669e-29)
(7.05366 2.26844 -5.28369e-29)
(7.11274 2.28605 -7.81779e-29)
(7.13876 2.2934 0)
(7.19735 2.31408 6.68459e-28)
(7.21449 2.32068 -5.01272e-33)
(7.26573 2.33584 -1.40497e-28)
(7.30887 2.35022 0)
(7.34405 2.36151 -5.58043e-29)
(7.38907 2.36989 -7.81035e-28)
(7.41688 2.37933 5.52983e-28)
(7.4789 2.40382 -2.76078e-28)
(7.49038 2.40828 -2.84891e-29)
(7.54744 2.42295 -4.83917e-28)
(7.58929 2.43714 0)
(7.63557 2.45123 0)
(7.66848 2.45415 -1.78119e-27)
(7.70465 2.46638 -5.97977e-29)
(7.76741 2.49514 0)
(7.77878 2.49935 1.49653e-29)
(7.83702 2.51242 0)
(7.88378 2.52961 3.91755e-28)
(7.93067 2.53888 -1.56478e-27)
(7.9606 2.53342 -3.35656e-29)
(7.99631 2.54664 -9.83039e-29)
(8.05606 2.57455 2.0537e-27)