/*--------------------------------*- C++ -*----------------------------------*\
| =========                 |                                                 |
| \\      /  F ield         | OpenFOAM: The Open Source CFD Toolbox           |
|  \\    /   O peration     | Version:  v2012                                 |
|   \\  /    A nd           | Website:  www.openfoam.com                      |
|    \\/     M anipulation  |                                                 |
\*---------------------------------------------------------------------------*/
FoamFile
{
    version     2.0;
    format      ascii;
    class       volSymmTensorField;
    location    "1e-06";
    object      UPrime2Mean;
}
// * * * * * * * * * * * * * * * * * * * * * * * * * * * * * * * * * * * * * //

dimensions      [0 2 -2 0 0 0 0];


internalField   nonuniform List<symmTensor> 
10193
(
(1.1885e-05 5.7181e-06 -1.60952e-29 2.80011e-06 -8.50838e-30 3.50985e-53)
(2.4296e-05 9.74156e-06 1.82229e-29 3.92518e-06 7.73385e-30 2.33208e-53)
(2.01287e-05 8.64703e-06 2.1346e-29 3.74955e-06 9.82167e-30 3.63592e-53)
(1.32208e-05 5.98933e-06 -1.81619e-29 2.75728e-06 -8.98173e-30 3.88929e-53)
(1.70749e-05 6.31583e-06 1.09302e-32 2.34147e-06 4.22657e-33 1.49628e-59)
(2.73709e-05 8.74857e-06 0 2.79642e-06 0 0)
(1.41019e-05 4.68363e-06 -3.6391e-31 1.55559e-06 -1.20396e-31 1.88065e-56)
(2.25864e-05 6.70269e-06 0 1.9892e-06 0 0)
(3.36826e-05 8.13248e-06 -1.60894e-32 2.00365e-06 -3.34974e-33 1.68102e-59)
(3.04563e-05 6.44968e-06 -3.36163e-29 1.43076e-06 -6.10087e-30 5.47247e-53)
(2.31183e-05 5.66591e-06 0 1.41004e-06 0 0)
(2.99684e-05 8.17007e-06 4.20406e-29 2.23136e-06 1.11038e-29 1.03834e-52)
(3.89102e-05 8.92868e-06 0 2.08836e-06 0 0)
(3.17561e-05 8.10395e-06 0 2.08795e-06 0 0)
(2.73863e-05 8.13866e-06 9.86588e-30 2.41927e-06 2.90315e-30 6.00468e-54)
(3.31714e-05 1.11812e-05 -1.54508e-35 3.76892e-06 -5.20763e-36 1.48209e-65)
(3.76082e-05 1.2711e-05 7.64227e-32 4.29621e-06 2.58506e-32 3.19965e-58)
(3.151e-05 1.09312e-05 0 3.7925e-06 0 0)
(3.2651e-05 1.20582e-05 0 4.45579e-06 0 0)
(4.09314e-05 1.49645e-05 0 5.47751e-06 0 0)
(3.91235e-05 1.30236e-05 0 4.3354e-06 0 0)
(3.65122e-05 1.31696e-05 -6.06758e-30 4.75286e-06 -2.21777e-30 1.41611e-54)
(4.3465e-05 1.64805e-05 1.01904e-29 6.25947e-06 3.96281e-30 3.34283e-54)
(4.93664e-05 1.69746e-05 3.81966e-30 5.8378e-06 1.32348e-30 4.26583e-55)
(4.7793e-05 1.45072e-05 -1.76806e-31 4.40822e-06 -5.21161e-32 1.24067e-57)
(4.06569e-05 1.33238e-05 -9.16975e-31 4.36638e-06 -3.00041e-31 3.62409e-56)
(5.53968e-05 1.86526e-05 0 6.2806e-06 0 0)
(5.85123e-05 1.83316e-05 2.00633e-31 5.74351e-06 6.25252e-32 1.29736e-57)
(4.68136e-05 1.44153e-05 4.48644e-30 4.43923e-06 1.37535e-30 6.16865e-55)
(5.46677e-05 1.81064e-05 -3.01895e-30 5.99703e-06 -9.98245e-31 2.74892e-55)
(7.05815e-05 2.32173e-05 -5.43582e-31 7.63717e-06 -1.78597e-31 6.22667e-57)
(5.95094e-05 1.81855e-05 -6.3842e-30 5.55769e-06 -1.94568e-30 1.00479e-54)
(5.64401e-05 1.80083e-05 2.12066e-31 5.74633e-06 6.71928e-32 1.34596e-57)
(7.58924e-05 2.58621e-05 4.8467e-31 8.81341e-06 1.65357e-31 5.53414e-57)
(7.9755e-05 2.5507e-05 1.71471e-30 8.15794e-06 5.45874e-31 5.31016e-56)
(7.1e-05 2.13804e-05 -3.40018e-30 6.44146e-06 -1.01363e-30 1.97239e-55)
(7.10568e-05 2.32363e-05 -2.44922e-31 7.59852e-06 -7.99947e-32 1.40556e-57)
(9.38486e-05 3.1317e-05 2.48959e-30 1.04505e-05 8.29279e-31 9.45739e-56)
(8.56193e-05 2.64988e-05 -3.57611e-30 8.20146e-06 -1.1058e-30 2.10321e-55)
(7.85555e-05 2.50062e-05 -5.39911e-31 7.96029e-06 -1.71387e-31 5.87936e-57)
(0.000103476 2.72234e-05 -3.09491e-31 7.16845e-06 -8.28376e-32 1.52885e-57)
(2.01485e-05 6.6074e-06 -1.75894e-31 2.16687e-06 -5.75619e-32 1.75521e-57)
(0.000115748 4.15864e-05 9.9971e-30 1.49443e-05 3.56001e-30 1.28527e-54)
(9.38128e-05 3.07228e-05 1.14147e-30 1.00615e-05 3.72958e-31 2.05875e-56)
(0.00013048 4.37171e-05 -3.68276e-31 1.46476e-05 -1.22988e-31 1.70405e-57)
(0.000119201 3.71767e-05 0 1.15949e-05 0 0)
(0.00011292 3.61176e-05 0 1.15525e-05 0 0)
(0.000145939 4.37776e-05 -8.39586e-30 1.31342e-05 -2.53818e-30 6.82738e-55)
(5.7463e-05 1.96079e-05 -6.11701e-31 6.69158e-06 -2.07518e-31 8.26577e-57)
(0.000154894 5.57064e-05 2.49076e-29 2.0038e-05 8.88106e-30 5.94716e-54)
(0.000132793 4.69811e-05 -1.46484e-29 1.66223e-05 -5.1704e-30 2.14933e-54)
(0.000175421 6.27929e-05 1.87384e-29 2.24783e-05 6.71907e-30 2.68386e-54)
(0.000155865 5.18635e-05 4.75265e-31 1.72587e-05 1.57171e-31 2.20432e-57)
(0.00014168 4.92485e-05 5.46832e-30 1.712e-05 1.90303e-30 2.54918e-55)
(0.00019006 6.9198e-05 0 2.51968e-05 0 0)
(0.000196012 6.71249e-05 0 2.29897e-05 0 0)
(0.000194959 5.83274e-05 0 1.74515e-05 0 0)
(0.000236617 6.3488e-05 -1.87147e-29 1.70393e-05 -5.0561e-30 1.84816e-54)
(0.000258548 7.03995e-05 -2.24044e-29 1.9187e-05 -6.01602e-30 2.3444e-54)
(0.000244549 5.91047e-05 -2.64126e-29 1.4327e-05 -6.29054e-30 3.22476e-54)
(0.000240316 6.24842e-05 4.48735e-29 1.62532e-05 1.15819e-29 9.54483e-54)
(0.000341868 9.81925e-05 2.31363e-29 2.82042e-05 6.64552e-30 2.01374e-54)
(0.000312305 7.53042e-05 3.26735e-29 1.81825e-05 7.80757e-30 3.93626e-54)
(0.000287464 6.75451e-05 1.20005e-34 1.58811e-05 2.78902e-35 6.96827e-65)
(0.000376521 0.000117994 1.11027e-29 3.69776e-05 3.48774e-30 4.36436e-55)
(0.000351211 0.000101032 -1.54717e-29 2.90692e-05 -4.43321e-30 7.69596e-55)
(0.000330281 9.33127e-05 -1.7283e-29 2.63727e-05 -4.85603e-30 9.82278e-55)
(0.00041924 0.000101583 -2.55535e-29 2.46184e-05 -6.20455e-30 1.70378e-54)
(0.000156377 4.57768e-05 -9.91764e-35 1.34166e-05 -2.93179e-35 7.17938e-65)
(0.000437847 0.000146333 1.18347e-30 4.89132e-05 3.92482e-31 4.65267e-57)
(0.00042058 0.000129308 -8.41913e-30 3.97615e-05 -2.60243e-30 2.04726e-55)
(0.000504113 0.000158612 -4.42122e-30 4.99065e-05 -1.39409e-30 4.49764e-56)
(0.000466888 0.000141819 5.56514e-30 4.30827e-05 1.6827e-30 8.91993e-56)
(0.00046101 0.000150439 2.87658e-30 4.90918e-05 9.38507e-31 2.36139e-56)
(0.000599051 0.000221483 1.98699e-29 8.18984e-05 7.31248e-30 7.76288e-55)
(5.69149e-06 1.50475e-06 0 4.68696e-07 0 0)
(6.79293e-07 2.3641e-07 -1.20805e-34 1.17486e-07 -1.56965e-33 6.63229e-59)
(2.85433e-07 2.1311e-07 -3.17802e-33 2.00515e-07 -3.3321e-33 6.17547e-59)
(3.80427e-06 8.63316e-07 1.10778e-29 2.96914e-07 -9.89689e-31 1.59109e-52)
(8.50312e-07 2.86227e-07 -1.48069e-34 1.07145e-07 -4.42619e-34 1.49057e-59)
(1.01549e-06 3.80301e-07 0 1.48165e-07 0 0)
(1.49925e-06 4.26328e-07 3.1538e-31 1.21916e-07 2.36196e-32 6.77024e-54)
(3.22197e-06 1.29107e-06 -4.05284e-34 5.26948e-07 -2.50381e-34 9.24529e-61)
(5.39309e-06 2.08677e-06 0 9.19058e-07 0 0)
(1.51943e-06 4.74359e-07 9.63805e-31 3.44085e-07 1.29727e-29 8.5094e-52)
(1.60869e-06 5.75842e-07 3.17161e-31 3.05095e-07 3.91806e-30 1.47991e-52)
(4.19722e-06 1.68281e-06 6.90299e-32 7.11192e-07 5.59921e-32 2.49846e-56)
(5.25929e-06 2.10935e-06 1.01402e-29 9.98775e-07 9.07763e-30 1.90058e-52)
(1.87376e-06 5.30127e-07 3.24715e-31 1.98241e-07 -1.03178e-30 2.62664e-53)
(2.23938e-06 8.31273e-07 -5.0681e-32 3.23197e-07 -3.19397e-31 6.51421e-54)
(4.89254e-06 1.55625e-06 1.49698e-31 4.95172e-07 4.47515e-32 7.12844e-56)
(4.53623e-06 1.41298e-06 4.60437e-31 4.40966e-07 1.11831e-31 1.39026e-54)
(1.55043e-06 5.00841e-07 1.31887e-32 1.65461e-07 6.25253e-33 1.22965e-57)
(2.76036e-06 8.03309e-07 1.50771e-31 2.57962e-07 -5.85804e-31 1.74911e-53)
(4.15188e-06 1.3345e-06 0 4.4562e-07 0 0)
(4.18927e-06 1.36489e-06 4.9245e-32 4.44721e-07 2.18996e-32 1.14771e-54)
(1.6051e-06 6.18347e-07 -2.23665e-30 2.47496e-07 -1.05412e-30 7.3317e-54)
(3.54077e-06 1.1686e-06 -1.21623e-32 4.20215e-07 5.88254e-31 1.02126e-53)
(8.38714e-06 2.70834e-06 0 8.76448e-07 0 0)
(2.60544e-06 7.96851e-07 0 2.6486e-07 0 0)
(2.36222e-06 7.64411e-07 -7.4592e-31 2.47401e-07 -2.36364e-31 8.91589e-55)
(4.32907e-06 1.38644e-06 -1.24285e-31 4.44458e-07 -5.08003e-32 3.64494e-55)
(7.44358e-06 2.52864e-06 2.26914e-33 8.6643e-07 3.75265e-33 1.27793e-57)
(3.4539e-06 1.07528e-06 8.19211e-31 3.39068e-07 1.81186e-31 1.52666e-54)
(3.57755e-06 1.14741e-06 3.39123e-32 3.68584e-07 1.15793e-32 1.26178e-57)
(4.63913e-06 1.48485e-06 5.02009e-36 4.75342e-07 1.66114e-36 4.45405e-65)
(6.61763e-06 2.32529e-06 -8.40212e-31 8.45601e-07 2.89295e-31 1.27295e-53)
(4.01582e-06 1.23135e-06 6.08267e-32 3.77596e-07 1.8764e-32 1.3202e-57)
(4.65364e-06 1.54111e-06 8.76711e-32 5.13821e-07 3.22757e-32 5.46592e-57)
(1.14911e-05 3.71041e-06 -1.37665e-31 1.20128e-06 -7.0394e-32 2.1217e-55)
(5.07104e-06 1.44606e-06 5.60805e-32 4.28517e-07 1.25801e-32 1.41565e-57)
(5.42665e-06 1.75706e-06 -7.71993e-31 5.69512e-07 -2.43852e-31 1.76349e-55)
(6.35081e-06 2.04761e-06 1.2876e-31 6.61462e-07 4.47523e-32 1.18536e-56)
(9.30029e-06 3.13271e-06 -7.04429e-32 1.07896e-06 -1.30619e-32 5.7956e-57)
(7.12425e-06 2.23855e-06 1.70792e-30 7.07824e-07 5.65306e-31 5.99051e-55)
(7.69014e-06 2.59553e-06 -1.73143e-31 8.76943e-07 -5.91134e-32 5.97676e-57)
(4.13663e-05 1.36142e-05 3.99902e-32 4.48085e-06 1.31075e-32 5.10702e-59)
(9.16285e-06 3.02968e-06 3.94635e-30 1.01706e-06 1.12349e-30 3.98846e-54)
(1.04674e-05 3.35554e-06 3.24077e-30 1.07599e-06 1.03104e-30 1.24907e-54)
(1.08157e-05 3.54123e-06 8.33061e-31 1.16111e-06 2.81145e-31 1.15628e-55)
(1.36025e-05 4.39595e-06 0 1.44551e-06 0 0)
(1.44924e-05 4.69677e-06 0 1.53756e-06 0 0)
(1.45774e-05 4.23576e-06 0 1.28426e-06 0 0)
(1.67741e-05 5.73973e-06 0 1.97253e-06 0 0)
(1.43325e-05 4.96019e-06 1.89623e-29 1.72e-06 6.6806e-30 3.33608e-53)
(1.73423e-05 6.26007e-06 -1.76653e-31 2.27788e-06 -6.51638e-32 2.0275e-57)
(1.67489e-05 6.09556e-06 1.11872e-29 2.23343e-06 4.25859e-30 1.02975e-53)
(1.84252e-05 5.89668e-06 0 1.88797e-06 0 0)
(2.41528e-05 8.55895e-06 1.17282e-29 3.03559e-06 4.17834e-30 6.24565e-54)
(2.26594e-05 8.40471e-06 6.7652e-30 3.12107e-06 2.54771e-30 2.50936e-54)
(2.53584e-05 8.07216e-06 1.44335e-31 2.61396e-06 5.34307e-32 2.24544e-57)
(3.30522e-05 9.50762e-06 7.90352e-30 2.7353e-06 2.27545e-30 2.10828e-54)
(3.8654e-05 9.05445e-06 -3.16174e-29 2.30716e-06 -6.85072e-30 2.82693e-53)
(3.69219e-05 8.48939e-06 -1.69332e-29 2.01315e-06 -3.61207e-30 9.12516e-54)
(3.61234e-05 6.91976e-06 7.63836e-31 1.69699e-06 1.09434e-31 2.15986e-56)
(4.69991e-05 1.06348e-05 2.06049e-29 2.45938e-06 4.45276e-30 9.99297e-54)
(4.87334e-05 1.28345e-05 -1.36763e-30 3.45559e-06 -3.48944e-31 4.25751e-56)
(4.46857e-05 9.07399e-06 1.96484e-29 2.14038e-06 2.89375e-30 1.31501e-53)
(6.23987e-05 1.15435e-05 -8.59254e-31 2.31767e-06 -1.53539e-31 1.26981e-56)
(6.48749e-05 2.01009e-05 -1.36112e-29 6.22932e-06 -4.20918e-30 3.06687e-54)
(5.22874e-05 1.41414e-05 1.10889e-29 3.88567e-06 2.6897e-30 3.93522e-54)
(7.42405e-05 2.05858e-05 0 5.72359e-06 0 0)
(8.6688e-05 2.40118e-05 0 6.72951e-06 0 0)
(0.000195281 5.89566e-05 -1.66826e-30 1.77997e-05 -5.04289e-31 1.7229e-56)
(7.6639e-05 2.26604e-05 -2.23654e-30 6.74539e-06 -6.50601e-31 7.28085e-56)
(0.000112149 3.35465e-05 -7.43658e-30 1.00599e-05 -2.2123e-30 5.13908e-55)
(0.000115602 3.58224e-05 1.79058e-34 1.1113e-05 5.54487e-35 2.95071e-64)
(0.000112805 3.22604e-05 6.80165e-31 9.25904e-06 1.76954e-31 1.49021e-56)
(0.000149015 4.80889e-05 5.67867e-30 1.55239e-05 1.83162e-30 2.24987e-55)
(0.000150525 5.56916e-05 2.73384e-29 2.06318e-05 1.01428e-29 5.16819e-54)
(5.13939e-06 1.16948e-06 0 2.70945e-07 0 0)
(2.1984e-05 6.43873e-06 0 1.88784e-06 0 0)
(2.57314e-05 7.48972e-06 -4.91307e-29 2.1811e-06 -1.45176e-29 2.06913e-52)
(1.29588e-05 3.48185e-06 -3.23953e-29 9.36656e-07 -8.65462e-30 1.70278e-52)
(7.86115e-06 2.24954e-06 0 6.44105e-07 0 0)
(2.67396e-05 8.53687e-06 -8.34075e-34 2.72549e-06 -2.66017e-34 5.67986e-62)
(1.96346e-05 6.75458e-06 -5.48597e-30 2.324e-06 -1.86671e-30 3.12041e-54)
(2.05525e-05 5.629e-06 -1.20314e-32 1.54203e-06 -3.28185e-33 1.46423e-59)
(1.34084e-05 4.61165e-06 -3.6967e-29 1.58777e-06 -1.23671e-29 1.91026e-52)
(3.03607e-05 1.11371e-05 -5.08853e-29 4.08791e-06 -1.82745e-29 1.80865e-52)
(2.69975e-05 8.86465e-06 -4.50476e-29 2.91098e-06 -1.46532e-29 1.54046e-52)
(2.46088e-05 7.74731e-06 -4.41773e-29 2.43921e-06 -1.37876e-29 1.56741e-52)
(2.47362e-05 8.32729e-06 -4.93493e-29 2.80541e-06 -1.62249e-29 1.90883e-52)
(3.40663e-05 1.21279e-05 1.95084e-29 4.32073e-06 6.84604e-30 2.29971e-53)
(3.14674e-05 9.97328e-06 0 3.16094e-06 0 0)
(2.77255e-05 8.79706e-06 -3.62772e-31 2.79128e-06 -1.14551e-31 1.68252e-56)
(3.26885e-05 1.03685e-05 -5.57373e-30 3.28881e-06 -1.76816e-30 1.87364e-54)
(4.16598e-05 1.32627e-05 7.97814e-32 4.22234e-06 2.54513e-32 3.06789e-58)
(3.7734e-05 1.17113e-05 -2.01561e-29 3.63479e-06 -6.27372e-30 2.10549e-53)
(2.58484e-05 7.82729e-06 0 2.37103e-06 0 0)
(4.03621e-05 1.30014e-05 -1.51668e-29 4.18811e-06 -4.90419e-30 1.05258e-53)
(5.32519e-05 1.68567e-05 -8.95938e-32 5.3361e-06 -2.84774e-32 2.94448e-58)
(4.58988e-05 1.29342e-05 -8.99465e-30 3.64789e-06 -2.52511e-30 3.97058e-54)
(1.80549e-05 5.56631e-06 -1.20468e-31 1.71633e-06 -3.72688e-32 1.25448e-57)
(5.56445e-05 1.85175e-05 -3.76312e-31 6.16242e-06 -1.24853e-31 4.93577e-57)
(5.45205e-05 1.74728e-05 -4.16019e-30 5.59974e-06 -1.32988e-30 6.34119e-55)
(5.21193e-05 1.64195e-05 -1.64295e-30 5.17278e-06 -5.16632e-31 1.22085e-55)
(4.6271e-05 1.45118e-05 -5.10342e-30 4.55128e-06 -1.59901e-30 9.2718e-55)
(5.99356e-05 1.96851e-05 -4.74585e-30 6.46556e-06 -1.55107e-30 6.48477e-55)
(6.38502e-05 2.02091e-05 0 6.39636e-06 0 0)
(4.88188e-05 1.57161e-05 0 5.05951e-06 0 0)
(5.84451e-05 1.84463e-05 -5.84809e-30 5.8231e-06 -1.86978e-30 1.12224e-54)
(7.86463e-05 2.59999e-05 0 8.59571e-06 0 0)
(7.69135e-05 2.25809e-05 2.42978e-31 6.6312e-06 7.07638e-32 1.35756e-57)
(3.82662e-05 1.22032e-05 1.90735e-31 3.89187e-06 6.04824e-32 1.43864e-57)
(8.38349e-05 2.79541e-05 0 9.32137e-06 0 0)
(8.84427e-05 2.80879e-05 -4.57924e-30 8.92033e-06 -1.45743e-30 4.13794e-55)
(8.16737e-05 2.62024e-05 0 8.40624e-06 0 0)
(7.49422e-05 2.32944e-05 4.3999e-30 7.24189e-06 1.38145e-30 4.20749e-55)
(0.000100768 3.43825e-05 5.99536e-30 1.17336e-05 2.02451e-30 5.79835e-55)
(0.000104512 3.32441e-05 0 1.05873e-05 0 0)
(2.06176e-05 6.79738e-06 1.17503e-31 2.24182e-06 3.87611e-32 7.13533e-58)
(0.000116696 3.58696e-05 -2.28676e-29 1.10259e-05 -7.03158e-30 7.48606e-54)
(0.000119104 3.77615e-05 4.29751e-31 1.19722e-05 1.364e-31 2.49751e-57)
(0.000115941 3.70705e-05 7.91494e-31 1.18529e-05 2.52505e-31 2.02193e-56)
(0.000100494 3.12779e-05 -5.44538e-30 9.73602e-06 -1.70614e-30 4.24476e-55)
(0.000138739 4.81903e-05 0 1.67471e-05 0 0)
(0.00014544 4.05898e-05 0 1.13332e-05 0 0)
(4.92316e-05 1.63216e-05 -5.13881e-30 5.41404e-06 -1.68687e-30 6.55418e-55)
(0.000155813 5.0301e-05 -4.48449e-31 1.62388e-05 -1.44889e-31 2.03001e-57)
(0.00016451 5.2021e-05 4.20333e-29 1.645e-05 1.32931e-29 1.64999e-53)
(0.000147722 4.5647e-05 3.43422e-29 1.41057e-05 1.06551e-29 1.18909e-53)
(0.000143243 4.58795e-05 0 1.46953e-05 0 0)
(0.000188272 5.98412e-05 1.81818e-29 1.90205e-05 5.79469e-30 2.61208e-54)
(0.000190654 5.48735e-05 1.37598e-29 1.57959e-05 3.98535e-30 1.6091e-54)
(0.000118125 3.83704e-05 0 1.24659e-05 0 0)
(0.000217071 7.46815e-05 1.60098e-29 2.56992e-05 5.45216e-30 1.74771e-54)
(0.00023308 6.94313e-05 -3.69497e-29 2.06852e-05 -1.10824e-29 8.18051e-54)
(0.000146633 4.79515e-05 -6.73084e-29 1.56871e-05 -2.18081e-29 3.85405e-53)
(0.000213727 7.18286e-05 -1.82669e-34 2.41585e-05 -6.03624e-35 2.18771e-64)
(0.000248083 8.14974e-05 1.32517e-30 2.67774e-05 4.31669e-31 1.01366e-56)
(0.00025706 8.30889e-05 4.57265e-29 2.6859e-05 1.46983e-29 1.10477e-53)
(0.000232528 7.83719e-05 -1.41269e-30 2.64559e-05 -4.65666e-31 1.17133e-56)
(0.000293931 9.36837e-05 4.4953e-29 2.98607e-05 1.4278e-29 9.2509e-54)
(0.000312962 0.000100308 2.27721e-30 3.2155e-05 7.24709e-31 2.3428e-56)
(0.000212331 6.83934e-05 2.79089e-29 2.20411e-05 8.90012e-30 4.43132e-54)
(0.000337706 0.000118544 1.88923e-30 4.16565e-05 6.4981e-31 1.49482e-56)
(0.000366668 0.000113651 -2.30087e-29 3.52468e-05 -7.17025e-30 1.94131e-54)
(0.000135952 4.32589e-05 -4.52997e-30 1.37646e-05 -1.44176e-30 1.58099e-55)
(0.000378261 0.000120232 -8.13694e-30 3.82293e-05 -2.55295e-30 3.17231e-55)
(0.000420919 0.000128943 0 3.95017e-05 0 0)
(0.00032017 0.000102396 5.17108e-30 3.27486e-05 1.65601e-30 9.83474e-56)
(0.000416484 0.000135823 -4.7074e-30 4.42971e-05 -1.52977e-30 6.98489e-56)
(0.000488642 0.000156305 1.7108e-29 5.00025e-05 5.49917e-30 7.64982e-55)
(0.000466113 0.000146908 5.08567e-29 4.63103e-05 1.61296e-29 6.83423e-54)
(9.80147e-06 2.80918e-06 1.80047e-29 8.05238e-07 5.05251e-30 1.4412e-52)
(3.84957e-06 1.0309e-06 -7.5748e-30 2.82615e-07 -1.23738e-30 1.18482e-52)
(3.39531e-06 9.94838e-07 8.20744e-30 2.91674e-07 2.21306e-30 2.44112e-52)
(1.12795e-05 3.4349e-06 1.73398e-32 1.04639e-06 5.48287e-33 1.38807e-58)
(1.984e-06 6.22395e-07 9.20483e-31 1.95296e-07 3.1624e-31 1.72401e-53)
(6.07442e-06 1.88355e-06 -1.40203e-30 5.8419e-07 -4.24309e-31 2.56162e-54)
(9.91942e-06 2.46491e-06 0 6.17083e-07 0 0)
(1.01768e-05 3.70935e-06 -4.84375e-33 1.35648e-06 -1.99203e-33 1.47111e-59)
(5.44089e-06 1.84217e-06 -1.21557e-31 6.24356e-07 -4.52358e-32 2.90421e-56)
(7.91607e-06 2.19749e-06 -3.86446e-33 6.12198e-07 -9.15576e-34 1.5915e-59)
(9.98458e-06 3.11074e-06 0 9.69249e-07 0 0)
(1.18301e-05 3.78111e-06 -1.67352e-29 1.20867e-06 -5.49258e-30 1.60568e-52)
(1.03314e-05 3.59248e-06 1.91813e-32 1.25048e-06 7.25204e-33 2.99632e-58)
(9.58264e-06 2.78732e-06 4.31683e-30 8.12456e-07 1.09731e-30 1.95349e-53)
(1.21884e-05 3.88192e-06 0 1.23638e-06 0 0)
(1.34519e-05 4.18762e-06 -5.84872e-33 1.30365e-06 -1.74896e-33 6.61278e-57)
(1.27117e-05 4.0597e-06 0 1.29656e-06 0 0)
(1.06508e-05 3.24692e-06 2.70072e-30 9.90654e-07 7.50321e-31 7.94598e-54)
(1.34852e-05 4.3171e-06 0 1.3821e-06 0 0)
(9.06612e-06 2.77402e-06 0 8.48908e-07 0 0)
(1.51701e-05 4.85164e-06 2.15807e-30 1.5517e-06 6.79008e-31 3.18507e-54)
(1.02781e-05 3.12049e-06 -4.46108e-32 9.48084e-07 -1.18253e-32 4.71448e-57)
(1.38464e-05 4.58833e-06 1.61943e-30 1.52102e-06 5.71067e-31 3.06816e-54)
(7.73367e-06 2.39517e-06 -1.32183e-32 7.42408e-07 -3.36744e-33 1.25435e-57)
(1.41203e-05 4.29375e-06 0 1.30694e-06 0 0)
(1.3753e-05 4.30424e-06 0 1.34711e-06 0 0)
(1.43134e-05 4.53247e-06 0 1.43529e-06 0 0)
(1.66721e-05 5.46586e-06 5.44986e-31 1.79236e-06 1.88022e-31 2.29932e-55)
(1.56118e-05 4.79749e-06 4.29474e-31 1.47542e-06 1.12353e-31 3.81553e-55)
(1.50256e-05 4.7152e-06 -6.55684e-31 1.47984e-06 -1.9213e-31 1.51731e-54)
(9.91619e-06 3.04158e-06 2.52136e-32 9.34271e-07 -2.62933e-33 8.59823e-56)
(2.02509e-05 6.80504e-06 0 2.28676e-06 0 0)
(1.35444e-05 3.90707e-06 1.55054e-31 1.13407e-06 -2.57042e-33 3.38539e-55)
(1.45377e-05 4.88111e-06 1.4284e-36 1.65023e-06 1.18515e-36 4.56504e-65)
(1.29009e-05 4.11353e-06 -1.5259e-33 1.31163e-06 -5.82237e-34 1.43808e-57)
(1.75156e-05 5.29299e-06 0 1.60313e-06 0 0)
(1.57148e-05 5.04713e-06 0 1.621e-06 0 0)
(1.43031e-05 4.40471e-06 2.52293e-32 1.35824e-06 6.6168e-33 8.64192e-58)
(2.12804e-05 7.21222e-06 -1.44186e-31 2.44519e-06 -7.19084e-32 7.3622e-55)
(1.63897e-05 4.47024e-06 -1.41123e-32 1.2674e-06 -1.19084e-32 1.45857e-57)
(1.63091e-05 6.61942e-06 0 2.87608e-06 0 0)
(1.12671e-05 3.50616e-06 0 1.09628e-06 0 0)
(2.12447e-05 6.32718e-06 -1.64502e-30 1.89682e-06 -8.81138e-31 1.36539e-53)
(1.89822e-05 6.04284e-06 -1.39082e-30 1.92374e-06 -4.33624e-31 2.12034e-54)
(1.71768e-05 5.3541e-06 1.95562e-31 1.67069e-06 6.39647e-32 9.94968e-57)
(2.43705e-05 8.17805e-06 -2.55439e-31 2.74921e-06 -5.39795e-32 2.15879e-55)
(1.94147e-05 5.26805e-06 -1.41179e-30 1.56614e-06 -7.08618e-31 9.25113e-55)
(1.90232e-05 7.11816e-06 2.33604e-30 3.0274e-06 -2.33772e-32 2.61895e-54)
(1.5978e-05 4.95737e-06 -3.08333e-30 1.55769e-06 -1.10168e-30 1.78541e-54)
(2.51177e-05 7.78886e-06 1.23707e-31 2.42156e-06 4.47338e-32 8.12962e-57)
(2.1929e-05 6.88629e-06 2.09113e-29 2.1625e-06 6.53272e-30 1.00046e-52)
(2.06741e-05 6.5086e-06 9.9252e-30 2.05257e-06 2.94587e-30 1.46887e-53)
(2.92393e-05 9.31984e-06 0 2.97091e-06 0 0)
(2.58949e-05 8.21959e-06 -5.04715e-30 2.60915e-06 -1.58978e-30 3.66527e-54)
(2.66538e-05 8.43126e-06 0 2.721e-06 0 0)
(2.83677e-05 8.75671e-06 2.8282e-31 2.71363e-06 9.49003e-32 9.08963e-57)
(3.00396e-05 9.31e-06 6.06716e-31 3.03583e-06 2.4241e-31 3.405e-56)
(3.13847e-05 9.93174e-06 3.65578e-31 3.35482e-06 8.82012e-32 8.2816e-57)
(3.55665e-05 1.10018e-05 -1.47786e-29 3.40586e-06 -4.52132e-30 7.37915e-54)
(4.04056e-05 1.27514e-05 -8.89886e-30 4.02494e-06 -2.74447e-30 7.54164e-54)
(3.92493e-05 1.24312e-05 -1.2875e-29 3.93724e-06 -4.08399e-30 8.77198e-54)
(4.17027e-05 1.32087e-05 3.35179e-29 4.18597e-06 1.07309e-29 3.94158e-53)
(4.497e-05 1.39866e-05 0 4.3599e-06 0 0)
(4.79727e-05 1.49957e-05 1.31788e-29 4.80868e-06 3.58095e-30 6.31363e-54)
(5.16947e-05 1.60474e-05 1.19308e-29 4.98388e-06 3.75478e-30 4.08063e-54)
(5.26464e-05 1.63409e-05 -8.31053e-30 5.09269e-06 -2.44766e-30 2.22606e-54)
(5.74277e-05 1.85702e-05 0 6.22173e-06 0 0)
(6.46621e-05 1.58376e-05 -6.26245e-30 5.72919e-06 -8.05749e-31 9.42524e-55)
(6.57568e-05 2.06177e-05 -8.05817e-31 6.46802e-06 -2.47726e-31 1.7362e-56)
(6.56887e-05 2.05332e-05 -2.11216e-29 6.50462e-06 -7.15195e-30 1.14511e-53)
(7.99993e-05 2.4413e-05 6.01193e-31 7.47226e-06 1.90498e-31 1.1449e-56)
(0.000107982 3.46031e-05 -2.26669e-30 1.10902e-05 -7.26788e-31 5.06934e-56)
(9.33202e-05 2.98118e-05 4.06215e-30 9.52479e-06 1.29698e-30 2.71325e-55)
(0.000112035 3.5907e-05 0 1.15166e-05 0 0)
(0.000140253 4.51048e-05 3.40844e-29 1.45067e-05 1.09922e-29 9.11949e-54)
(6.65694e-07 2.15498e-07 1.30005e-30 6.97847e-08 4.70757e-31 1.1933e-52)
(1.21113e-06 2.78628e-07 9.72613e-30 6.46927e-08 2.33841e-30 9.7013e-53)
(1.63948e-06 5.06364e-07 -8.90755e-33 1.56396e-07 -2.74632e-33 6.16162e-59)
(4.50586e-07 1.03372e-07 -1.65446e-33 3.30092e-08 -1.07355e-33 6.16307e-59)
(5.53611e-07 1.49946e-07 -1.20847e-31 4.11678e-08 -3.26222e-32 2.67981e-56)
(1.15831e-06 2.19307e-07 2.45185e-31 4.61839e-08 6.06393e-32 1.11078e-55)
(4.07815e-07 1.50892e-07 1.92529e-30 1.02183e-07 1.05835e-30 1.18396e-53)
(4.48108e-07 1.04833e-07 -6.19876e-30 4.85493e-08 -6.04897e-31 1.17332e-52)
(6.44645e-07 1.57001e-07 1.10803e-29 4.21439e-08 2.5533e-30 1.98586e-52)
(1.13822e-06 3.99944e-07 -4.13596e-33 1.4315e-07 -1.42097e-33 1.57236e-59)
(7.51493e-07 2.32947e-07 0 7.23064e-08 0 0)
(6.44679e-07 1.79569e-07 1.9085e-29 5.16853e-08 4.8145e-30 7.27423e-52)
(8.63695e-07 1.97896e-07 1.54804e-32 5.96529e-08 3.11542e-33 2.96181e-58)
(1.35564e-06 4.93455e-07 1.28849e-31 1.84688e-07 4.64644e-32 1.25322e-56)
(1.00402e-06 3.00572e-07 2.15752e-30 9.02526e-08 6.37283e-31 4.94594e-54)
(9.09609e-07 2.72496e-07 -4.12037e-31 8.16338e-08 -1.23329e-31 2.90352e-55)
(1.26132e-06 3.68377e-07 -3.88141e-32 1.08385e-07 -1.11444e-32 1.26594e-57)
(1.95199e-06 6.3198e-07 -3.90582e-30 2.04776e-07 -1.26185e-30 8.05797e-54)
(1.44615e-06 4.71612e-07 4.06362e-36 1.54563e-07 1.33875e-36 1.20342e-65)
(1.63781e-06 5.11905e-07 2.18126e-32 1.60104e-07 6.83878e-33 3.00819e-58)
(1.86598e-06 4.78715e-07 9.26772e-36 1.32543e-07 2.2738e-36 4.84232e-65)
(3.62182e-06 1.18643e-06 6.5469e-30 3.88955e-07 2.13466e-30 1.25705e-53)
(2.22877e-06 8.02426e-07 -2.64143e-30 2.90709e-07 -9.60061e-31 3.2698e-54)
(2.02124e-06 6.08097e-07 1.88547e-30 1.8363e-07 5.59911e-31 1.8829e-54)
(3.1702e-06 8.84374e-07 -6.17966e-32 2.48799e-07 -1.7332e-32 1.23374e-57)
(3.28409e-06 1.06034e-06 0 3.43037e-07 0 0)
(3.1361e-06 9.65695e-07 0 2.97396e-07 0 0)
(2.93555e-06 8.14128e-07 -1.09358e-30 2.34443e-07 -2.83393e-31 4.56836e-55)
(3.97788e-06 1.29017e-06 1.89347e-31 4.18934e-07 6.14841e-32 9.2466e-57)
(4.6894e-06 1.60704e-06 6.65614e-30 5.5549e-07 2.2773e-30 9.74889e-54)
(5.4891e-06 1.80489e-06 1.38028e-31 5.94597e-07 4.52524e-32 3.57044e-57)
(4.21888e-06 9.25652e-07 -2.01289e-30 2.7895e-07 -3.41365e-31 1.10791e-54)
(7.6589e-06 2.70715e-06 -4.06233e-30 9.67588e-07 -1.42367e-30 2.19367e-54)
(7.10696e-06 2.36034e-06 0 7.84814e-07 0 0)
(5.21381e-06 1.59497e-06 -8.43691e-31 4.88495e-07 -2.55662e-31 1.49558e-55)
(7.96106e-06 2.44579e-06 2.65366e-30 7.51504e-07 8.17082e-31 9.23173e-55)
(9.56833e-06 3.04747e-06 1.13021e-31 9.7064e-07 3.60016e-32 1.39074e-57)
(1.00471e-05 3.29704e-06 2.73722e-31 1.08393e-06 8.95417e-32 7.72969e-57)
(7.99286e-06 2.16415e-06 1.4321e-30 6.2666e-07 3.68458e-31 2.7313e-55)
(1.30389e-05 4.86831e-06 -2.95318e-30 1.85699e-06 -1.08827e-30 6.89151e-55)
(1.46964e-05 4.5831e-06 0 1.43279e-06 0 0)
(2.24985e-05 7.40079e-06 -3.59424e-31 2.43637e-06 -1.17295e-31 6.40268e-57)
(1.43654e-05 4.09052e-06 -3.02116e-31 1.17811e-06 -8.6188e-32 6.5555e-57)
(1.821e-05 5.73644e-06 0 1.80708e-06 0 0)
(1.98849e-05 6.46171e-06 -4.83092e-31 2.10252e-06 -1.5828e-31 1.2748e-56)
(1.58333e-05 4.38571e-06 -2.28191e-30 1.25029e-06 -6.10229e-31 3.46088e-55)
(2.46789e-05 9.28048e-06 -1.33216e-31 3.57775e-06 -4.89948e-32 7.58574e-58)
(2.74917e-05 7.62521e-06 5.50443e-30 2.13748e-06 1.52824e-30 1.10784e-54)
(3.54081e-05 1.1773e-05 8.96206e-30 3.92177e-06 2.94403e-30 2.53868e-54)
(2.438e-05 6.99416e-06 -4.13913e-29 2.02077e-06 -1.19108e-29 7.29671e-53)
(3.28376e-05 1.04522e-05 3.33397e-31 3.32837e-06 1.0579e-31 3.59658e-57)
(3.50898e-05 1.07555e-05 -5.25073e-31 3.29676e-06 -1.61e-31 8.34133e-57)
(2.9279e-05 8.30638e-06 -9.89676e-31 2.36186e-06 -2.81492e-31 3.48853e-56)
(4.18567e-05 1.2922e-05 -1.41728e-29 3.99013e-06 -4.38118e-30 5.08347e-54)
(4.34744e-05 1.3403e-05 0 4.13594e-06 0 0)
(3.57432e-05 1.15437e-05 5.5798e-31 3.74343e-06 1.80682e-31 9.09266e-57)
(5.39287e-05 1.72192e-05 9.83762e-35 5.53579e-06 3.11361e-35 1.90656e-64)
(6.26697e-05 1.79115e-05 1.54594e-29 5.14627e-06 4.45477e-30 3.97332e-54)
(6.01633e-05 1.80463e-05 -2.0931e-29 5.41453e-06 -6.29019e-30 7.55336e-54)
(5.45683e-05 1.54144e-05 -4.15345e-29 4.37981e-06 -1.17256e-29 3.26054e-53)
(7.05651e-05 2.25097e-05 -4.65724e-29 7.18407e-06 -1.48309e-29 3.21203e-53)
(8.47482e-05 2.65646e-05 2.66119e-29 8.3286e-06 8.31702e-30 8.82892e-54)
(7.08488e-05 2.06571e-05 2.41991e-29 6.02856e-06 7.06979e-30 8.56479e-54)
(9.10386e-05 2.63179e-05 2.10821e-29 7.64179e-06 6.13227e-30 5.10733e-54)
(0.000103549 3.29869e-05 0 1.05191e-05 0 0)
(8.46523e-05 2.50227e-05 -2.56392e-29 7.40428e-06 -7.57291e-30 7.98768e-54)
(0.000114306 3.8694e-05 0 1.31804e-05 0 0)
(0.00013378 3.69827e-05 4.16104e-30 1.02515e-05 1.13745e-30 1.35616e-55)
(0.000143065 4.44276e-05 1.85788e-34 1.3797e-05 5.76607e-35 2.71787e-64)
(0.000115084 3.437e-05 -1.88067e-30 1.02656e-05 -5.62461e-31 3.30192e-56)
(0.000155846 4.9088e-05 1.13502e-29 1.54654e-05 3.56306e-30 9.50593e-55)
(0.000164945 5.25849e-05 5.54787e-30 1.67659e-05 1.77303e-30 2.02242e-55)
(0.000158198 4.80481e-05 7.50913e-30 1.46156e-05 2.29724e-30 3.77885e-55)
(0.000199544 6.30057e-05 -2.80058e-29 1.99007e-05 -8.87517e-30 4.173e-54)
(0.000230834 7.38823e-05 -2.28499e-30 2.36503e-05 -7.31631e-31 2.44245e-56)
(2.14842e-06 6.1791e-07 0 1.77784e-07 0 0)
(1.52095e-05 4.33589e-06 -2.34402e-29 1.2382e-06 -6.40576e-30 8.08609e-53)
(1.76357e-05 5.41218e-06 -4.33452e-29 1.66102e-06 -1.32174e-29 2.23193e-52)
(7.34358e-06 2.22195e-06 2.34267e-32 6.72351e-07 7.03058e-33 1.38146e-58)
(5.86185e-06 1.68176e-06 5.3002e-30 4.82524e-07 1.51244e-30 8.6347e-54)
(1.77586e-05 5.12308e-06 3.76523e-31 1.47816e-06 1.09383e-31 3.63472e-56)
(1.19944e-05 4.5452e-06 2.36407e-29 1.72546e-06 8.61678e-30 8.60425e-53)
(1.2614e-05 2.83009e-06 -6.47018e-29 6.35445e-07 -1.4506e-29 6.05717e-52)
(7.69531e-06 2.03666e-06 -3.16579e-29 5.39062e-07 -8.39133e-30 2.15077e-52)
(2.05907e-05 6.95662e-06 0 2.35121e-06 0 0)
(1.76397e-05 5.45536e-06 -2.41566e-32 1.68732e-06 -7.39897e-33 6.40532e-59)
(1.56213e-05 4.48738e-06 -5.13031e-31 1.28936e-06 -1.45622e-31 3.14726e-56)
(1.59651e-05 4.22208e-06 5.06093e-32 1.11674e-06 1.34468e-32 2.92603e-58)
(2.34435e-05 7.7912e-06 1.5778e-29 2.58995e-06 5.16757e-30 1.98136e-53)
(2.07819e-05 6.3679e-06 7.76649e-30 1.9513e-06 2.36676e-30 5.1343e-54)
(1.7298e-05 5.24989e-06 -1.85489e-30 1.59368e-06 -5.57825e-31 2.79413e-55)
(2.16003e-05 6.59435e-06 2.0531e-30 2.01328e-06 6.22821e-31 4.1618e-55)
(2.87981e-05 9.14427e-06 -1.0278e-29 2.90407e-06 -3.22727e-30 7.1123e-54)
(2.51562e-05 7.77578e-06 0 2.40352e-06 0 0)
(1.54283e-05 4.78666e-06 0 1.48531e-06 0 0)
(2.74159e-05 8.36135e-06 -4.75685e-30 2.55011e-06 -1.44946e-30 1.55908e-54)
(3.77222e-05 1.22695e-05 3.22411e-29 3.99109e-06 1.04091e-29 5.07597e-53)
(3.10119e-05 8.64151e-06 -1.0127e-29 2.40808e-06 -2.82351e-30 7.01861e-54)
(1.10056e-05 3.27097e-06 3.69325e-30 9.72249e-07 1.09334e-30 1.86538e-54)
(3.81683e-05 1.2193e-05 -1.61992e-31 3.89552e-06 -5.12568e-32 1.22878e-57)
(3.77794e-05 1.19784e-05 4.34517e-30 3.79837e-06 1.36394e-30 9.91975e-55)
(3.50192e-05 1.06774e-05 0 3.25573e-06 0 0)
(3.07207e-05 8.79266e-06 -2.67281e-30 2.51686e-06 -7.66356e-31 2.86478e-55)
(4.21572e-05 1.35697e-05 1.6673e-30 4.36816e-06 5.34105e-31 9.02277e-56)
(4.46782e-05 1.4231e-05 1.20066e-29 4.53312e-06 3.80203e-30 5.82859e-54)
(3.16882e-05 1.00134e-05 3.11476e-30 3.16438e-06 9.79956e-31 4.15681e-55)
(4.07817e-05 1.12341e-05 -4.30935e-30 3.0957e-06 -1.1866e-30 5.22855e-55)
(5.70777e-05 1.92815e-05 -5.91693e-30 6.51657e-06 -1.96978e-30 8.98866e-55)
(5.41671e-05 1.50012e-05 2.1057e-31 4.15482e-06 5.86469e-32 1.33817e-57)
(2.42389e-05 7.28982e-06 -1.41678e-30 2.19254e-06 -4.26754e-31 9.3849e-56)
(6.00297e-05 1.95791e-05 8.04434e-30 6.38681e-06 2.5988e-30 1.80683e-54)
(6.42144e-05 2.01473e-05 0 6.32127e-06 0 0)
(5.69567e-05 1.79602e-05 4.69128e-30 5.66363e-06 1.47488e-30 5.07813e-55)
(5.35428e-05 1.50628e-05 -4.56871e-31 4.24176e-06 -1.3125e-31 5.82001e-57)
(7.55202e-05 2.63953e-05 -5.71706e-30 9.23672e-06 -1.95518e-30 6.06195e-55)
(7.74951e-05 2.05628e-05 -2.31548e-30 5.46413e-06 -6.20019e-31 7.45517e-56)
(2.92682e-05 9.31663e-06 6.69815e-35 2.96614e-06 2.12321e-35 1.81291e-64)
(8.30712e-05 2.59813e-05 -2.78367e-29 8.1264e-06 -8.67587e-30 1.41442e-53)
(8.89262e-05 2.76388e-05 0 8.59033e-06 0 0)
(8.37273e-05 2.62919e-05 -3.66065e-30 8.25655e-06 -1.14696e-30 1.76801e-55)
(7.38218e-05 2.10311e-05 -2.51644e-30 5.99496e-06 -7.19858e-31 9.02592e-56)
(0.000106462 3.79368e-05 6.76181e-30 1.3548e-05 2.35024e-30 5.554e-55)
(0.000109517 2.73993e-05 2.41648e-30 6.87186e-06 5.91434e-31 6.47499e-56)
(4.08085e-05 1.3003e-05 3.72096e-31 4.14528e-06 1.1774e-31 3.86461e-57)