/*--------------------------------*- C++ -*----------------------------------*\
| =========                 |                                                 |
| \\      /  F ield         | OpenFOAM: The Open Source CFD Toolbox           |
|  \\    /   O peration     | Version:  v2012                                 |
|   \\  /    A nd           | Website:  www.openfoam.com                      |
|    \\/     M anipulation  |                                                 |
\*---------------------------------------------------------------------------*/
FoamFile
{
    version     2.0;
    format      ascii;
    class       volScalarField;
    location    "1e-06";
    object      yPlus;
}
// * * * * * * * * * * * * * * * * * * * * * * * * * * * * * * * * * * * * * //

dimensions      [0 0 0 0 0 0 0];


internalField   uniform 0;

boundaryField
{
    inlet
    {
        type            calculated;
        value           nonuniform List<scalar> 0();
    }
    outlet
    {
        type            calculated;
        value           nonuniform List<scalar> 0();
    }
    front
    {
        type            empty;
    }
    back
    {
        type            empty;
    }
    hub
    {
        type            calculated;
        value           nonuniform List<scalar> 
75
(
5.45259
5.42221
5.39301
5.43691
5.42554
5.47243
5.42919
5.50539
5.52707
5.53512
5.51251
5.59058
5.61394
5.59145
5.58331
5.64882
5.63585
5.59475
5.60786
5.66637
5.63532
5.59409
5.64532
5.63664
5.64806
5.62149
5.68327
5.68727
5.65501
5.65815
5.71555
5.6934
5.6541
5.70625
5.71136
5.70401
5.68691
5.74994
5.74047
5.70127
5.74093
5.57737
5.75566
5.7396
5.80352
5.7984
5.75936
5.80477
5.64457
5.8187
5.80683
5.87366
5.86182
5.82433
5.87525
5.86861
5.83517
5.84605
5.89571
5.91523
5.9047
5.974
5.98481
5.97252
6.03492
6.03278
6.00874
6.04188
5.91091
6.07473
6.08514
6.1361
6.14312
6.14655
6.22089
)
;
    }
    tip
    {
        type            calculated;
        value           nonuniform List<scalar> 
70
(
75.3069
75.1111
74.9201
74.9013
74.9668
74.801
74.5377
74.6362
74.6699
74.5391
74.1363
74.4191
74.412
74.3143
73.7529
74.2981
74.1108
74.1503
73.6195
74.1103
73.9306
73.9019
73.6486
73.9101
73.7631
73.6059
73.5918
73.68
73.5787
73.1654
73.4584
73.4359
73.3332
72.8619
73.3079
73.1349
73.0301
72.8664
73.0233
72.9038
72.5088
72.7308
72.7062
72.5744
72.1656
72.5261
72.3635
72.1283
72.1344
72.1902
72.0696
71.5831
71.9731
71.8179
71.6033
71.5534
71.6378
71.5062
71.0443
71.4003
71.2581
70.9724
71.0198
71.067
70.8833
70.5538
70.8131
70.6878
70.2411
70.5244
)
;
    }
    procBoundary3to2
    {
        type            processor;
        value           uniform 0;
    }
    procBoundary3to4
    {
        type            processor;
        value           uniform 0;
    }
}


// ************************************************************************* //
